Title
81392
    1CHL1    C3    1   2.738   3.479  10.192 -0.4257  0.4265  0.2753
    1CHL1    H3    2   2.816   3.406  10.161 -0.6134  0.0921  0.5951
    1CHL1    O3    3   2.744   3.513  10.327  0.0746 -0.3435 -0.4333
    1CHL1   H3'    4   2.730   3.608  10.329 -0.6620 -0.4540  0.3231
    1CHL1    C4    5   2.768   3.609  10.121 -0.0041  0.1534  0.4355
    1CHL1   H4A    6   2.696   3.686  10.157  2.4373  2.1915  1.2272
    1CHL1   H4B    7   2.872   3.639  10.142  0.6175 -1.3820 -0.2368
    1CHL1    C5    8   2.761   3.575   9.969 -0.9285 -0.8745  0.3824
    1CHL1    C6    9   2.877   3.577   9.901  0.6272  0.5072 -0.6206
    1CHL1    H6   10   2.967   3.612   9.953  0.5337  0.4972 -0.4525
    1CHL1    C7   11   2.896   3.556   9.756  0.4915  0.1735  0.1062
    1CHL1   H7A   12   2.938   3.651   9.716 -0.9241  0.0045 -1.9429
    1CHL1   H7B   13   2.929   3.461   9.709 -0.1205  0.4204 -0.8468
    1CHL1    C8   14   2.752   3.572   9.692  0.0238 -0.6027  0.3526
    1CHL1    H8   15   2.717   3.678   9.687 -2.3164 -1.1629  2.6133
    1CHL1   C14   16   2.763   3.525   9.547  0.1086  0.3472  0.4146
    1CHL1   H14   17   2.788   3.417   9.551 -4.8235 -1.1202 -1.5827
    1CHL1   C15   18   2.873   3.590   9.464  0.8149 -0.2799  0.2046
    1CHL1  H15A   19   2.852   3.697   9.486 -1.2697 -0.6091  0.0195
    1CHL1  H15B   20   2.974   3.561   9.501  0.2945  1.3898  3.3312
    1CHL1   C16   21   2.846   3.569   9.316  0.2424  0.2510  0.1826
    1CHL1  H16A   22   2.846   3.658   9.250  1.8632  0.0958 -0.0626
    1CHL1  H16B   23   2.918   3.492   9.280  1.6671  1.9540 -0.7757
    1CHL1   C17   24   2.703   3.493   9.326  0.1293  0.3687  0.1600
    1CHL1   H17   25   2.732   3.386   9.336  0.3360  0.2120 -1.7320
    1CHL1   C13   26   2.638   3.527   9.466  0.5262  0.7052  0.0597
    1CHL1   C18   27   2.575   3.678   9.449 -0.8821  0.0933 -0.8381
    1CHL1  H18A   28   2.471   3.667   9.412 -0.3055 -0.6072 -2.3060
    1CHL1  H18B   29   2.568   3.724   9.551  2.3337  1.2837 -1.0476
    1CHL1  H18C   30   2.627   3.738   9.372  1.9343 -1.2629 -0.1125
    1CHL1   C12   31   2.539   3.437   9.533 -0.0700 -0.5867 -0.1762
    1CHL1  H12A   32   2.437   3.457   9.495 -1.2310 -2.1022  1.9313
    1CHL1  H12B   33   2.570   3.330   9.532  4.6965  0.5229  1.4968
    1CHL1   C11   34   2.515   3.477   9.682  0.5032 -0.3919 -0.5144
    1CHL1  H11A   35   2.473   3.579   9.667 -0.3466 -0.3514  1.8397
    1CHL1  H11B   36   2.436   3.409   9.719 -1.5796  1.1280 -1.9152
    1CHL1    C9   37   2.647   3.484   9.765  0.5463 -0.1064 -0.0033
    1CHL1    H9   38   2.688   3.381   9.767  1.3234  0.2062  1.0239
    1CHL1   C10   39   2.624   3.526   9.914 -0.7783 -0.7317 -0.1196
    1CHL1   C19   40   2.527   3.647   9.927  0.0681  0.8110 -0.1392
    1CHL1  H19A   41   2.425   3.623   9.890  1.5089 -0.8245 -3.4245
    1CHL1  H19B   42   2.518   3.680  10.033  1.2807 -1.4431  0.7404
    1CHL1  H19C   43   2.568   3.740   9.881  1.1434 -0.2751 -1.4604
    1CHL1    C1   44   2.583   3.409  10.006  0.4569 -0.1159 -0.5735
    1CHL1   H1A   45   2.477   3.383   9.983  0.0917 -0.0684  0.9031
    1CHL1   H1B   46   2.648   3.325   9.974  1.5350  0.8120 -0.8782
    1CHL1    C2   47   2.596   3.432  10.154 -0.0652 -0.0569 -0.3566
    1CHL1   H2A   48   2.565   3.336  10.201  4.2731 -1.9300 -0.8182
    1CHL1   H2B   49   2.516   3.499  10.191 -1.8497 -1.9476 -0.6218
    1CHL1   C20   50   2.602   3.509   9.200 -0.4228 -0.0428 -0.0710
    1CHL1   H20   51   2.538   3.598   9.220  0.3735  0.4170  0.5431
    1CHL1   C21   52   2.505   3.386   9.199  0.4007  0.0822  0.9308
    1CHL1  H21A   53   2.419   3.398   9.130 -0.7210  2.3549  2.5936
    1CHL1  H21B   54   2.462   3.390   9.301 -0.4855  0.7163  0.5419
    1CHL1  H21C   55   2.565   3.293   9.187  1.0987  0.6453 -0.0792
    1CHL1   C22   56   2.682   3.517   9.064  0.2910  0.3088  0.2880
    1CHL1  H22A   57   2.750   3.605   9.066  0.2714  0.3131  0.7508
    1CHL1  H22B   58   2.740   3.423   9.046 -1.2897 -0.6750  0.1373
    1CHL1   C23   59   2.598   3.534   8.938  0.3052 -0.5355 -0.4851
    1CHL1  H23A   60   2.528   3.448   8.930  1.0745 -0.9734 -3.6497
    1CHL1  H23B   61   2.539   3.625   8.966  1.2809 -0.4055  1.3296
    1CHL1   C24   62   2.687   3.553   8.814  0.3783 -0.2170  0.3169
    1CHL1  H24A   63   2.781   3.607   8.841  0.1735  0.7933 -0.8985
    1CHL1  H24B   64   2.719   3.450   8.789 -0.0084  0.0859 -1.5785
    1CHL1   C25   65   2.615   3.632   8.700 -0.7468 -0.3491 -0.0718
    1CHL1   H25   66   2.572   3.724   8.745  0.4612 -0.4059  1.2841
    1CHL1   C26   67   2.720   3.685   8.602  0.8256  0.2106  0.7095
    1CHL1  H26A   68   2.791   3.757   8.648  1.6800  0.8414 -1.4702
    1CHL1  H26B   69   2.785   3.599   8.574  0.8428 -0.0932  1.6440
    1CHL1  H26C   70   2.681   3.732   8.508 -1.7792 -0.2100  1.4909
    1CHL1   C27   71   2.506   3.548   8.634  0.2816  0.8006  0.2711
    1CHL1  H27A   72   2.553   3.456   8.593  1.5629 -0.2234  3.6938
    1CHL1  H27B   73   2.423   3.520   8.703 -0.2509  3.1771  0.6860
    1CHL1  H27C   74   2.451   3.613   8.563 -0.8076 -0.2907  0.0909
    2CHL1    C3   75   4.250   3.503  10.101  0.3546  0.0814 -0.3945
    2CHL1    H3   76   4.222   3.609  10.086 -0.9597 -0.2398 -0.3314
    2CHL1    O3   77   4.244   3.453  10.232 -0.3888 -0.0036  0.0635
    2CHL1   H3'   78   4.267   3.360  10.229  2.0012  0.5157 -3.5294
    2CHL1    C4   79   4.137   3.427  10.018  0.2593 -0.3630  0.8206
    2CHL1   H4A   80   4.156   3.317  10.023 -0.3630 -0.5437 -0.3711
    2CHL1   H4B   81   4.033   3.428  10.055 -1.2091 -2.7584 -2.6371
    2CHL1    C5   82   4.129   3.489   9.876 -0.2255  0.2653  0.0782
    2CHL1    C6   83   4.020   3.556   9.830 -0.8125 -0.1825  0.7479
    2CHL1    H6   84   3.936   3.583   9.894 -0.4220 -0.2640  1.3054
    2CHL1    C7   85   4.020   3.610   9.686 -0.1132  0.4284 -0.6100
    2CHL1   H7A   86   3.918   3.589   9.648 -0.2308 -0.1230  0.0033
    2CHL1   H7B   87   4.027   3.721   9.681  1.2404  0.4961  1.3804
    2CHL1    C8   88   4.133   3.549   9.596  0.7458  0.1167  0.2151
    2CHL1    H8   89   4.096   3.445   9.581 -2.3461  1.2233 -0.7330
    2CHL1   C14   90   4.147   3.631   9.467  0.5185  0.1884 -0.5427
    2CHL1   H14   91   4.185   3.732   9.492 -0.2178 -0.3699  3.5110
    2CHL1   C15   92   4.020   3.650   9.388  0.4422 -0.1247  0.2035
    2CHL1  H15A   93   3.963   3.556   9.376 -0.4190  0.5224 -0.9395
    2CHL1  H15B   94   3.948   3.727   9.423 -0.0893  0.3172 -1.7410
    2CHL1   C16   95   4.065   3.682   9.247 -0.0918  0.4228 -0.0557
    2CHL1  H16A   96   4.012   3.609   9.184  0.4242  0.8009 -0.9413
    2CHL1  H16B   97   4.043   3.783   9.206 -1.4625  0.1871  0.0457
    2CHL1   C17   98   4.213   3.652   9.236 -0.0836 -0.0364  0.0494
    2CHL1   H17   99   4.264   3.747   9.263 -0.3816  0.1393  0.0030
    2CHL1   C13  100   4.243   3.570   9.364  0.2499 -0.8457 -0.5389
    2CHL1   C18  101   4.209   3.422   9.329 -0.0850 -0.0874 -0.4729
    2CHL1  H18A  102   4.193   3.359   9.420  1.1895  1.0019  0.5524
    2CHL1  H18B  103   4.114   3.432   9.271 -0.3432  1.9169  0.2325
    2CHL1  H18C  104   4.300   3.386   9.277 -0.1602 -1.9303  0.5518
    2CHL1   C12  105   4.385   3.583   9.433  0.5687  0.1766  0.3572
    2CHL1  H12A  106   4.453   3.527   9.366 -0.6377 -2.0881  0.9089
    2CHL1  H12B  107   4.416   3.689   9.446  0.2636  0.4121 -0.7017
    2CHL1   C11  108   4.385   3.507   9.571  0.3952  0.2514 -0.0183
    2CHL1  H11A  109   4.394   3.403   9.535  0.4974  0.5308 -0.8070
    2CHL1  H11B  110   4.484   3.535   9.613 -0.6641  1.2735  1.9978
    2CHL1    C9  111   4.266   3.552   9.669  0.8600 -0.3413  0.2557
    2CHL1    H9  112   4.290   3.657   9.697  2.1809 -0.7972  0.9109
    2CHL1   C10  113   4.262   3.469   9.801 -0.1641 -0.1730 -0.2058
    2CHL1   C19  114   4.288   3.319   9.784 -0.5113  0.1542  0.2490
    2CHL1  H19A  115   4.223   3.287   9.699 -1.0492  2.5358 -0.3051
    2CHL1  H19B  116   4.394   3.311   9.755 -0.5382 -0.8068  0.3888
    2CHL1  H19C  117   4.260   3.240   9.857 -0.5623 -0.2719 -0.2259
    2CHL1    C1  118   4.381   3.522   9.889  0.2441 -1.0655 -0.6624
    2CHL1   H1A  119   4.476   3.503   9.835 -0.1344 -0.8430 -1.4261
    2CHL1   H1B  120   4.382   3.633   9.896  1.1339 -1.1619  1.5671
    2CHL1    C2  121   4.384   3.468  10.033  0.1423  0.5798  0.0575
    2CHL1   H2A  122   4.463   3.503  10.102 -0.1303 -0.7521  1.0852
    2CHL1   H2B  123   4.397   3.358  10.032 -0.0178  0.5514  0.6711
    2CHL1   C20  124   4.265   3.611   9.097 -0.0719 -0.3080 -0.5857
    2CHL1   H20  125   4.214   3.515   9.076  1.6014 -1.2880 -0.3477
    2CHL1   C21  126   4.419   3.598   9.103  0.4802  0.1263 -1.1998
    2CHL1  H21A  127   4.453   3.691   9.153  1.4902 -0.2301 -1.2065
    2CHL1  H21B  128   4.472   3.598   9.006 -1.2516  0.3664 -2.1901
    2CHL1  H21C  129   4.442   3.507   9.162 -0.2601  0.1095 -0.9242
    2CHL1   C22  130   4.227   3.712   8.984  0.3136 -0.1507 -0.4060
    2CHL1  H22A  131   4.119   3.735   8.994  0.1176 -0.3630 -1.7828
    2CHL1  H22B  132   4.277   3.808   9.008 -0.9450 -0.2308  3.0423
    2CHL1   C23  133   4.245   3.646   8.843 -0.4131 -0.9676 -0.3491
    2CHL1  H23A  134   4.353   3.620   8.831  0.1379  0.3570  1.3133
    2CHL1  H23B  135   4.190   3.551   8.831 -0.4710 -0.6445 -3.4460
    2CHL1   C24  136   4.195   3.750   8.738  0.1628 -0.6646  0.6183
    2CHL1  H24A  137   4.084   3.750   8.742  0.1165 -0.7910 -0.3342
    2CHL1  H24B  138   4.234   3.853   8.752  0.3974 -0.7561  0.6395
    2CHL1   C25  139   4.207   3.711   8.585 -0.6703  0.6066  0.0918
    2CHL1   H25  140   4.181   3.603   8.576 -0.8223  0.7408 -1.3716
    2CHL1   C26  141   4.105   3.790   8.496  0.3252 -0.0365  0.4550
    2CHL1  H26A  142   4.006   3.770   8.542  0.0748  0.9517  0.3661
    2CHL1  H26B  143   4.130   3.898   8.502 -1.4285  0.3563  1.2883
    2CHL1  H26C  144   4.104   3.761   8.388 -2.0059  3.0984 -0.5248
    2CHL1   C27  145   4.355   3.727   8.547 -0.5912 -0.0447 -0.0890
    2CHL1  H27A  146   4.380   3.832   8.522 -0.7042 -0.1595 -0.6989
    2CHL1  H27B  147   4.421   3.698   8.632 -0.3505 -0.6986 -0.4863
    2CHL1  H27C  148   4.378   3.663   8.459 -0.1743 -0.9488  0.6587
    3CHL1    C3  149   3.430   3.439   9.931  0.3231  0.6877 -0.2545
    3CHL1    H3  150   3.467   3.337   9.954  0.2637  0.7300  0.0249
    3CHL1    O3  151   3.463   3.517  10.045 -0.5640 -0.2365 -0.7276
    3CHL1   H3'  152   3.425   3.603  10.027  0.7676  0.4555 -0.3630
    3CHL1    C4  153   3.509   3.497   9.813  0.1315 -0.3004 -0.4558
    3CHL1   H4A  154   3.498   3.608   9.810 -1.1015 -0.4252 -1.0586
    3CHL1   H4B  155   3.615   3.477   9.842 -0.5424 -0.3564  2.2125
    3CHL1    C5  156   3.479   3.433   9.681  0.1152 -0.0399 -0.2999
    3CHL1    C6  157   3.579   3.390   9.603  0.1234 -0.5169 -0.1256
    3CHL1    H6  158   3.680   3.403   9.644  1.2744 -0.1960 -2.8553
    3CHL1    C7  159   3.556   3.326   9.469  0.5753 -0.4311 -0.7198
    3CHL1   H7A  160   3.640   3.351   9.401  0.8320  1.5290  0.2307
    3CHL1   H7B  161   3.578   3.220   9.493 -0.5371 -0.6983 -0.8256
    3CHL1    C8  162   3.406   3.328   9.424 -0.2766 -0.7153  0.5897
    3CHL1    H8  163   3.390   3.427   9.376  1.0714 -1.9159 -2.6097
    3CHL1   C14  164   3.382   3.227   9.313  0.0426 -0.6806 -0.1075
    3CHL1   H14  165   3.373   3.125   9.355 -1.0574 -1.1855 -1.4909
    3CHL1   C15  166   3.486   3.223   9.201  0.3042  0.6095 -0.7360
    3CHL1  H15A  167   3.522   3.324   9.171  0.7257  0.2859 -1.3434
    3CHL1  H15B  168   3.574   3.165   9.236 -1.3987 -1.7410 -0.1408
    3CHL1   C16  169   3.414   3.161   9.082 -0.1803  1.0446  0.2639
    3CHL1  H16A  170   3.415   3.235   9.000  2.8734 -0.9287 -1.6707
    3CHL1  H16B  171   3.467   3.072   9.043 -0.7958  0.4915  0.6586
    3CHL1   C17  172   3.267   3.136   9.135 -0.1061 -0.4279 -0.8321
    3CHL1   H17  173   3.247   3.039   9.186 -1.8702 -0.0743 -0.7935
    3CHL1   C13  174   3.250   3.247   9.245 -0.0887  0.3936 -0.0890
    3CHL1   C18  175   3.229   3.386   9.177 -0.2120  0.1205 -0.2079
    3CHL1  H18A  176   3.122   3.387   9.147 -0.1145 -0.1959 -0.5766
    3CHL1  H18B  177   3.237   3.472   9.247 -1.5004 -1.3165  1.8311
    3CHL1  H18C  178   3.295   3.402   9.090 -2.2797  0.0520 -1.8731
    3CHL1   C12  179   3.144   3.210   9.362  0.4165  0.1001 -0.1401
    3CHL1  H12A  180   3.035   3.199   9.341  0.1488 -1.6813  1.9186
    3CHL1  H12B  181   3.159   3.102   9.381 -2.7997 -0.2696  0.9425
    3CHL1   C11  182   3.162   3.302   9.486  0.0120 -0.1564 -0.1865
    3CHL1  H11A  183   3.123   3.402   9.457 -1.8408 -1.0742 -1.0476
    3CHL1  H11B  184   3.091   3.271   9.566  1.4957  1.3431  1.7905
    3CHL1    C9  185   3.309   3.314   9.535  0.0931  0.4682  0.0998
    3CHL1    H9  186   3.335   3.217   9.581 -2.3627 -1.3458 -2.0248
    3CHL1   C10  187   3.326   3.413   9.652  0.5124  0.3859  0.2118
    3CHL1   C19  188   3.253   3.549   9.619 -0.1742 -1.0214  0.0821
    3CHL1  H19A  189   3.292   3.588   9.522 -0.3165  1.3398  0.9146
    3CHL1  H19B  190   3.142   3.539   9.616 -0.2173 -0.5021 -1.4920
    3CHL1  H19C  191   3.282   3.628   9.691  1.1548 -1.4550  0.0514
    3CHL1    C1  192   3.256   3.361   9.781 -0.7915  0.0637  0.8111
    3CHL1   H1A  193   3.146   3.359   9.767 -0.8128 -1.9863  1.0434
    3CHL1   H1B  194   3.298   3.261   9.804 -2.7674 -0.4010  2.7178
    3CHL1    C2  195   3.284   3.438   9.909 -0.0008  0.2312 -0.0413
    3CHL1   H2A  196   3.233   3.388   9.994  0.3249  0.8527  0.5243
    3CHL1   H2B  197   3.249   3.542   9.898  1.0016  0.3080 -3.7129
    3CHL1   C20  198   3.156   3.135   9.026 -0.8725 -0.2504 -0.7853
    3CHL1   H20  199   3.171   3.223   8.961  2.7912  0.5106  0.8526
    3CHL1   C21  200   3.008   3.143   9.076 -0.3893 -0.6472  0.3950
    3CHL1  H21A  201   2.994   3.069   9.158 -2.1178  0.7889  1.4772
    3CHL1  H21B  202   2.939   3.108   8.996 -0.4796  2.2344 -0.8882
    3CHL1  H21C  203   2.987   3.249   9.101  1.5264  0.1210 -0.9907
    3CHL1   C22  204   3.189   3.016   8.921  0.0243 -0.1747 -0.2443
    3CHL1  H22A  205   3.299   3.016   8.906  0.0303 -1.3805 -0.2600
    3CHL1  H22B  206   3.173   2.919   8.972  2.7345  0.0187  1.1374
    3CHL1   C23  207   3.103   3.009   8.786  0.3733  0.9389 -0.2445
    3CHL1  H23A  208   3.007   2.961   8.814  1.1461 -0.7963 -0.4273
    3CHL1  H23B  209   3.103   3.095   8.716 -1.1778 -0.4344 -2.0334
    3CHL1   C24  210   3.180   2.904   8.703 -0.3923 -0.0730  0.0778
    3CHL1  H24A  211   3.286   2.932   8.686 -0.1624 -2.0800 -2.2298
    3CHL1  H24B  212   3.176   2.813   8.766  2.5538  1.6319  3.0849
    3CHL1   C25  213   3.122   2.867   8.560 -0.0218 -0.5224 -0.4933
    3CHL1   H25  214   3.103   2.967   8.516  0.8291  0.1926  0.7248
    3CHL1   C26  215   3.219   2.778   8.481 -0.1816  0.0907  0.2204
    3CHL1  H26A  216   3.223   2.673   8.517  3.4120 -0.5102 -1.5233
    3CHL1  H26B  217   3.192   2.778   8.374  1.6794  1.8757 -0.2892
    3CHL1  H26C  218   3.324   2.814   8.483  0.6850 -2.2537  0.1647
    3CHL1   C27  219   2.981   2.804   8.575  0.5371 -0.0851 -0.2441
    3CHL1  H27A  220   2.986   2.716   8.642 -2.3961  0.2845  0.6343
    3CHL1  H27B  221   2.903   2.877   8.606 -1.0668 -2.0794  0.6652
    3CHL1  H27C  222   2.949   2.761   8.478  1.4926  0.1443 -0.6655
    4CHL1    C3  223   2.284   4.093  10.126  0.4072 -0.4241  0.5449
    4CHL1    H3  224   2.391   4.112  10.104  0.5906  0.8281  2.2913
    4CHL1    O3  225   2.277   4.103  10.268  0.4708 -0.5142  0.0564
    4CHL1   H3'  226   2.348   4.046  10.299  0.7347  0.4958  1.3966
    4CHL1    C4  227   2.188   4.195  10.062  0.0886  0.8553  0.5545
    4CHL1   H4A  228   2.090   4.163  10.106 -0.0030  1.6994  0.9856
    4CHL1   H4B  229   2.212   4.300  10.090 -0.5445  1.4930 -1.1837
    4CHL1    C5  230   2.185   4.179   9.907  0.2230  0.1289 -0.7588
    4CHL1    C6  231   2.202   4.287   9.834 -0.2501 -0.0948 -0.2713
    4CHL1    H6  232   2.218   4.391   9.867  1.6475 -0.1922 -0.7663
    4CHL1    C7  233   2.211   4.281   9.684 -0.3635  0.0899 -0.1129
    4CHL1   H7A  234   2.132   4.353   9.653 -1.0611 -0.2510  0.8448
    4CHL1   H7B  235   2.307   4.326   9.650 -0.6228  2.9524  2.5257
    4CHL1    C8  236   2.182   4.144   9.621  0.0846 -0.4715 -0.5894
    4CHL1    H8  237   2.072   4.128   9.621 -0.0188  0.1670 -1.8125
    4CHL1   C14  238   2.228   4.139   9.478  0.0918 -1.3337 -0.1352
    4CHL1   H14  239   2.336   4.162   9.482 -0.5529  1.9804  1.4266
    4CHL1   C15  240   2.170   4.245   9.379  0.4965  0.2453  0.1727
    4CHL1  H15A  241   2.062   4.230   9.357  0.8469  1.0423 -2.4181
    4CHL1  H15B  242   2.187   4.351   9.407  0.7078  0.0893  0.6424
    4CHL1   C16  243   2.248   4.203   9.252 -0.3628 -0.1056 -0.3419
    4CHL1  H16A  244   2.174   4.208   9.170 -3.8172  1.1045  2.6044
    4CHL1  H16B  245   2.334   4.271   9.229  0.8000 -0.8587  1.5338
    4CHL1   C17  246   2.284   4.053   9.272  0.2714  0.3740  0.6196
    4CHL1   H17  247   2.394   4.051   9.286  0.1338  0.5324  1.8556
    4CHL1   C13  248   2.217   4.007   9.407  0.1849  0.3815 -0.1013
    4CHL1   C18  249   2.073   3.965   9.388 -0.0040 -0.8814 -0.7173
    4CHL1  H18A  250   2.073   3.868   9.334 -1.5291 -2.2351  1.5419
    4CHL1  H18B  251   2.024   3.934   9.483 -0.8628  0.1430 -0.8067
    4CHL1  H18C  252   2.002   4.033   9.337  1.9273  0.8390 -1.2396
    4CHL1   C12  253   2.291   3.899   9.482  0.6260 -0.2287  0.2814
    4CHL1  H12A  254   2.286   3.795   9.443  1.1658 -0.9404  2.0247
    4CHL1  H12B  255   2.402   3.905   9.477  0.7159 -1.3162  0.6232
    4CHL1   C11  256   2.254   3.897   9.630  0.2490 -0.0916 -0.2541
    4CHL1  H11A  257   2.153   3.853   9.635  0.2358 -0.0828 -0.4204
    4CHL1  H11B  258   2.330   3.830   9.677  1.7502  0.4104 -1.8288
    4CHL1    C9  259   2.249   4.035   9.706  0.1668 -0.7222  0.2597
    4CHL1    H9  260   2.357   4.060   9.714 -0.6032  4.0114 -0.8445
    4CHL1   C10  261   2.192   4.033   9.852  0.0609 -0.5587  0.4893
    4CHL1   C19  262   2.044   3.981   9.850 -1.2291 -0.1596  0.1971
    4CHL1  H19A  263   1.985   4.051   9.788  1.7276 -0.1523 -2.9248
    4CHL1  H19B  264   2.032   3.884   9.797 -1.4103  0.5032 -0.9915
    4CHL1  H19C  265   2.008   3.972   9.955  0.1893  2.0462  0.9445
    4CHL1    C1  266   2.289   3.942   9.934  0.9225  0.2808  0.7205
    4CHL1   H1A  267   2.266   3.839   9.898  1.5337 -0.0107  1.1571
    4CHL1   H1B  268   2.394   3.968   9.911  0.4345  0.3308 -1.6746
    4CHL1    C2  269   2.265   3.948  10.082 -0.0675  0.0362 -0.3438
    4CHL1   H2A  270   2.336   3.877  10.130 -0.5679  1.4303  2.7060
    4CHL1   H2B  271   2.162   3.907  10.098 -0.1245  0.5970  0.8353
    4CHL1   C20  272   2.262   3.963   9.150 -0.5739  0.2953  0.1614
    4CHL1   H20  273   2.152   3.954   9.138 -0.5100 -1.0950  0.3832
    4CHL1   C21  274   2.331   3.834   9.175  0.4661  0.7167  0.1728
    4CHL1  H21A  275   2.428   3.847   9.228  1.6163 -2.7808 -0.8142
    4CHL1  H21B  276   2.354   3.765   9.091 -1.5674  1.9803 -1.5091
    4CHL1  H21C  277   2.270   3.766   9.238  0.8338  0.7825  0.6002
    4CHL1   C22  278   2.311   4.029   9.014 -0.1484  0.4584  0.0178
    4CHL1  H22A  279   2.283   4.136   9.009  1.0691  0.8286  0.6268
    4CHL1  H22B  280   2.422   4.017   9.010 -0.2075  0.1969 -1.3999
    4CHL1   C23  281   2.256   3.959   8.893 -0.4142  0.1614  0.4199
    4CHL1  H23A  282   2.301   3.859   8.876  0.2984  0.5760 -0.1781
    4CHL1  H23B  283   2.145   3.949   8.891 -0.4648  0.7580 -1.4988
    4CHL1   C24  284   2.280   4.039   8.769 -0.0016  0.1805 -0.6779
    4CHL1  H24A  285   2.390   4.052   8.759  0.1508 -1.1328 -0.7811
    4CHL1  H24B  286   2.240   3.970   8.691  3.9371 -3.1370 -0.0922
    4CHL1   C25  287   2.212   4.178   8.755 -0.9432  0.1369  0.0963
    4CHL1   H25  288   2.253   4.240   8.838  0.7607 -2.0231  0.9574
    4CHL1   C26  289   2.258   4.251   8.630 -0.3586 -0.1734  0.9482
    4CHL1  H26A  290   2.262   4.196   8.533  3.0883 -0.1235  0.9560
    4CHL1  H26B  291   2.200   4.343   8.609  1.3407  0.3783 -1.8172
    4CHL1  H26C  292   2.360   4.293   8.643 -0.4827  1.0839 -1.5498
    4CHL1   C27  293   2.063   4.168   8.752  0.1090  0.2797 -0.2580
    4CHL1  H27A  294   2.020   4.112   8.666 -1.4803  0.1396  0.5929
    4CHL1  H27B  295   2.012   4.136   8.846 -1.5980  0.4155 -1.0976
    4CHL1  H27C  296   2.025   4.271   8.737 -2.5530 -0.6824 -0.6853
    5CHL1    C3  297   3.962   1.749   9.807  0.3424 -0.9070 -0.1451
    5CHL1    H3  298   3.969   1.639   9.818  3.6644 -0.6550  1.7996
    5CHL1    O3  299   3.900   1.799   9.925  0.4180  0.3961  0.1769
    5CHL1   H3'  300   3.808   1.772   9.915  0.6644 -1.0448  1.4054
    5CHL1    C4  301   4.109   1.806   9.793 -0.1664  0.1217  0.0270
    5CHL1   H4A  302   4.109   1.917   9.784  1.6227  0.1850  0.3674
    5CHL1   H4B  303   4.173   1.793   9.883 -1.6346  0.1246  1.1236
    5CHL1    C5  304   4.179   1.765   9.663  0.3904  1.3181 -0.1451
    5CHL1    C6  305   4.293   1.689   9.661 -0.1481 -0.3123  0.1494
    5CHL1    H6  306   4.347   1.660   9.753  2.1941  0.1741 -0.9923
    5CHL1    C7  307   4.370   1.644   9.531  0.2986 -0.0178 -0.0444
    5CHL1   H7A  308   4.480   1.654   9.538  0.2734  0.7272 -0.6357
    5CHL1   H7B  309   4.355   1.534   9.531  2.4068 -0.4980  4.1253
    5CHL1    C8  310   4.315   1.728   9.410 -0.3073 -0.1433 -0.8636
    5CHL1    H8  311   4.354   1.832   9.412  0.1099 -0.2050 -3.0147
    5CHL1   C14  312   4.353   1.658   9.282 -0.2471 -0.2341  0.1405
    5CHL1   H14  313   4.308   1.557   9.285 -0.8852  0.0179 -0.5958
    5CHL1   C15  314   4.499   1.620   9.269  0.4095  0.2772  0.4819
    5CHL1  H15A  315   4.551   1.714   9.298  2.4957 -1.3244  2.3024
    5CHL1  H15B  316   4.532   1.539   9.337  1.4435 -0.6000 -0.9956
    5CHL1   C16  317   4.522   1.598   9.116 -0.6712 -0.8125  0.3438
    5CHL1  H16A  318   4.586   1.687   9.098 -1.5154 -0.5066 -1.3707
    5CHL1  H16B  319   4.573   1.504   9.085  0.6071  0.7134 -2.6329
    5CHL1   C17  320   4.380   1.633   9.044 -0.5027 -0.0121 -0.3807
    5CHL1   H17  321   4.323   1.538   9.055 -1.3153  0.5945  0.9559
    5CHL1   C13  322   4.309   1.720   9.150 -0.5558 -0.1726  0.2142
    5CHL1   C18  323   4.363   1.865   9.132 -0.2918 -0.4183 -0.7180
    5CHL1  H18A  324   4.470   1.854   9.106 -0.3399 -0.6809 -0.8090
    5CHL1  H18B  325   4.315   1.919   9.047 -2.1419  0.2102  0.6458
    5CHL1  H18C  326   4.353   1.918   9.229 -0.2753 -1.6118 -0.0528
    5CHL1   C12  327   4.156   1.723   9.150  1.1392 -0.2508 -0.2473
    5CHL1  H12A  328   4.117   1.772   9.058 -1.3048 -2.0030 -0.2560
    5CHL1  H12B  329   4.131   1.616   9.135 -0.0508 -0.4487  2.5414
    5CHL1   C11  330   4.093   1.777   9.275 -0.5712  1.1372  0.6517
    5CHL1  H11A  331   4.087   1.887   9.276 -0.9914  1.1226  0.2625
    5CHL1  H11B  332   3.988   1.739   9.271 -0.1149 -0.1399 -0.0705
    5CHL1    C9  333   4.162   1.728   9.408 -0.5873 -0.3846 -0.1694
    5CHL1    H9  334   4.138   1.620   9.420 -2.3148  0.1365  1.6000
    5CHL1   C10  335   4.100   1.803   9.537 -0.1633  0.6348 -0.2666
    5CHL1   C19  336   4.115   1.956   9.514  0.0191 -0.0164 -0.1167
    5CHL1  H19A  337   4.096   2.022   9.602  0.7490  2.9272 -1.9951
    5CHL1  H19B  338   4.221   1.969   9.480  0.2381 -1.9325 -0.2644
    5CHL1  H19C  339   4.044   1.982   9.433  0.5709 -0.9887 -0.9305
    5CHL1    C1  340   3.951   1.764   9.559 -0.6743  0.4393 -0.1287
    5CHL1   H1A  341   3.887   1.791   9.473 -4.1373 -1.8569  1.5034
    5CHL1   H1B  342   3.947   1.654   9.551  1.0580  0.3263  0.0849
    5CHL1    C2  343   3.883   1.804   9.692  0.1618 -0.2345 -0.5957
    5CHL1   H2A  344   3.785   1.752   9.698 -0.1757  0.4123 -0.5012
    5CHL1   H2B  345   3.869   1.913   9.704  2.2238  0.0827 -0.7527
    5CHL1   C20  346   4.381   1.666   8.899 -0.0866  0.2416  0.2468
    5CHL1   H20  347   4.283   1.708   8.869 -0.5755 -0.6164  0.6176
    5CHL1   C21  348   4.385   1.535   8.817 -0.7542  0.8271 -0.8626
    5CHL1  H21A  349   4.482   1.487   8.845 -1.9992  0.4801  3.5602
    5CHL1  H21B  350   4.368   1.554   8.709 -0.2392 -0.0102 -1.0978
    5CHL1  H21C  351   4.312   1.464   8.861  0.9220  0.0334  0.8220
    5CHL1   C22  352   4.499   1.754   8.848 -0.9565  0.9655 -0.1123
    5CHL1  H22A  353   4.496   1.851   8.903  0.2005  0.8302  0.2107
    5CHL1  H22B  354   4.594   1.701   8.869 -0.9307  0.3683 -1.6612
    5CHL1   C23  355   4.499   1.783   8.692 -0.3180  0.1779  0.4282
    5CHL1  H23A  356   4.518   1.689   8.637 -0.9935  0.7099 -0.7520
    5CHL1  H23B  357   4.397   1.810   8.657 -0.5988 -0.0437  1.0674
    5CHL1   C24  358   4.608   1.885   8.652  0.8753  0.4990  0.3226
    5CHL1  H24A  359   4.590   1.987   8.691  1.1149 -0.2269  2.4807
    5CHL1  H24B  360   4.703   1.851   8.698  1.4394  0.1664 -1.0429
    5CHL1   C25  361   4.636   1.905   8.499 -0.1898  0.9333 -0.8360
    5CHL1   H25  362   4.647   1.808   8.447  0.2508 -0.0159  0.9550
    5CHL1   C26  363   4.500   1.982   8.452 -0.4528 -0.4216 -0.2770
    5CHL1  H26A  364   4.423   1.902   8.455 -0.0194 -0.9796 -2.2208
    5CHL1  H26B  365   4.467   2.063   8.521 -1.7961 -0.7177 -0.5535
    5CHL1  H26C  366   4.512   2.006   8.344 -1.6706 -1.4732 -0.6630
    5CHL1   C27  367   4.742   2.003   8.477 -0.1484  0.0443  0.2025
    5CHL1  H27A  368   4.837   1.966   8.520 -0.2397 -0.6878 -0.2044
    5CHL1  H27B  369   4.771   2.010   8.370  1.9299 -1.0175  0.6445
    5CHL1  H27C  370   4.732   2.103   8.524  2.0943 -0.7579  2.6196
    6CHL1    C3  371   1.451   6.147  10.234  0.7303  0.5161  0.8491
    6CHL1    H3  372   1.537   6.218  10.229  1.8464 -0.8013  0.8619
    6CHL1    O3  373   1.428   6.125  10.372 -0.4520  0.2229  0.5019
    6CHL1   H3'  374   1.383   6.206  10.397 -1.7258 -0.8568  1.8937
    6CHL1    C4  375   1.320   6.207  10.161 -0.8455  0.1955 -0.2054
    6CHL1   H4A  376   1.231   6.142  10.172 -1.0334  0.6351  0.9933
    6CHL1   H4B  377   1.304   6.293  10.229  0.1465 -0.4020  0.8288
    6CHL1    C5  378   1.363   6.225  10.012  1.1905 -0.1764 -0.2057
    6CHL1    C6  379   1.343   6.350   9.971 -0.8733  0.1131 -0.7120
    6CHL1    H6  380   1.295   6.431  10.029 -0.6419 -0.5654  0.4678
    6CHL1    C7  381   1.364   6.389   9.828 -0.0819  0.6346  1.1703
    6CHL1   H7A  382   1.273   6.442   9.793  0.8026  1.5686  0.2097
    6CHL1   H7B  383   1.451   6.453   9.802 -0.5352  0.4028 -1.0589
    6CHL1    C8  384   1.382   6.255   9.732 -0.3576 -0.6520 -0.6316
    6CHL1    H8  385   1.284   6.202   9.729 -1.9770  2.0986 -0.4320
    6CHL1   C14  386   1.425   6.281   9.593  0.5663 -0.3222  0.4161
    6CHL1   H14  387   1.526   6.324   9.606  0.7828 -0.5686 -0.3634
    6CHL1   C15  388   1.346   6.384   9.509 -0.3452  0.5312  0.1152
    6CHL1  H15A  389   1.242   6.353   9.531 -0.4922  0.2512 -0.9308
    6CHL1  H15B  390   1.378   6.488   9.533  0.9402  0.1267  0.2197
    6CHL1   C16  391   1.369   6.345   9.359  0.3458 -0.6581 -0.1499
    6CHL1  H16A  392   1.271   6.315   9.315  0.2775  0.1702 -0.5828
    6CHL1  H16B  393   1.411   6.429   9.299  2.9472 -2.0768 -0.4733
    6CHL1   C17  394   1.466   6.221   9.368 -0.1250 -0.4070 -0.6847
    6CHL1   H17  395   1.564   6.273   9.374 -0.2037 -0.4117  1.4776
    6CHL1   C13  396   1.437   6.155   9.508 -0.0246  0.1657  1.1698
    6CHL1   C18  397   1.299   6.076   9.498 -0.8672  0.3812  0.2256
    6CHL1  H18A  398   1.218   6.140   9.455 -1.4604 -0.1626  0.5121
    6CHL1  H18B  399   1.323   5.988   9.435  1.0630  0.5186  0.7199
    6CHL1  H18C  400   1.268   6.038   9.597  1.2681 -0.5834  0.5720
    6CHL1   C12  401   1.550   6.080   9.570  0.6844 -0.2557 -0.2758
    6CHL1  H12A  402   1.563   5.986   9.512 -0.6141 -1.1274  0.7976
    6CHL1  H12B  403   1.642   6.142   9.577  0.4989 -0.1365  1.3936
    6CHL1   C11  404   1.519   6.038   9.715 -0.3008 -0.1134 -0.6970
    6CHL1  H11A  405   1.438   5.963   9.714  0.2079 -0.6732 -0.4089
    6CHL1  H11B  406   1.611   5.993   9.759 -0.3725  0.9282  0.5710
    6CHL1    C9  407   1.474   6.161   9.799 -0.0186  0.0123 -0.7455
    6CHL1    H9  408   1.566   6.220   9.818  0.1794 -0.4181 -0.3421
    6CHL1   C10  409   1.421   6.108   9.937 -0.5164  0.3107  0.0051
    6CHL1   C19  410   1.316   5.994   9.922  0.0651 -0.0273  0.4310
    6CHL1  H19A  411   1.258   5.982  10.016 -0.0442  1.0370  0.5110
    6CHL1  H19B  412   1.258   6.016   9.830  0.4161  0.4100  0.3134
    6CHL1  H19C  413   1.377   5.902   9.905  1.6854  0.6748  2.0687
    6CHL1    C1  414   1.543   6.058  10.019  0.3625  0.4389 -0.7054
    6CHL1   H1A  415   1.577   5.964   9.969 -0.7256  1.9695 -4.7152
    6CHL1   H1B  416   1.619   6.138  10.017  1.6251 -0.7021 -0.1554
    6CHL1    C2  417   1.512   6.025  10.167  0.1018  0.3596 -0.1066
    6CHL1   H2A  418   1.589   5.969  10.225 -0.9573  1.3699  2.4301
    6CHL1   H2B  419   1.435   5.945  10.169  0.1591  0.3030  1.1505
    6CHL1   C20  420   1.467   6.140   9.237  0.0513  0.4873 -0.2379
    6CHL1   H20  421   1.364   6.099   9.231 -0.4054  1.8122 -2.1840
    6CHL1   C21  422   1.568   6.016   9.232 -0.0942 -0.3446  0.2450
    6CHL1  H21A  423   1.557   5.938   9.310 -1.7684  0.5140  0.9109
    6CHL1  H21B  424   1.670   6.061   9.234 -1.5195  3.1748  0.5823
    6CHL1  H21C  425   1.565   5.959   9.136  3.4437 -1.8853  0.8615
    6CHL1   C22  426   1.489   6.223   9.109  0.4404 -0.8540  0.6230
    6CHL1  H22A  427   1.452   6.152   9.031  0.9150 -0.4979  0.0718
    6CHL1  H22B  428   1.402   6.292   9.114 -0.7533 -2.3494  1.3679
    6CHL1   C23  429   1.632   6.274   9.078  0.2390  0.0945  0.7451
    6CHL1  H23A  430   1.673   6.330   9.165  1.2842 -1.6958  1.4544
    6CHL1  H23B  431   1.699   6.187   9.061 -2.5786 -2.0209 -0.4050
    6CHL1   C24  432   1.617   6.355   8.946  0.3014  0.7095 -0.6228
    6CHL1  H24A  433   1.521   6.410   8.960 -0.8922 -1.1635 -1.1050
    6CHL1  H24B  434   1.691   6.436   8.933 -1.5617  2.1662 -3.1063
    6CHL1   C25  435   1.627   6.264   8.825 -0.2308 -0.5149  0.2921
    6CHL1   H25  436   1.582   6.164   8.840 -0.9525 -0.2238  0.0997
    6CHL1   C26  437   1.547   6.330   8.708  0.0050 -0.3286 -0.7590
    6CHL1  H26A  438   1.450   6.366   8.748  0.1565 -1.0322  0.2790
    6CHL1  H26B  439   1.601   6.423   8.679  2.9025 -1.3403  0.9537
    6CHL1  H26C  440   1.545   6.261   8.621  1.0546 -1.6554  0.2163
    6CHL1   C27  441   1.770   6.231   8.782  0.4657  0.4889  0.5971
    6CHL1  H27A  442   1.757   6.162   8.695 -2.3122  1.1881  0.3526
    6CHL1  H27B  443   1.837   6.313   8.749  1.1352 -1.1174 -2.3649
    6CHL1  H27C  444   1.830   6.180   8.859 -0.0607 -0.6840  0.2570
    7CHL1    C3  445   4.530   4.547   9.999  0.0424  0.2160 -0.5018
    7CHL1    H3  446   4.510   4.656   9.988  0.3519  0.2936 -0.2953
    7CHL1    O3  447   4.546   4.503  10.136  0.2771  0.1795  0.1406
    7CHL1   H3'  448   4.461   4.518  10.177  0.0702  1.6057 -0.7300
    7CHL1    C4  449   4.404   4.479   9.932  0.1243  0.1628 -0.2370
    7CHL1   H4A  450   4.411   4.369   9.946 -2.8082 -0.1246 -0.3662
    7CHL1   H4B  451   4.314   4.500   9.993 -0.9971 -3.4713 -0.3853
    7CHL1    C5  452   4.396   4.514   9.784  0.3088  0.1103 -0.3538
    7CHL1    C6  453   4.287   4.569   9.731 -0.1830 -0.2152  0.6434
    7CHL1    H6  454   4.195   4.585   9.789 -0.8134  1.1522 -0.6589
    7CHL1    C7  455   4.273   4.586   9.582  0.2683 -0.1150  0.1487
    7CHL1   H7A  456   4.173   4.555   9.545  1.1958 -2.0673 -0.8607
    7CHL1   H7B  457   4.282   4.696   9.567  1.2642 -0.0189  1.2550
    7CHL1    C8  458   4.383   4.513   9.493  0.5224  0.2000 -0.1186
    7CHL1    H8  459   4.363   4.404   9.503  1.4212  0.2652  4.8406
    7CHL1   C14  460   4.385   4.580   9.356 -0.5864  0.0866 -0.3420
    7CHL1   H14  461   4.416   4.686   9.366 -0.2904 -0.0009 -0.3259
    7CHL1   C15  462   4.255   4.588   9.282 -0.2734 -0.2812 -0.2742
    7CHL1  H15A  463   4.208   4.489   9.300 -1.1722  0.5280  2.2439
    7CHL1  H15B  464   4.196   4.675   9.320  0.8561  0.5463 -0.3773
    7CHL1   C16  465   4.300   4.609   9.133  0.8303 -0.8165 -0.0121
    7CHL1  H16A  466   4.253   4.529   9.071 -0.0842  1.5594 -2.5656
    7CHL1  H16B  467   4.266   4.707   9.093  0.8636 -0.6065  0.4656
    7CHL1   C17  468   4.460   4.594   9.123  0.0787  0.0460  0.4261
    7CHL1   H17  469   4.498   4.697   9.142 -1.5355  0.4999  1.4291
    7CHL1   C13  470   4.491   4.516   9.259  0.2633  1.0730 -0.3687
    7CHL1   C18  471   4.435   4.370   9.239  0.8593  0.9560  0.3540
    7CHL1  H18A  472   4.411   4.314   9.331  1.2499  0.2741  0.0496
    7CHL1  H18B  473   4.342   4.364   9.178  1.6604 -3.3298 -0.8161
    7CHL1  H18C  474   4.509   4.308   9.185 -1.4387 -0.7631 -1.0224
    7CHL1   C12  475   4.629   4.523   9.325 -0.7047 -0.7200 -0.0959
    7CHL1  H12A  476   4.699   4.455   9.272  0.5129 -1.1355  1.9615
    7CHL1  H12B  477   4.665   4.628   9.316 -0.0207 -0.8724  0.7530
    7CHL1   C11  478   4.630   4.470   9.471  0.5490  0.7101  0.1355
    7CHL1  H11A  479   4.618   4.359   9.472  0.0400  0.7487 -0.4257
    7CHL1  H11B  480   4.730   4.492   9.512 -0.0152  1.9066  0.9008
    7CHL1    C9  481   4.521   4.536   9.561 -0.3153  0.0994  0.2006
    7CHL1    H9  482   4.546   4.644   9.546 -0.0099 -0.0439 -0.3271
    7CHL1   C10  483   4.524   4.493   9.712  0.0295  0.3230  0.3410
    7CHL1   C19  484   4.556   4.345   9.707 -0.3031 -0.6870  0.0071
    7CHL1  H19A  485   4.559   4.309   9.812  0.2445  2.2003  1.0742
    7CHL1  H19B  486   4.490   4.289   9.637 -0.3884  0.4778 -0.8734
    7CHL1  H19C  487   4.661   4.327   9.675  0.2202 -0.3764  1.4687
    7CHL1    C1  488   4.632   4.568   9.787  0.4296 -1.0432  0.0749
    7CHL1   H1A  489   4.725   4.553   9.729  1.5600  1.3825  1.0972
    7CHL1   H1B  490   4.612   4.678   9.780 -1.8593 -1.4793 -1.3595
    7CHL1    C2  491   4.664   4.519   9.928 -0.2596 -0.2109  0.7948
    7CHL1   H2A  492   4.750   4.578   9.965  0.5902  0.4422 -1.9706
    7CHL1   H2B  493   4.690   4.411   9.925 -1.0260 -0.3923 -1.2578
    7CHL1   C20  494   4.514   4.543   8.989 -0.4596  0.7102  0.0206
    7CHL1   H20  495   4.501   4.432   8.989 -1.1003  0.7804  0.8917
    7CHL1   C21  496   4.664   4.581   8.979  0.0548  0.4523  0.0769
    7CHL1  H21A  497   4.719   4.525   9.058 -0.8364  0.4762  0.7322
    7CHL1  H21B  498   4.678   4.691   8.988 -1.6353  0.6160  1.0789
    7CHL1  H21C  499   4.697   4.534   8.884 -0.3079 -0.0900  0.2160
    7CHL1   C22  500   4.444   4.598   8.864  0.5547 -0.0446 -0.0332
    7CHL1  H22A  501   4.336   4.587   8.887  0.6975  2.8766  2.7198
    7CHL1  H22B  502   4.478   4.704   8.861 -2.1255  0.9072  0.7468
    7CHL1   C23  503   4.482   4.544   8.726  0.0975  0.1858 -0.6502
    7CHL1  H23A  504   4.591   4.552   8.703  0.8903  0.3124  2.6291
    7CHL1  H23B  505   4.456   4.436   8.728 -1.8628  0.6071  1.5005
    7CHL1   C24  506   4.403   4.626   8.612  0.8793 -0.3240 -0.5335
    7CHL1  H24A  507   4.297   4.623   8.646  1.5724  0.9376  2.0280
    7CHL1  H24B  508   4.433   4.733   8.608 -0.4584  0.0838 -0.2229
    7CHL1   C25  509   4.409   4.564   8.471 -0.9863 -0.5112  0.5933
    7CHL1   H25  510   4.356   4.467   8.477 -1.0625 -0.6205 -1.3680
    7CHL1   C26  511   4.352   4.657   8.362  0.3340 -0.2761  0.3221
    7CHL1  H26A  512   4.383   4.613   8.265 -1.9680  2.2199 -1.7015
    7CHL1  H26B  513   4.242   4.672   8.358  0.0801 -2.1347 -1.3213
    7CHL1  H26C  514   4.406   4.754   8.368  0.2891 -0.3489  2.9070
    7CHL1   C27  515   4.554   4.526   8.423  0.0168 -0.9075  0.0018
    7CHL1  H27A  516   4.544   4.465   8.331 -1.8566 -0.2083 -0.3124
    7CHL1  H27B  517   4.615   4.614   8.395  0.3157 -1.0744  0.1273
    7CHL1  H27C  518   4.611   4.479   8.506 -2.1048 -2.4730  0.6528
    8CHL1    C3  519   5.695   3.487   9.936 -0.0461 -0.6285 -0.2302
    8CHL1    H3  520   5.758   3.578   9.932 -1.0905  0.1649  0.7311
    8CHL1    O3  521   5.664   3.470  10.073 -0.1868 -0.7696  0.7297
    8CHL1   H3'  522   5.602   3.397  10.076 -1.5466  0.1458 -1.9835
    8CHL1    C4  523   5.567   3.502   9.863  0.4690  0.2635  0.3925
    8CHL1   H4A  524   5.494   3.421   9.886 -0.2217  1.6794  3.9647
    8CHL1   H4B  525   5.518   3.596   9.896 -0.7187  0.5862 -2.0873
    8CHL1    C5  526   5.599   3.511   9.714  0.8164  0.2624  0.1687
    8CHL1    C6  527   5.568   3.619   9.641  0.0900  0.0229 -0.3190
    8CHL1    H6  528   5.502   3.697   9.682 -0.2370 -0.1004 -0.5979
    8CHL1    C7  529   5.598   3.632   9.497 -0.1809 -0.3041  0.1673
    8CHL1   H7A  530   5.522   3.686   9.436  1.3682  2.1880  0.3006
    8CHL1   H7B  531   5.686   3.698   9.478 -1.7355  1.2713 -1.9755
    8CHL1    C8  532   5.635   3.503   9.421 -0.7052 -0.1937  0.3315
    8CHL1    H8  533   5.540   3.450   9.401 -0.2820 -1.1738  0.8219
    8CHL1   C14  534   5.695   3.533   9.282  0.2755  0.5862  0.5766
    8CHL1   H14  535   5.789   3.587   9.305  0.2153  1.4203 -1.0427
    8CHL1   C15  536   5.613   3.629   9.202  0.0715  0.2992 -0.0806
    8CHL1  H15A  537   5.508   3.592   9.198  0.0413  0.3756  0.0154
    8CHL1  H15B  538   5.617   3.738   9.222 -0.9002  0.4153 -0.4587
    8CHL1   C16  539   5.671   3.602   9.060  0.2382  0.5133  0.4059
    8CHL1  H16A  540   5.584   3.568   9.000  0.5471  2.0313 -0.9672
    8CHL1  H16B  541   5.699   3.698   9.013 -2.6173  1.2906  0.1671
    8CHL1   C17  542   5.771   3.483   9.064  0.7784 -0.8645  0.4567
    8CHL1   H17  543   5.868   3.528   9.094 -0.7365  0.3323  4.1298
    8CHL1   C13  544   5.731   3.412   9.197  0.5269 -0.0081 -0.2452
    8CHL1   C18  545   5.599   3.328   9.174  0.0704  0.1791  0.3316
    8CHL1  H18A  546   5.618   3.233   9.120 -2.5714  0.0255 -0.4977
    8CHL1  H18B  547   5.531   3.300   9.258 -1.2407 -0.3096 -0.8457
    8CHL1  H18C  548   5.522   3.378   9.110 -2.0426 -1.2008  1.6504
    8CHL1   C12  549   5.837   3.333   9.280  0.4385 -0.1026 -0.4834
    8CHL1  H12A  550   5.858   3.246   9.214  0.7764  0.3119 -0.9272
    8CHL1  H12B  551   5.934   3.388   9.282 -0.2502  1.1275  0.1627
    8CHL1   C11  552   5.800   3.297   9.434 -0.7556 -0.0184 -0.0336
    8CHL1  H11A  553   5.743   3.202   9.441  1.9117 -1.6007  1.9951
    8CHL1  H11B  554   5.896   3.270   9.482 -0.0077  0.9586 -0.9201
    8CHL1    C9  555   5.728   3.415   9.512 -0.1526  0.6693  0.1019
    8CHL1    H9  556   5.811   3.486   9.533  2.2924 -1.3192 -2.0958
    8CHL1   C10  557   5.677   3.385   9.653  0.5159  0.1197  0.3745
    8CHL1   C19  558   5.593   3.253   9.653  0.4395  0.5150 -1.1682
    8CHL1  H19A  559   5.521   3.249   9.568 -2.4443 -1.0894  1.1905
    8CHL1  H19B  560   5.656   3.162   9.659 -0.5763 -0.0980  0.7406
    8CHL1  H19C  561   5.545   3.248   9.752  0.4485  1.5930 -1.0926
    8CHL1    C1  562   5.799   3.357   9.741 -0.2745  0.2858 -0.5143
    8CHL1   H1A  563   5.843   3.262   9.703  1.4573  0.9729 -0.3386
    8CHL1   H1B  564   5.868   3.444   9.731  0.4703 -0.1346  0.7970
    8CHL1    C2  565   5.763   3.359   9.887  0.9286 -0.0169 -0.2680
    8CHL1   H2A  566   5.849   3.342   9.955  0.1795  0.9617  0.9699
    8CHL1   H2B  567   5.691   3.275   9.901 -0.7916  1.2231 -1.2888
    8CHL1   C20  568   5.771   3.399   8.931 -0.1359  0.5973 -0.3986
    8CHL1   H20  569   5.666   3.362   8.925 -0.4278  1.6379 -3.5176
    8CHL1   C21  570   5.880   3.287   8.947  0.8129  0.0170 -0.1483
    8CHL1  H21A  571   5.859   3.190   8.995  0.1251 -0.2821 -1.0229
    8CHL1  H21B  572   5.972   3.333   8.989  0.1606  0.3633  0.9394
    8CHL1  H21C  573   5.903   3.249   8.845 -0.1376  0.0536 -0.3818
    8CHL1   C22  574   5.794   3.478   8.810  0.1138 -0.0795  0.3949
    8CHL1  H22A  575   5.796   3.410   8.723  0.9107  0.7347 -0.2389
    8CHL1  H22B  576   5.714   3.553   8.792 -0.5095 -0.8230  0.0096
    8CHL1   C23  577   5.928   3.549   8.793 -0.4962 -0.7028  0.1547
    8CHL1  H23A  578   5.938   3.618   8.880  1.6088 -2.1552  1.1580
    8CHL1  H23B  579   6.016   3.481   8.796  0.5909  0.5726 -1.3595
    8CHL1   C24  580   5.937   3.645   8.673  0.5907 -0.0945 -0.1151
    8CHL1  H24A  581   5.924   3.586   8.580 -0.5231  0.3165 -0.2318
    8CHL1  H24B  582   5.850   3.712   8.682  0.4903 -0.3751  1.2110
    8CHL1   C25  583   6.081   3.712   8.670  0.3845 -0.1940  0.5739
    8CHL1   H25  584   6.160   3.637   8.693  0.8467  0.1957  0.2712
    8CHL1   C26  585   6.106   3.772   8.528  0.3895  0.0310  0.5249
    8CHL1  H26A  586   6.093   3.702   8.443 -1.2366 -1.5660  1.9936
    8CHL1  H26B  587   6.044   3.864   8.516  3.0665  1.7407 -1.1449
    8CHL1  H26C  588   6.212   3.803   8.531  1.0943 -2.1745  0.0436
    8CHL1   C27  589   6.092   3.819   8.772  0.2112  0.0636  0.0046
    8CHL1  H27A  590   6.018   3.899   8.753  0.2783  0.0541 -0.3016
    8CHL1  H27B  591   6.088   3.792   8.880 -1.2143 -1.0563 -0.2939
    8CHL1  H27C  592   6.195   3.859   8.760  0.3432 -0.9027 -2.8894
    9CHL1    C3  593   0.376   0.192  10.107  0.7852 -0.2111 -0.4730
    9CHL1    H3  594   0.271   0.185  10.070 -0.2900  0.6012  2.2208
    9CHL1    O3  595   0.351   0.191  10.250 -0.8985  0.5015  0.5591
    9CHL1   H3'  596   0.290   0.117  10.255 -2.0221  1.0412 -2.5340
    9CHL1    C4  597   0.469   0.078  10.077 -0.5866 -0.0273 -0.5431
    9CHL1   H4A  598   0.561   0.095  10.137 -0.9413  2.5557 -0.6233
    9CHL1   H4B  599   0.413  -0.013  10.106 -1.1483  0.7130  0.7922
    9CHL1    C5  600   0.516   0.069   9.932  0.4517  0.2892  0.0871
    9CHL1    C6  601   0.523  -0.048   9.859  0.2932  0.1188 -0.2184
    9CHL1    H6  602   0.480  -0.138   9.904  0.7977 -0.4121 -0.7950
    9CHL1    C7  603   0.589  -0.058   9.724  0.2377 -0.2785  0.0798
    9CHL1   H7A  604   0.676  -0.125   9.737 -1.3202 -2.1027  1.7746
    9CHL1   H7B  605   0.510  -0.114   9.671 -0.2960  0.9360 -0.4432
    9CHL1    C8  606   0.622   0.075   9.648  0.2496  0.8806  0.6708
    9CHL1    H8  607   0.727   0.097   9.675  0.2288 -0.1776  1.6939
    9CHL1   C14  608   0.612   0.066   9.497  0.4168 -0.0672 -0.2975
    9CHL1   H14  609   0.504   0.045   9.478  0.8596 -0.1983 -3.0498
    9CHL1   C15  610   0.690  -0.046   9.428 -0.1152  0.6221  0.3939
    9CHL1  H15A  611   0.796  -0.058   9.457  0.7568  1.6071 -2.1081
    9CHL1  H15B  612   0.635  -0.141   9.447 -1.2181  0.8424 -1.4641
    9CHL1   C16  613   0.691  -0.003   9.280  0.3995 -0.6739  0.9394
    9CHL1  H16A  614   0.794   0.002   9.240  0.1229  0.1137  0.2926
    9CHL1  H16B  615   0.635  -0.065   9.207  0.0710  0.1235  0.5073
    9CHL1   C17  616   0.636   0.145   9.276 -0.1094 -0.3122 -0.6918
    9CHL1   H17  617   0.525   0.138   9.267 -0.1905  0.9979 -0.8043
    9CHL1   C13  618   0.647   0.193   9.424 -0.0704 -0.3297 -0.4807
    9CHL1   C18  619   0.799   0.231   9.445 -0.1696 -0.0730  0.3539
    9CHL1  H18A  620   0.872   0.159   9.403 -0.2753  1.1421 -2.1245
    9CHL1  H18B  621   0.813   0.329   9.395  0.6492 -1.0865 -1.5448
    9CHL1  H18C  622   0.815   0.243   9.554  1.3803 -0.9740  0.2605
    9CHL1   C12  623   0.558   0.311   9.468  0.0929 -0.0541 -0.3744
    9CHL1  H12A  624   0.592   0.407   9.424  0.7546 -0.4369 -0.7339
    9CHL1  H12B  625   0.455   0.297   9.430 -0.8212 -0.3403  2.0215
    9CHL1   C11  626   0.556   0.327   9.617  0.0534  0.7135 -0.2234
    9CHL1  H11A  627   0.653   0.374   9.644  0.6175 -1.1723  1.3264
    9CHL1  H11B  628   0.478   0.399   9.648 -0.0720  1.3126 -1.8584
    9CHL1    C9  629   0.540   0.194   9.700  0.0053  0.2799 -0.8435
    9CHL1    H9  630   0.436   0.169   9.669 -0.3193  1.3966 -0.7044
    9CHL1   C10  631   0.552   0.209   9.858 -0.0667  0.5180  0.3460
    9CHL1   C19  632   0.695   0.270   9.888 -0.2763  0.4891 -0.1076
    9CHL1  H19A  633   0.714   0.365   9.833 -1.8346  1.5814  1.1524
    9CHL1  H19B  634   0.702   0.292   9.996 -0.0906 -1.8510  0.4089
    9CHL1  H19C  635   0.773   0.192   9.872  0.3048  0.4315  2.6672
    9CHL1    C1  636   0.457   0.321   9.909  0.1409  0.4628  0.3341
    9CHL1   H1A  637   0.504   0.415   9.873  2.0387  0.0845  1.6927
    9CHL1   H1B  638   0.363   0.315   9.850  1.1822  1.0933 -1.4677
    9CHL1    C2  639   0.439   0.321  10.059 -0.4533  0.3517 -0.0853
    9CHL1   H2A  640   0.377   0.405  10.096  0.4944  1.3418 -0.6700
    9CHL1   H2B  641   0.535   0.339  10.112 -0.8336  1.8138  0.1293
    9CHL1   C20  642   0.682   0.234   9.162  0.3161 -0.3861  0.2954
    9CHL1   H20  643   0.789   0.263   9.177  0.0343  1.0154 -0.2193
    9CHL1   C21  644   0.601   0.364   9.142 -0.6631  0.8376  0.3347
    9CHL1  H21A  645   0.618   0.433   9.227  1.0448 -0.1029  0.8051
    9CHL1  H21B  646   0.493   0.339   9.133 -0.1318 -1.5978  0.0633
    9CHL1  H21C  647   0.645   0.424   9.059  3.3378  0.7325  2.1410
    9CHL1   C22  648   0.680   0.158   9.032  0.2043  0.1529 -0.0818
    9CHL1  H22A  649   0.720   0.054   9.039  0.7710  0.4604  3.5957
    9CHL1  H22B  650   0.572   0.152   9.009  0.2138  0.9755 -0.3448
    9CHL1   C23  651   0.750   0.224   8.910  0.8591  0.2030 -0.3574
    9CHL1  H23A  652   0.735   0.334   8.917  0.1370  0.0193  2.7715
    9CHL1  H23B  653   0.859   0.203   8.917  0.3331 -2.7542  0.1069
    9CHL1   C24  654   0.694   0.177   8.776 -0.1035  0.3564  0.3796
    9CHL1  H24A  655   0.753   0.233   8.701 -0.4003  1.0126  0.6306
    9CHL1  H24B  656   0.717   0.068   8.768 -0.2987  0.2600  1.0214
    9CHL1   C25  657   0.546   0.208   8.742  0.8644  0.0689  0.5837
    9CHL1   H25  658   0.484   0.151   8.814  0.6890 -1.3729 -0.6617
    9CHL1   C26  659   0.516   0.358   8.751  0.8801  0.4542  0.6110
    9CHL1  H26A  660   0.531   0.398   8.853 -0.6754  4.8381 -0.6108
    9CHL1  H26B  661   0.569   0.430   8.684 -0.4562  0.2196 -0.7718
    9CHL1  H26C  662   0.409   0.365   8.722  0.6605  0.2843  1.3662
    9CHL1   C27  663   0.504   0.154   8.609  0.3229  0.2548  0.7318
    9CHL1  H27A  664   0.507   0.043   8.612  1.4412  0.1769 -1.4305
    9CHL1  H27B  665   0.400   0.186   8.586  0.6274  0.9810  0.3411
    9CHL1  H27C  666   0.568   0.189   8.525  0.0614 -1.9464 -0.4622
   10CHL1    C3  667   6.707   4.815  10.200 -0.3573 -0.0539 -0.3204
   10CHL1    H3  668   6.808   4.858  10.187 -0.5658  0.3789 -0.4988
   10CHL1    O3  669   6.694   4.768  10.338  0.4862  0.5021 -0.4309
   10CHL1   H3'  670   6.608   4.725  10.341 -0.0532  1.5910  0.7391
   10CHL1    C4  671   6.608   4.922  10.155 -0.7484 -0.6641 -0.2196
   10CHL1   H4A  672   6.505   4.885  10.171 -1.5191  1.6560  0.7279
   10CHL1   H4B  673   6.624   5.005  10.228  1.8208  0.3282 -1.7649
   10CHL1    C5  674   6.620   4.967  10.012 -0.0744  0.0087  0.2910
   10CHL1    C6  675   6.646   5.089   9.970 -0.2928 -0.2835 -0.7966
   10CHL1    H6  676   6.641   5.157  10.056  0.2344 -0.4680 -0.6189
   10CHL1    C7  677   6.653   5.135   9.828  0.6892  0.4266 -0.5098
   10CHL1   H7A  678   6.605   5.235   9.818  2.3454  1.0649 -2.9344
   10CHL1   H7B  679   6.760   5.149   9.804  0.2916 -0.1955 -2.8968
   10CHL1    C8  680   6.586   5.037   9.727  0.3831 -0.0878 -0.3349
   10CHL1    H8  681   6.477   5.049   9.745  0.4952 -1.2973  1.3704
   10CHL1   C14  682   6.626   5.068   9.585 -0.3331  0.0532 -0.0903
   10CHL1   H14  683   6.737   5.060   9.590 -0.5005 -2.3336  1.3174
   10CHL1   C15  684   6.599   5.206   9.538 -0.7517 -0.1680  0.2684
   10CHL1  H15A  685   6.510   5.247   9.591 -0.1236 -0.7013  1.7999
   10CHL1  H15B  686   6.680   5.276   9.567 -2.2515  0.8270  2.3874
   10CHL1   C16  687   6.597   5.191   9.382  0.2084 -0.3752 -0.1945
   10CHL1  H16A  688   6.492   5.214   9.356  0.6201  1.4911 -0.3528
   10CHL1  H16B  689   6.666   5.264   9.333  1.1665 -0.6694  0.6933
   10CHL1   C17  690   6.634   5.043   9.350 -0.1412 -0.2308  0.2980
   10CHL1   H17  691   6.745   5.046   9.356 -0.2025  1.7286  1.5182
   10CHL1   C13  692   6.583   4.966   9.474  0.3941  0.3630 -0.3916
   10CHL1   C18  693   6.433   4.950   9.465  0.5492  0.0407 -1.7963
   10CHL1  H18A  694   6.410   4.857   9.410 -3.8142 -0.2593  0.0970
   10CHL1  H18B  695   6.382   4.942   9.563 -2.4347  0.5717 -3.1991
   10CHL1  H18C  696   6.383   5.043   9.428  0.6231  1.1405  0.6227
   10CHL1   C12  697   6.641   4.832   9.501  0.3335 -0.2083 -0.0076
   10CHL1  H12A  698   6.594   4.759   9.431 -0.2531  1.6999 -1.7041
   10CHL1  H12B  699   6.752   4.839   9.500  0.2439  5.1980  0.8304
   10CHL1   C11  700   6.610   4.789   9.646 -0.5364  0.3113  0.4262
   10CHL1  H11A  701   6.504   4.758   9.651 -0.5194 -0.0915 -1.1588
   10CHL1  H11B  702   6.672   4.698   9.662 -0.6356 -0.4471 -2.8573
   10CHL1    C9  703   6.645   4.896   9.756  0.7300  0.9525  0.5407
   10CHL1    H9  704   6.755   4.905   9.744  0.7744 -1.2596 -1.5121
   10CHL1   C10  705   6.606   4.849   9.908 -0.6263 -0.3621  0.2740
   10CHL1   C19  706   6.462   4.801   9.897 -1.0702  0.2545 -0.0018
   10CHL1  H19A  707   6.401   4.872   9.836 -0.5857 -0.1998 -1.0436
   10CHL1  H19B  708   6.460   4.698   9.856  0.9598 -0.4336  1.4816
   10CHL1  H19C  709   6.413   4.783   9.995 -2.4020  0.9539 -0.5195
   10CHL1    C1  710   6.700   4.732   9.944 -0.5630 -0.0274  0.0533
   10CHL1   H1A  711   6.681   4.651   9.871 -0.8297  1.7976 -1.9917
   10CHL1   H1B  712   6.804   4.768   9.926 -0.9639  0.7189 -0.8888
   10CHL1    C2  713   6.696   4.698  10.101  0.2042  0.2502  0.8586
   10CHL1   H2A  714   6.771   4.625  10.139 -0.6324 -1.3777 -0.4700
   10CHL1   H2B  715   6.597   4.649  10.113  1.0287 -2.0373 -0.9506
   10CHL1   C20  716   6.599   5.014   9.205  0.8807  0.0612 -0.1405
   10CHL1   H20  717   6.489   5.025   9.192  0.9111 -1.6434 -2.6091
   10CHL1   C21  718   6.632   4.868   9.171 -0.2501 -0.2443  0.3681
   10CHL1  H21A  719   6.637   4.855   9.061  1.5217  1.5445  0.1778
   10CHL1  H21B  720   6.554   4.799   9.211  0.8347 -1.5507  0.3031
   10CHL1  H21C  721   6.735   4.846   9.206  1.5326  1.3662 -3.4045
   10CHL1   C22  722   6.662   5.121   9.108  0.7811  0.1797  0.1518
   10CHL1  H22A  723   6.626   5.223   9.134 -0.1141  0.3242 -1.5465
   10CHL1  H22B  724   6.772   5.129   9.096  1.0587 -0.2313  2.0712
   10CHL1   C23  725   6.606   5.104   8.957  0.4869  0.4773  0.2982
   10CHL1  H23A  726   6.611   4.996   8.934 -0.7607  0.6133 -0.6863
   10CHL1  H23B  727   6.499   5.133   8.963 -0.4702 -2.7128  0.1998
   10CHL1   C24  728   6.685   5.187   8.856  0.2331  0.2797 -0.2114
   10CHL1  H24A  729   6.674   5.294   8.885 -0.1180  0.8542 -2.3369
   10CHL1  H24B  730   6.791   5.155   8.872  0.2511  0.0646 -0.7656
   10CHL1   C25  731   6.652   5.160   8.710 -0.2079  0.9143 -0.1557
   10CHL1   H25  732   6.551   5.203   8.700 -0.2422  1.1506  1.0535
   10CHL1   C26  733   6.766   5.244   8.639 -0.1017 -0.3545  0.1071
   10CHL1  H26A  734   6.873   5.216   8.655  0.0685 -0.9161 -1.7586
   10CHL1  H26B  735   6.740   5.244   8.531 -1.8978  1.6365  0.4886
   10CHL1  H26C  736   6.755   5.352   8.658  1.2867  0.1071 -1.4452
   10CHL1   C27  737   6.665   5.009   8.668  0.1475 -0.1173  0.1528
   10CHL1  H27A  738   6.589   4.951   8.725 -2.2597  2.4731 -0.1721
   10CHL1  H27B  739   6.646   4.994   8.559  2.7303 -0.6121 -0.2951
   10CHL1  H27C  740   6.770   4.981   8.688 -0.3205 -1.2341  1.1648
   11CHL1    C3  741   3.390   2.292   9.887 -0.1514 -0.1429 -0.2986
   11CHL1    H3  742   3.415   2.400   9.897  0.4283 -0.3745  0.9211
   11CHL1    O3  743   3.319   2.252  10.003 -0.2000  0.2687  0.4459
   11CHL1   H3'  744   3.388   2.234  10.067  0.3223  1.5361  0.2634
   11CHL1    C4  745   3.308   2.270   9.764  0.6878  0.0790 -0.0544
   11CHL1   H4A  746   3.274   2.164   9.767 -1.9569  0.8223 -0.9470
   11CHL1   H4B  747   3.222   2.339   9.771  0.7834  0.2968 -0.9372
   11CHL1    C5  748   3.392   2.291   9.638  0.4387  0.1054 -0.1852
   11CHL1    C6  749   3.357   2.381   9.546  0.1314 -0.0339 -0.4333
   11CHL1    H6  750   3.256   2.422   9.562  0.6545  1.1760 -0.1148
   11CHL1    C7  751   3.427   2.404   9.420  0.3525  0.0017  0.9622
   11CHL1   H7A  752   3.358   2.436   9.339 -0.4229 -2.6729  0.4784
   11CHL1   H7B  753   3.486   2.497   9.435  1.0108  0.0309 -1.3371
   11CHL1    C8  754   3.524   2.290   9.386 -0.6764 -0.5230  0.2969
   11CHL1    H8  755   3.463   2.203   9.355 -1.7645  0.6800 -1.0493
   11CHL1   C14  756   3.621   2.333   9.269  0.9445 -0.9030 -0.3922
   11CHL1   H14  757   3.676   2.422   9.307 -1.3732 -0.7762  3.0944
   11CHL1   C15  758   3.552   2.377   9.138  0.3885  0.1597 -0.3652
   11CHL1  H15A  759   3.465   2.307   9.130  1.8698 -1.9468  0.8235
   11CHL1  H15B  760   3.513   2.481   9.140 -2.9607 -0.9540 -0.2275
   11CHL1   C16  761   3.660   2.357   9.029  0.5596 -0.1632 -0.4133
   11CHL1  H16A  762   3.637   2.287   8.946  1.1450 -1.8988  0.8317
   11CHL1  H16B  763   3.693   2.457   8.995 -1.2696  0.8109  0.5507
   11CHL1   C17  764   3.788   2.306   9.108  0.6614 -0.2108 -0.0507
   11CHL1   H17  765   3.836   2.398   9.148 -2.4415  0.9644  1.2616
   11CHL1   C13  766   3.723   2.239   9.229 -0.4370 -0.2116 -0.2151
   11CHL1   C18  767   3.655   2.104   9.179 -0.3288 -0.1957  0.2055
   11CHL1  H18A  768   3.739   2.035   9.155  0.4343  0.7686  0.0666
   11CHL1  H18B  769   3.580   2.065   9.251 -0.1181 -0.8730  0.0635
   11CHL1  H18C  770   3.608   2.118   9.080 -0.7647 -0.2962  0.3952
   11CHL1   C12  771   3.808   2.212   9.355 -0.5737  0.5293 -0.2544
   11CHL1  H12A  772   3.893   2.147   9.326 -0.4771  0.9703 -1.0046
   11CHL1  H12B  773   3.855   2.301   9.402  0.1723 -0.0594  0.1321
   11CHL1   C11  774   3.722   2.157   9.472  0.2261 -0.4305 -0.1542
   11CHL1  H11A  775   3.685   2.056   9.442 -0.2976 -0.7864  1.5888
   11CHL1  H11B  776   3.783   2.152   9.564  1.1338  1.2760 -0.6337
   11CHL1    C9  777   3.610   2.254   9.512  0.0048  0.3705  0.4318
   11CHL1    H9  778   3.663   2.346   9.543 -0.3188  0.6074  0.2944
   11CHL1   C10  779   3.525   2.208   9.629  0.5581  0.1011 -0.6119
   11CHL1   C19  780   3.486   2.058   9.611 -0.8321  0.1003  0.2334
   11CHL1  H19A  781   3.419   2.024   9.693 -0.7944 -0.8873 -0.1213
   11CHL1  H19B  782   3.429   2.045   9.516  1.3194  2.1778 -1.4689
   11CHL1  H19C  783   3.573   1.990   9.605 -1.0569 -0.2295  0.6820
   11CHL1    C1  784   3.598   2.235   9.765 -0.2437  0.6585 -0.1487
   11CHL1   H1A  785   3.695   2.181   9.764 -1.0884 -0.9565 -1.9154
   11CHL1   H1B  786   3.622   2.343   9.759  1.3123  0.3738  0.4518
   11CHL1    C2  787   3.513   2.205   9.890 -0.4201  0.0623  0.0721
   11CHL1   H2A  788   3.566   2.219   9.986  0.8982 -0.3929 -0.5636
   11CHL1   H2B  789   3.482   2.098   9.897 -0.5576  0.0003 -1.2601
   11CHL1   C20  790   3.880   2.213   9.018  0.0309  0.9052 -0.4507
   11CHL1   H20  791   3.823   2.120   8.995  1.7571  0.3503 -2.9755
   11CHL1   C21  792   4.003   2.171   9.101  0.3459 -0.0796 -0.5561
   11CHL1  H21A  793   3.981   2.084   9.168  2.1382 -1.4181 -1.6109
   11CHL1  H21B  794   4.052   2.254   9.157  1.3255 -0.1726 -1.2497
   11CHL1  H21C  795   4.081   2.145   9.026 -0.9438  1.4374 -2.5031
   11CHL1   C22  796   3.921   2.270   8.886  0.0600  0.4927  0.0544
   11CHL1  H22A  797   3.834   2.310   8.829  0.0084  0.3146  0.0106
   11CHL1  H22B  798   3.992   2.356   8.896 -0.4756  0.7001  2.6164
   11CHL1   C23  799   3.971   2.163   8.788 -0.0209 -0.6564  0.2852
   11CHL1  H23A  800   4.059   2.106   8.825  0.1720 -0.4599  0.1379
   11CHL1  H23B  801   3.885   2.095   8.772  0.0971 -1.2731  2.1098
   11CHL1   C24  802   3.982   2.223   8.647  0.5286  0.0050  0.0807
   11CHL1  H24A  803   3.882   2.270   8.635  0.3239 -0.9177 -2.4306
   11CHL1  H24B  804   4.062   2.300   8.644 -1.2953  1.9653 -1.4790
   11CHL1   C25  805   4.001   2.122   8.536 -0.2084  0.1449  0.1883
   11CHL1   H25  806   4.097   2.071   8.559  0.3849  0.7883 -0.7381
   11CHL1   C26  807   3.898   2.010   8.535  0.0613  0.5894  0.4535
   11CHL1  H26A  808   3.920   1.942   8.620 -0.2241  0.3768  0.3617
   11CHL1  H26B  809   3.791   2.040   8.527 -0.0274 -0.1034 -1.9337
   11CHL1  H26C  810   3.912   1.952   8.441 -0.6928  1.7151 -0.3770
   11CHL1   C27  811   4.009   2.176   8.387  0.2368 -0.6831 -0.2260
   11CHL1  H27A  812   4.060   2.101   8.323  0.7011  0.5416 -1.3244
   11CHL1  H27B  813   3.908   2.190   8.343  0.3987 -0.5583 -0.5573
   11CHL1  H27C  814   4.065   2.272   8.391 -1.9135  0.5947  1.4302
   12CHL1    C3  815   4.832   3.675   9.982 -1.0220 -1.3578 -0.5948
   12CHL1    H3  816   4.851   3.571   9.949 -0.1104 -1.2334 -0.4776
   12CHL1    O3  817   4.850   3.678  10.126 -0.2282 -0.1965 -0.0086
   12CHL1   H3'  818   4.790   3.617  10.170 -0.3245  0.8449  1.3779
   12CHL1    C4  819   4.926   3.785   9.929  0.3132  0.3251 -0.1349
   12CHL1   H4A  820   4.919   3.886   9.976 -3.0986  1.0903 -1.9059
   12CHL1   H4B  821   5.033   3.758   9.942  1.1028  2.9460 -0.5385
   12CHL1    C5  822   4.914   3.789   9.777 -0.9537  0.3449  0.9220
   12CHL1    C6  823   5.022   3.770   9.699 -0.3113  0.0952 -0.4813
   12CHL1    H6  824   5.119   3.746   9.744 -0.9423 -1.5266  0.0753
   12CHL1    C7  825   5.016   3.794   9.552 -0.6152 -0.1094 -0.0243
   12CHL1   H7A  826   5.108   3.845   9.514 -0.4523 -0.0168  0.4897
   12CHL1   H7B  827   5.012   3.702   9.490 -1.2679 -0.8629  1.1004
   12CHL1    C8  828   4.894   3.892   9.515  0.5586  0.6844  0.1127
   12CHL1    H8  829   4.921   3.995   9.547  0.0964  0.8607 -0.0594
   12CHL1   C14  830   4.876   3.890   9.369  0.2083 -0.3433 -0.2973
   12CHL1   H14  831   4.844   3.785   9.350 -0.3677 -0.3557  0.6314
   12CHL1   C15  832   4.993   3.910   9.270 -0.7322  0.6413  0.5339
   12CHL1  H15A  833   5.075   3.974   9.309  0.0133 -0.9959  1.7297
   12CHL1  H15B  834   5.037   3.809   9.254 -0.1202  0.5521  2.5093
   12CHL1   C16  835   4.935   3.960   9.143  0.2052  0.7765 -0.1809
   12CHL1  H16A  836   4.961   4.066   9.125  1.1760  0.8685  1.5218
   12CHL1  H16B  837   4.970   3.907   9.051  1.5568 -0.1291  0.8251
   12CHL1   C17  838   4.779   3.957   9.163 -0.5727 -0.3299  0.5660
   12CHL1   H17  839   4.744   3.856   9.136 -0.6318 -0.5223  1.3267
   12CHL1   C13  840   4.756   3.970   9.313  0.3659  0.0968  0.2976
   12CHL1   C18  841   4.764   4.122   9.356 -0.1027  0.2487  0.2580
   12CHL1  H18A  842   4.738   4.134   9.463  0.9621  1.5914  0.3899
   12CHL1  H18B  843   4.867   4.161   9.351 -0.7183  1.8046 -1.0024
   12CHL1  H18C  844   4.697   4.187   9.296  0.4214  0.5408 -0.0069
   12CHL1   C12  845   4.633   3.900   9.378  0.2174  0.7215  0.0322
   12CHL1  H12A  846   4.542   3.951   9.341  1.4134  0.7022 -3.2187
   12CHL1  H12B  847   4.632   3.797   9.339 -0.7309  0.7965 -0.1491
   12CHL1   C11  848   4.633   3.906   9.532 -0.1663 -0.1767 -0.4691
   12CHL1  H11A  849   4.610   4.010   9.563 -1.0492 -0.9377  1.5658
   12CHL1  H11B  850   4.554   3.835   9.565 -0.0254 -1.6449 -3.0368
   12CHL1    C9  851   4.771   3.848   9.581  0.3163  0.7891  0.0726
   12CHL1    H9  852   4.764   3.740   9.556  2.5785  0.5718  0.2154
   12CHL1   C10  853   4.774   3.837   9.732 -0.2451 -0.2030 -0.7917
   12CHL1   C19  854   4.747   3.983   9.791  0.0962  0.0787 -0.1222
   12CHL1  H19A  855   4.745   3.986   9.902  1.7278 -0.9598 -0.0278
   12CHL1  H19B  856   4.812   4.064   9.752  1.6072 -0.0664  1.9268
   12CHL1  H19C  857   4.643   4.007   9.761  0.2281 -1.1799 -1.7128
   12CHL1    C1  858   4.669   3.727   9.789 -0.3410 -0.5586  0.0046
   12CHL1   H1A  859   4.565   3.765   9.785 -0.2403 -0.1811  0.7353
   12CHL1   H1B  860   4.680   3.627   9.740 -1.4793 -0.8465  0.2980
   12CHL1    C2  861   4.688   3.705   9.945  0.8569 -0.3761  0.2940
   12CHL1   H2A  862   4.609   3.647   9.996 -0.2321  1.1753  0.4434
   12CHL1   H2B  863   4.669   3.805   9.990 -1.0061 -0.8296  0.5723
   12CHL1   C20  864   4.710   4.049   9.056 -0.6192  0.0713 -0.8088
   12CHL1   H20  865   4.749   4.152   9.069  2.1822 -1.1848  1.7853
   12CHL1   C21  866   4.556   4.044   9.080  1.0764  0.7063 -0.1452
   12CHL1  H21A  867   4.540   3.934   9.077  0.8028  0.5425  3.1205
   12CHL1  H21B  868   4.513   4.115   9.007 -1.5659  1.2666  1.8088
   12CHL1  H21C  869   4.518   4.078   9.179 -1.6503  0.1832 -0.9402
   12CHL1   C22  870   4.746   4.011   8.903 -0.9086 -0.0193  1.0108
   12CHL1  H22A  871   4.856   4.021   8.896 -0.7520 -2.0447 -0.1967
   12CHL1  H22B  872   4.717   3.906   8.882  0.1082 -0.1267  0.0476
   12CHL1   C23  873   4.685   4.099   8.793 -0.1347  0.0470 -0.0664
   12CHL1  H23A  874   4.575   4.107   8.806 -0.1796  1.8866 -1.1742
   12CHL1  H23B  875   4.721   4.204   8.806  0.2518 -0.1700  0.6769
   12CHL1   C24  876   4.735   4.063   8.651  0.5740  0.3748 -0.1564
   12CHL1  H24A  877   4.846   4.070   8.646  0.5690 -0.3017 -2.7111
   12CHL1  H24B  878   4.700   3.959   8.636  1.6932 -0.6838  3.6194
   12CHL1   C25  879   4.683   4.156   8.538 -0.0313 -0.2859  0.4091
   12CHL1   H25  880   4.692   4.261   8.572 -1.9350 -0.0993  0.4384
   12CHL1   C26  881   4.768   4.128   8.413 -0.2409  0.0383 -0.1729
   12CHL1  H26A  882   4.741   4.205   8.337 -1.1988  0.5798  0.6924
   12CHL1  H26B  883   4.876   4.127   8.442  0.0883 -0.1418 -1.3585
   12CHL1  H26C  884   4.749   4.027   8.373  0.9250 -0.3189  0.1405
   12CHL1   C27  885   4.532   4.116   8.505 -0.1087 -0.0928  0.1049
   12CHL1  H27A  886   4.462   4.144   8.587 -0.8463 -0.3047 -0.4422
   12CHL1  H27B  887   4.500   4.179   8.420  0.8352 -0.8009 -0.7972
   12CHL1  H27C  888   4.519   4.010   8.474 -2.4540  1.1278 -3.6623
   13CHL1    C3  889   3.344   6.216  10.186 -0.2314  1.0228 -0.3949
   13CHL1    H3  890   3.246   6.266  10.196 -0.2863  1.5364 -2.8846
   13CHL1    O3  891   3.386   6.187  10.319  0.5725  0.3554 -0.5296
   13CHL1   H3'  892   3.314   6.141  10.363  1.2223 -1.0603 -0.8967
   13CHL1    C4  893   3.332   6.090  10.103 -0.1253 -0.1665 -0.5459
   13CHL1   H4A  894   3.430   6.039  10.118  1.1699  2.0036 -1.2900
   13CHL1   H4B  895   3.252   6.027  10.148  1.1059 -2.4056 -1.3492
   13CHL1    C5  896   3.306   6.121   9.957  0.0720  0.1984  0.0936
   13CHL1    C6  897   3.200   6.064   9.900  0.2347 -0.2606 -0.1621
   13CHL1    H6  898   3.143   5.996   9.965  0.3142 -0.3369 -0.1714
   13CHL1    C7  899   3.161   6.076   9.757  0.3075 -0.1378  0.3649
   13CHL1   H7A  900   3.152   5.979   9.706  3.3282  0.6200 -1.9281
   13CHL1   H7B  901   3.068   6.137   9.756  0.1864 -0.3205  0.4416
   13CHL1    C8  902   3.280   6.152   9.683  0.3271  0.3456  0.2221
   13CHL1    H8  903   3.358   6.076   9.661 -2.9795 -2.9865 -1.0341
   13CHL1   C14  904   3.230   6.193   9.540  0.0533  0.5460 -0.9740
   13CHL1   H14  905   3.143   6.255   9.572 -0.2554 -0.4735  0.2241
   13CHL1   C15  906   3.160   6.091   9.441 -0.6822 -0.5019  0.2032
   13CHL1  H15A  907   3.207   5.991   9.439 -0.8601 -0.5754 -0.5312
   13CHL1  H15B  908   3.057   6.076   9.481 -0.2996 -3.3592  0.2598
   13CHL1   C16  909   3.160   6.165   9.305 -0.0512 -0.7549 -0.0606
   13CHL1  H16A  910   3.203   6.098   9.227 -2.0986 -0.2128 -1.7660
   13CHL1  H16B  911   3.060   6.194   9.266 -0.3604 -0.9896  0.5599
   13CHL1   C17  912   3.248   6.290   9.332 -0.0353 -0.6413  0.5958
   13CHL1   H17  913   3.177   6.368   9.367  1.8959  1.1249  0.7729
   13CHL1   C13  914   3.332   6.266   9.457  0.4049  0.4464  0.7678
   13CHL1   C18  915   3.450   6.173   9.421 -0.0804 -0.2184  0.6628
   13CHL1  H18A  916   3.501   6.125   9.508 -1.9614 -1.6193  1.0541
   13CHL1  H18B  917   3.421   6.093   9.350 -0.7135  0.2563  0.3805
   13CHL1  H18C  918   3.533   6.224   9.369 -2.5161  3.3345 -0.0803
   13CHL1   C12  919   3.370   6.389   9.531  0.5717 -0.1634 -0.4496
   13CHL1  H12A  920   3.442   6.454   9.477  1.1369  0.5130  1.0701
   13CHL1  H12B  921   3.275   6.439   9.558 -0.8957 -2.7207 -0.5111
   13CHL1   C11  922   3.436   6.357   9.668  0.6100 -1.2835  0.7816
   13CHL1  H11A  923   3.523   6.292   9.645  0.9245 -0.8613  0.7561
   13CHL1  H11B  924   3.464   6.446   9.728 -1.8073 -0.2088  0.4374
   13CHL1    C9  925   3.341   6.269   9.754  0.2637  0.3017 -0.6207
   13CHL1    H9  926   3.248   6.327   9.774 -1.8562 -2.9942 -0.2388
   13CHL1   C10  927   3.396   6.229   9.890 -0.3067  1.0207  0.1470
   13CHL1   C19  928   3.534   6.161   9.874  0.1538  0.0865 -0.2116
   13CHL1  H19A  929   3.563   6.143   9.979  0.3356  3.3790  0.3893
   13CHL1  H19B  930   3.532   6.067   9.814  0.2251  1.2808 -2.1997
   13CHL1  H19C  931   3.614   6.228   9.836  1.5152 -0.5975  1.3461
   13CHL1    C1  932   3.403   6.358   9.985  0.0897  0.8537 -0.2416
   13CHL1   H1A  933   3.471   6.434   9.941  2.9247 -0.8706  0.8385
   13CHL1   H1B  934   3.305   6.409   9.986 -0.4338 -0.1354 -0.1423
   13CHL1    C2  935   3.431   6.325  10.125  0.0788  0.1402 -0.0617
   13CHL1   H2A  936   3.432   6.409  10.197 -1.3750 -0.1949  0.3734
   13CHL1   H2B  937   3.535   6.287  10.130  0.4404  0.5415 -2.8169
   13CHL1   C20  938   3.310   6.356   9.206  0.0004 -0.0406 -0.4461
   13CHL1   H20  939   3.362   6.448   9.242 -0.7706 -0.2523  1.3249
   13CHL1   C21  940   3.195   6.416   9.123 -0.2721  0.2722 -0.8025
   13CHL1  H21A  941   3.228   6.482   9.040  2.2230  2.1049  1.4799
   13CHL1  H21B  942   3.136   6.482   9.190 -1.2053 -1.0979 -0.2384
   13CHL1  H21C  943   3.133   6.333   9.082  0.4413 -1.1495  0.8730
   13CHL1   C22  944   3.391   6.262   9.117 -0.1473 -0.1515 -0.1758
   13CHL1  H22A  945   3.463   6.202   9.176  1.9099 -1.8001 -3.9976
   13CHL1  H22B  946   3.317   6.186   9.082 -1.9282  1.9514 -1.2491
   13CHL1   C23  947   3.464   6.332   9.002  0.0553  0.0543 -0.8291
   13CHL1  H23A  948   3.406   6.398   8.935  0.6653 -0.0799 -1.5022
   13CHL1  H23B  949   3.547   6.393   9.043  0.2205 -1.0224  0.5350
   13CHL1   C24  950   3.545   6.226   8.923 -0.0818 -0.9677 -0.2206
   13CHL1  H24A  951   3.623   6.169   8.979  1.3705  0.0788 -1.0907
   13CHL1  H24B  952   3.468   6.155   8.887  0.2228 -0.4973 -1.8850
   13CHL1   C25  953   3.629   6.275   8.800 -0.3966  0.2020 -0.2213
   13CHL1   H25  954   3.670   6.185   8.750  1.0497  1.5375 -1.5208
   13CHL1   C26  955   3.540   6.356   8.701 -0.0172 -0.4303  0.6043
   13CHL1  H26A  956   3.606   6.410   8.629 -1.7622  0.8361 -0.1110
   13CHL1  H26B  957   3.465   6.286   8.659 -0.8919 -0.5004  2.1909
   13CHL1  H26C  958   3.485   6.434   8.758 -1.0034 -0.1148 -0.7446
   13CHL1   C27  959   3.747   6.353   8.854 -0.2281 -0.0902 -0.2237
   13CHL1  H27A  960   3.824   6.381   8.779  1.0963  1.3195  1.5655
   13CHL1  H27B  961   3.720   6.445   8.911 -0.9390 -1.8015  2.3595
   13CHL1  H27C  962   3.800   6.288   8.926 -1.8612 -0.2961  0.8426
   14CHL1    C3  963   4.549   2.042   9.962 -0.0792 -0.2800  0.6123
   14CHL1    H3  964   4.652   2.000   9.963  0.6841  1.5160  0.7697
   14CHL1    O3  965   4.483   2.019  10.083  0.3844  0.5811  0.0588
   14CHL1   H3'  966   4.461   1.925  10.078 -1.5444  0.8187  2.1977
   14CHL1    C4  967   4.580   2.189   9.941 -0.0176 -0.6333  0.4429
   14CHL1   H4A  968   4.490   2.241   9.980  0.2302 -1.3727  2.0699
   14CHL1   H4B  969   4.662   2.216  10.010 -0.9539  0.2988  1.2147
   14CHL1    C5  970   4.623   2.225   9.804  0.5099 -0.6547  0.2517
   14CHL1    C6  971   4.739   2.289   9.764  0.5194 -0.5796 -0.9737
   14CHL1    H6  972   4.809   2.317   9.844 -0.9413 -0.3414  0.2780
   14CHL1    C7  973   4.780   2.332   9.621 -0.9972 -0.3985 -0.9677
   14CHL1   H7A  974   4.809   2.439   9.620 -3.9147  0.6027  2.1158
   14CHL1   H7B  975   4.862   2.273   9.576  0.2887  2.6875 -2.9756
   14CHL1    C8  976   4.658   2.316   9.526  0.2041  0.5009 -0.3711
   14CHL1    H8  977   4.582   2.395   9.545  0.7386  1.1891 -1.0451
   14CHL1   C14  978   4.710   2.321   9.377 -0.2971 -0.8023 -1.0075
   14CHL1   H14  979   4.780   2.234   9.379 -0.5174 -1.0420 -2.5246
   14CHL1   C15  980   4.804   2.435   9.331  0.6977  0.0206  0.4265
   14CHL1  H15A  981   4.751   2.531   9.352 -1.1843 -0.3377 -2.1713
   14CHL1  H15B  982   4.903   2.437   9.381  1.5216  1.6709 -1.1301
   14CHL1   C16  983   4.808   2.413   9.178 -0.2793 -0.7907 -0.2871
   14CHL1  H16A  984   4.781   2.513   9.139  0.8020  0.3814  1.7504
   14CHL1  H16B  985   4.904   2.395   9.125 -0.8233 -2.1406 -0.8413
   14CHL1   C17  986   4.692   2.313   9.147  0.4603  0.4024 -0.0738
   14CHL1   H17  987   4.745   2.215   9.147  0.8511  0.5861  1.4306
   14CHL1   C13  988   4.602   2.303   9.271  0.3768  0.4177 -0.5028
   14CHL1   C18  989   4.502   2.418   9.276 -0.2369  0.9435 -0.0252
   14CHL1  H18A  990   4.557   2.506   9.237  3.0378 -1.2116 -0.7198
   14CHL1  H18B  991   4.426   2.394   9.198  1.6579  1.7063 -2.2262
   14CHL1  H18C  992   4.449   2.429   9.373  0.5149 -2.0607  0.8412
   14CHL1   C12  993   4.531   2.165   9.295 -0.0757  0.0820 -0.2467
   14CHL1  H12A  994   4.459   2.161   9.210  1.6488  0.4814 -1.8141
   14CHL1  H12B  995   4.611   2.094   9.264  1.3116  1.8442 -0.9192
   14CHL1   C11  996   4.476   2.151   9.434 -0.1031 -0.4683  0.0392
   14CHL1  H11A  997   4.390   2.221   9.445 -1.4032 -1.9624 -0.1538
   14CHL1  H11B  998   4.432   2.050   9.451  2.0570 -1.2319  1.3643
   14CHL1    C9  999   4.583   2.182   9.548  0.3596  0.1313  0.5599
   14CHL1    H9 1000   4.661   2.103   9.537 -0.2896 -0.1817 -2.9768
   14CHL1   C10 1001   4.523   2.168   9.695 -0.5923 -0.4289  0.1626
   14CHL1   C19 1002   4.394   2.244   9.708  0.3569 -0.0772 -0.2521
   14CHL1  H19A 1003   4.360   2.260   9.813  1.3672  3.1181 -0.2837
   14CHL1  H19B 1004   4.385   2.349   9.673  0.3630 -0.4505 -1.4023
   14CHL1  H19C 1005   4.309   2.191   9.662 -0.4395  0.4552  0.5562
   14CHL1    C1 1006   4.509   2.014   9.714  0.2510  0.0708  0.1480
   14CHL1   H1A 1007   4.429   1.985   9.644 -1.0273  2.0775  0.7108
   14CHL1   H1B 1008   4.605   1.961   9.695 -0.1866 -0.5953 -0.2178
   14CHL1    C2 1009   4.466   1.971   9.852  0.3846  0.0780 -0.5836
   14CHL1   H2A 1010   4.480   1.861   9.861  2.2366  0.0770 -2.5806
   14CHL1   H2B 1011   4.358   1.995   9.853 -0.4150 -3.0519 -0.9927
   14CHL1   C20 1012   4.616   2.328   9.014 -0.0301  0.5587 -0.2743
   14CHL1   H20 1013   4.512   2.299   9.037  0.1551  0.0510 -0.0555
   14CHL1   C21 1014   4.668   2.228   8.903 -0.2332  0.2117 -0.5386
   14CHL1  H21A 1015   4.770   2.251   8.864  1.6886 -4.4811  0.9925
   14CHL1  H21B 1016   4.604   2.237   8.813 -0.1281  3.0709 -0.3949
   14CHL1  H21C 1017   4.676   2.126   8.948  1.5006  0.4297 -0.2806
   14CHL1   C22 1018   4.601   2.468   8.950 -0.3367  0.7369  0.1004
   14CHL1  H22A 1019   4.519   2.457   8.876  0.8121  2.8583 -1.6413
   14CHL1  H22B 1020   4.566   2.538   9.028 -3.1732 -0.6022  0.1245
   14CHL1   C23 1021   4.718   2.512   8.865 -0.2638 -0.4466  0.3445
   14CHL1  H23A 1022   4.809   2.521   8.928  1.8743  0.6466 -2.6632
   14CHL1  H23B 1023   4.732   2.444   8.779 -3.5055 -0.3408 -0.3746
   14CHL1   C24 1024   4.705   2.662   8.817 -0.0451 -0.0713  0.1213
   14CHL1  H24A 1025   4.710   2.728   8.906  0.8501 -1.8159  1.4302
   14CHL1  H24B 1026   4.787   2.684   8.745  0.8000  2.1688  1.6696
   14CHL1   C25 1027   4.579   2.694   8.733  0.0933 -0.9552 -0.7926
   14CHL1   H25 1028   4.498   2.647   8.793  1.2758 -3.2355 -0.8741
   14CHL1   C26 1029   4.565   2.849   8.710 -0.4845 -0.0769 -0.2937
   14CHL1  H26A 1030   4.463   2.883   8.685  0.0436  0.8464 -1.2748
   14CHL1  H26B 1031   4.603   2.900   8.801  1.1696 -1.5721 -0.0955
   14CHL1  H26C 1032   4.638   2.875   8.630 -0.7913  0.5663 -0.3684
   14CHL1   C27 1033   4.581   2.636   8.592  0.0684  0.2881  0.0544
   14CHL1  H27A 1034   4.647   2.695   8.524  1.5784 -0.4387  0.8404
   14CHL1  H27B 1035   4.627   2.535   8.583  1.5705  0.9551 -0.0888
   14CHL1  H27C 1036   4.480   2.623   8.549 -0.7224  3.5034  0.7047
   15CHL1    C3 1037   5.356   5.959  10.080 -0.0552  0.7235  0.0345
   15CHL1    H3 1038   5.466   5.973  10.090 -0.0334  0.3535  0.3217
   15CHL1    O3 1039   5.314   5.925  10.209 -0.2646  0.1401 -0.0456
   15CHL1   H3' 1040   5.249   5.855  10.211  0.3006 -0.4809  3.8249
   15CHL1    C4 1041   5.286   6.082  10.021  0.9257 -0.4909 -0.3072
   15CHL1   H4A 1042   5.175   6.085  10.032  0.9397 -1.8273  0.4434
   15CHL1   H4B 1043   5.329   6.163  10.084  2.9379 -0.7855 -1.2266
   15CHL1    C5 1044   5.324   6.114   9.881 -0.2240 -0.3446  0.1459
   15CHL1    C6 1045   5.358   6.239   9.838  0.0380  0.3510  0.4940
   15CHL1    H6 1046   5.368   6.322   9.909  1.6398  0.7698 -0.1870
   15CHL1    C7 1047   5.406   6.276   9.703 -0.1330 -0.2226 -0.6725
   15CHL1   H7A 1048   5.355   6.371   9.674 -0.9681 -0.3026  0.4707
   15CHL1   H7B 1049   5.515   6.295   9.707 -0.3835  1.5372 -1.2228
   15CHL1    C8 1050   5.381   6.171   9.595  0.6406 -0.7473 -0.0600
   15CHL1    H8 1051   5.275   6.195   9.571  0.6252 -0.5137  0.2392
   15CHL1   C14 1052   5.470   6.204   9.470  0.2645  0.7379 -0.1904
   15CHL1   H14 1053   5.574   6.192   9.508  0.0544  0.4495  0.3084
   15CHL1   C15 1054   5.453   6.342   9.405  0.4182 -0.0674 -0.7856
   15CHL1  H15A 1055   5.348   6.365   9.378  0.1609 -0.8346 -0.4756
   15CHL1  H15B 1056   5.503   6.426   9.457  0.7552 -0.8709  0.2390
   15CHL1   C16 1057   5.527   6.325   9.275 -0.0094 -0.2269 -0.3707
   15CHL1  H16A 1058   5.459   6.365   9.197 -4.0907 -1.7784  2.0545
   15CHL1  H16B 1059   5.627   6.374   9.268  0.0369 -0.4916 -1.7282
   15CHL1   C17 1060   5.556   6.168   9.259 -0.1618  0.0817 -0.0727
   15CHL1   H17 1061   5.663   6.155   9.286 -0.3418 -1.9413 -0.1705
   15CHL1   C13 1062   5.463   6.092   9.361  0.5882 -0.4995  0.0515
   15CHL1   C18 1063   5.317   6.091   9.300 -0.0585 -0.2388 -0.9732
   15CHL1  H18A 1064   5.288   6.191   9.261  0.4786  0.3116 -0.0067
   15CHL1  H18B 1065   5.301   6.015   9.221 -0.2970 -0.9214 -0.2780
   15CHL1  H18C 1066   5.242   6.067   9.378  1.4716  0.5266  0.7971
   15CHL1   C12 1067   5.503   5.961   9.422  0.1483 -0.0474 -0.1855
   15CHL1  H12A 1068   5.517   5.876   9.351  1.0570 -0.9151  0.9883
   15CHL1  H12B 1069   5.612   5.971   9.445 -0.1189  0.7820  0.7772
   15CHL1   C11 1070   5.416   5.920   9.546  0.2523  0.0807  0.3523
   15CHL1  H11A 1071   5.315   5.899   9.504  0.2923  2.6341 -1.2778
   15CHL1  H11B 1072   5.459   5.824   9.579  1.0924 -0.5128 -2.1975
   15CHL1    C9 1073   5.412   6.035   9.645 -0.0324 -0.1201 -0.8350
   15CHL1    H9 1074   5.518   6.047   9.677 -0.8664  1.7274  1.6061
   15CHL1   C10 1075   5.336   5.998   9.778 -0.2670  0.6106 -0.8019
   15CHL1   C19 1076   5.189   5.979   9.740 -0.2824  0.4711 -0.4362
   15CHL1  H19A 1077   5.152   6.072   9.693 -0.4622 -0.1798 -1.6185
   15CHL1  H19B 1078   5.159   5.903   9.664  0.6744 -0.4250  0.0543
   15CHL1  H19C 1079   5.121   5.947   9.821  0.6743 -2.5476 -0.7011
   15CHL1    C1 1080   5.397   5.875   9.846  0.7327 -0.1733  0.4821
   15CHL1   H1A 1081   5.395   5.780   9.787 -1.0220 -0.4474  0.9171
   15CHL1   H1B 1082   5.503   5.898   9.867  0.9633 -2.2456  1.9493
   15CHL1    C2 1083   5.345   5.842   9.982  0.2004  0.5144 -0.5040
   15CHL1   H2A 1084   5.404   5.761  10.031  1.9951  1.9221 -0.2376
   15CHL1   H2B 1085   5.239   5.810   9.974  0.8625 -1.6104 -1.6978
   15CHL1   C20 1086   5.544   6.117   9.116 -0.2779  0.0047  0.6522
   15CHL1   H20 1087   5.442   6.106   9.073 -0.2386 -0.0952  0.5855
   15CHL1   C21 1088   5.598   5.974   9.105 -0.4701 -0.4441  0.1653
   15CHL1  H21A 1089   5.618   5.943   9.000  0.7455 -1.0473  0.5553
   15CHL1  H21B 1090   5.521   5.903   9.142 -2.6723  1.5749 -0.3589
   15CHL1  H21C 1091   5.694   5.965   9.161  0.9512  0.0561 -2.0675
   15CHL1   C22 1092   5.616   6.210   9.013 -0.1777 -0.3946  0.2938
   15CHL1  H22A 1093   5.577   6.314   9.016 -2.3647 -1.1666  0.7914
   15CHL1  H22B 1094   5.724   6.211   9.038  0.2843 -0.2188 -1.5987
   15CHL1   C23 1095   5.612   6.172   8.864 -1.1154 -0.0991 -0.4588
   15CHL1  H23A 1096   5.645   6.067   8.849  2.3940  0.4410  2.1401
   15CHL1  H23B 1097   5.504   6.170   8.839 -1.0266 -0.1047 -0.8431
   15CHL1   C24 1098   5.684   6.270   8.776  0.0245  0.1672  0.4937
   15CHL1  H24A 1099   5.631   6.368   8.779 -0.2347  0.2989 -3.4772
   15CHL1  H24B 1100   5.790   6.285   8.805  0.1092  1.6584 -0.4830
   15CHL1   C25 1101   5.683   6.229   8.630  0.1142  0.5771  0.2644
   15CHL1   H25 1102   5.578   6.235   8.593  0.9233  1.0440 -2.1301
   15CHL1   C26 1103   5.762   6.319   8.541 -0.1301 -0.2231 -0.0912
   15CHL1  H26A 1104   5.765   6.288   8.434 -1.7112 -2.7939  0.5372
   15CHL1  H26B 1105   5.720   6.421   8.554  0.4216 -0.0946  0.6985
   15CHL1  H26C 1106   5.866   6.317   8.580 -0.0571  1.9935 -0.0659
   15CHL1   C27 1107   5.716   6.082   8.599  0.2274  0.2587  0.0940
   15CHL1  H27A 1108   5.641   6.016   8.646 -0.9365  0.4344 -1.4469
   15CHL1  H27B 1109   5.702   6.068   8.489  0.1935  1.6916 -0.1044
   15CHL1  H27C 1110   5.821   6.056   8.624  0.1428 -0.8831 -0.6385
   16CHL1    C3 1111   5.973   2.347   9.890 -0.6728 -0.1649  0.1144
   16CHL1    H3 1112   6.081   2.324   9.901 -0.8486  0.0077  2.9639
   16CHL1    O3 1113   5.912   2.342  10.019  0.0698 -0.0029  0.0481
   16CHL1   H3' 1114   5.819   2.333   9.997  0.1283 -2.5458  0.5843
   16CHL1    C4 1115   5.943   2.483   9.824  0.6561 -0.3454 -0.0042
   16CHL1   H4A 1116   5.834   2.499   9.816  0.4865 -0.8785  0.9807
   16CHL1   H4B 1117   5.982   2.564   9.890 -0.3576  0.7737 -0.7552
   16CHL1    C5 1118   6.004   2.489   9.686  0.3786  0.5226  0.7772
   16CHL1    C6 1119   6.090   2.584   9.655 -1.1702 -0.1496  0.0215
   16CHL1    H6 1120   6.108   2.658   9.735  1.7045 -0.6353 -0.0582
   16CHL1    C7 1121   6.138   2.604   9.515  0.2128  0.6700  0.1553
   16CHL1   H7A 1122   6.128   2.708   9.476 -0.3554  0.5068 -0.1355
   16CHL1   H7B 1123   6.248   2.588   9.518  0.3723  0.9493 -2.1010
   16CHL1    C8 1124   6.075   2.515   9.407 -0.2726  0.5525 -0.0804
   16CHL1    H8 1125   5.976   2.555   9.378 -0.9682 -0.0204  1.4059
   16CHL1   C14 1126   6.161   2.490   9.285 -0.9206  0.8686  0.7501
   16CHL1   H14 1127   6.246   2.421   9.306 -2.0370 -1.5868 -2.1360
   16CHL1   C15 1128   6.219   2.619   9.224 -0.0177  0.5517  0.5015
   16CHL1  H15A 1129   6.127   2.680   9.207 -0.5644 -1.0647 -3.7547
   16CHL1  H15B 1130   6.299   2.658   9.291  1.3442 -0.4771 -0.4757
   16CHL1   C16 1131   6.260   2.572   9.083  0.3677  0.4539  0.3544
   16CHL1  H16A 1132   6.227   2.646   9.006 -0.7773 -1.4184 -1.0557
   16CHL1  H16B 1133   6.369   2.555   9.080  0.7722  2.2378  2.3132
   16CHL1   C17 1134   6.201   2.431   9.059 -0.7130 -0.1540 -1.0338
   16CHL1   H17 1135   6.279   2.355   9.082 -2.0657 -0.8906  1.5249
   16CHL1   C13 1136   6.099   2.415   9.165  0.1007 -0.0403 -0.9621
   16CHL1   C18 1137   5.962   2.467   9.119  0.1709  0.0496  0.3254
   16CHL1  H18A 1138   5.976   2.570   9.080 -1.9910  1.2836  2.4954
   16CHL1  H18B 1139   5.915   2.407   9.039  0.6865  0.3963 -0.2496
   16CHL1  H18C 1140   5.887   2.479   9.200  0.1361  0.8493  0.1861
   16CHL1   C12 1141   6.082   2.274   9.228  0.0753 -0.2259 -0.5036
   16CHL1  H12A 1142   6.033   2.214   9.149 -0.9848 -0.1011  0.0490
   16CHL1  H12B 1143   6.179   2.228   9.259  0.0950  0.0437 -0.1559
   16CHL1   C11 1144   6.002   2.278   9.355 -0.2817 -0.6854 -0.2764
   16CHL1  H11A 1145   5.901   2.313   9.324  0.4184  1.3475 -0.4617
   16CHL1  H11B 1146   6.007   2.173   9.391  1.4613 -0.4460  0.2858
   16CHL1    C9 1147   6.051   2.378   9.464 -0.4049  0.4376 -0.1790
   16CHL1    H9 1148   6.153   2.355   9.500 -0.2199  0.5719 -0.6149
   16CHL1   C10 1149   5.954   2.380   9.585  0.4574 -0.5575  0.5615
   16CHL1   C19 1150   5.810   2.415   9.540  0.5482  0.1014 -0.2262
   16CHL1  H19A 1151   5.740   2.465   9.610 -0.2856 -0.8838 -0.3300
   16CHL1  H19B 1152   5.818   2.478   9.449  2.1217  2.2048  1.2706
   16CHL1  H19C 1153   5.752   2.324   9.514  0.9611 -1.1076  2.7184
   16CHL1    C1 1154   5.948   2.245   9.656 -0.0066  1.0603 -0.2969
   16CHL1   H1A 1155   5.868   2.188   9.604 -0.7297  1.7467  0.0352
   16CHL1   H1B 1156   6.052   2.207   9.656 -0.2834  0.1659  1.5544
   16CHL1    C2 1157   5.905   2.239   9.801  0.1549  0.0329  0.0329
   16CHL1   H2A 1158   5.927   2.145   9.856  0.5823  0.1323  0.0349
   16CHL1   H2B 1159   5.795   2.255   9.804 -0.1476 -1.8924  0.1684
   16CHL1   C20 1160   6.165   2.409   8.911 -0.7109 -0.1127  0.4071
   16CHL1   H20 1161   6.076   2.465   8.874 -1.0017 -1.4148 -0.9533
   16CHL1   C21 1162   6.137   2.259   8.896  0.6421 -0.6404  1.1138
   16CHL1  H21A 1163   6.045   2.225   8.948 -0.2829  1.2143  0.7744
   16CHL1  H21B 1164   6.221   2.190   8.920  0.9302 -1.3367 -1.5678
   16CHL1  H21C 1165   6.124   2.243   8.787  0.2954 -2.8433  1.4259
   16CHL1   C22 1166   6.272   2.465   8.813 -1.0912 -0.0536 -0.2826
   16CHL1  H22A 1167   6.273   2.576   8.827  1.1712  0.0805 -1.1996
   16CHL1  H22B 1168   6.369   2.413   8.829 -0.4787  0.8309 -1.0092
   16CHL1   C23 1169   6.234   2.445   8.664 -0.2222 -0.0638 -0.1885
   16CHL1  H23A 1170   6.218   2.339   8.635  1.6375 -0.5532  0.3684
   16CHL1  H23B 1171   6.134   2.490   8.646  0.5814  0.3039 -5.0437
   16CHL1   C24 1172   6.329   2.502   8.560 -0.7819  0.0257  0.5037
   16CHL1  H24A 1173   6.339   2.611   8.581 -2.1927  0.5683 -1.3960
   16CHL1  H24B 1174   6.426   2.452   8.579  0.1439  1.7431  0.4180
   16CHL1   C25 1175   6.291   2.468   8.416 -0.3110  0.6650 -0.0179
   16CHL1   H25 1176   6.313   2.360   8.402  1.7574  1.1427 -0.7003
   16CHL1   C26 1177   6.148   2.502   8.383  0.3575  0.9384  0.4461
   16CHL1  H26A 1178   6.076   2.442   8.442  0.7736  0.4640  0.4814
   16CHL1  H26B 1179   6.124   2.609   8.401  1.3422  1.1923  0.3336
   16CHL1  H26C 1180   6.125   2.470   8.279  1.7221  2.8621 -0.5213
   16CHL1   C27 1181   6.382   2.535   8.317 -0.7044  0.7839  0.3044
   16CHL1  H27A 1182   6.489   2.514   8.341 -1.1855 -1.9444  0.3983
   16CHL1  H27B 1183   6.359   2.514   8.211  0.6834 -0.4654  0.2083
   16CHL1  H27C 1184   6.371   2.644   8.337  1.9774  1.0900  0.5186
   17CHL1    C3 1185   1.097   5.055  10.250 -0.0231  0.2881 -0.0480
   17CHL1    H3 1186   0.999   5.018  10.213  0.5098 -0.5501 -0.6600
   17CHL1    O3 1187   1.115   5.030  10.391  0.5190 -0.5457  0.4766
   17CHL1   H3' 1188   1.207   5.045  10.416  0.5188 -2.1792  1.5989
   17CHL1    C4 1189   1.202   4.978  10.166 -0.0942 -0.5272 -0.3304
   17CHL1   H4A 1190   1.308   5.001  10.193  0.4684  0.5658 -3.0976
   17CHL1   H4B 1191   1.189   4.869  10.180 -1.0366 -0.5046 -0.9789
   17CHL1    C5 1192   1.195   5.006  10.017  0.4339  0.5656  0.5119
   17CHL1    C6 1193   1.163   4.912   9.923 -1.0164  0.2145 -0.2527
   17CHL1    H6 1194   1.153   4.805   9.944 -1.6966  0.2456 -0.4055
   17CHL1    C7 1195   1.162   4.934   9.775  0.2305 -0.2012  0.0165
   17CHL1   H7A 1196   1.231   4.864   9.723  0.6151 -1.3349  1.9477
   17CHL1   H7B 1197   1.069   4.903   9.723  0.6488 -1.0260 -0.2609
   17CHL1    C8 1198   1.197   5.079   9.730 -0.1137 -0.1887 -0.5060
   17CHL1    H8 1199   1.308   5.075   9.736 -0.0304  1.4421  4.9689
   17CHL1   C14 1200   1.147   5.111   9.592 -0.4052  0.0294 -0.2208
   17CHL1   H14 1201   1.039   5.128   9.607 -0.4873 -0.3729 -0.3549
   17CHL1   C15 1202   1.162   5.001   9.489 -0.1296 -0.3445  0.3243
   17CHL1  H15A 1203   1.260   4.950   9.501 -0.0842 -0.2107  0.5264
   17CHL1  H15B 1204   1.090   4.919   9.511 -0.9099  0.0475 -0.6706
   17CHL1   C16 1205   1.145   5.069   9.353 -0.1721  0.2861 -0.0418
   17CHL1  H16A 1206   1.234   5.037   9.295 -1.8982  0.4964 -3.0299
   17CHL1  H16B 1207   1.050   5.042   9.303  0.4290 -1.1184 -0.4724
   17CHL1   C17 1208   1.149   5.223   9.385 -0.3816  0.4748 -0.2811
   17CHL1   H17 1209   1.041   5.244   9.399 -0.7871 -1.6437 -0.0221
   17CHL1   C13 1210   1.215   5.237   9.531 -0.0952  0.0684 -0.1507
   17CHL1   C18 1211   1.373   5.230   9.529  0.1798  0.1987 -0.5486
   17CHL1  H18A 1212   1.397   5.143   9.465  1.1817 -0.2850  0.4696
   17CHL1  H18B 1213   1.426   5.322   9.495  0.4741 -0.8682 -3.2053
   17CHL1  H18C 1214   1.418   5.208   9.628 -3.9849 -2.7484  0.9972
   17CHL1   C12 1215   1.161   5.350   9.625  0.1535  0.8804 -0.1468
   17CHL1  H12A 1216   1.188   5.455   9.600 -1.1847  0.8622 -1.8603
   17CHL1  H12B 1217   1.050   5.347   9.615  0.1168 -1.8440  0.5028
   17CHL1   C11 1218   1.202   5.323   9.768 -0.5251 -0.0746 -0.4986
   17CHL1  H11A 1219   1.311   5.345   9.769 -0.7040  0.9957 -1.6700
   17CHL1  H11B 1220   1.148   5.396   9.831 -0.4833  1.3702 -2.0470
   17CHL1    C9 1221   1.156   5.183   9.827  0.0204 -0.0750 -0.2888
   17CHL1    H9 1222   1.045   5.174   9.822  0.1394 -1.0228 -2.0364
   17CHL1   C10 1223   1.202   5.153   9.978 -0.2860 -0.1848  0.4285
   17CHL1   C19 1224   1.346   5.209   9.990 -0.3227  0.6434 -1.2310
   17CHL1  H19A 1225   1.403   5.141   9.923  1.3659  0.4507  0.3227
   17CHL1  H19B 1226   1.355   5.314   9.953  1.3394  0.5520 -1.1861
   17CHL1  H19C 1227   1.387   5.197  10.092 -0.9160 -0.2509 -1.0941
   17CHL1    C1 1228   1.100   5.235  10.076 -0.1438 -0.1456  0.4878
   17CHL1   H1A 1229   1.101   5.345  10.062 -1.3119 -0.1735  0.0620
   17CHL1   H1B 1230   0.997   5.200  10.053 -0.1191 -0.5215  0.9341
   17CHL1    C2 1231   1.117   5.205  10.224 -0.0750 -0.1402  0.6019
   17CHL1   H2A 1232   1.045   5.267  10.281 -1.4690  0.7334 -1.9707
   17CHL1   H2B 1233   1.217   5.234  10.264  0.5369 -0.0601 -0.9280
   17CHL1   C20 1234   1.216   5.295   9.267  0.3237  0.7642 -0.0057
   17CHL1   H20 1235   1.323   5.275   9.286  0.0223 -0.5346  0.4691
   17CHL1   C21 1236   1.176   5.445   9.288  0.1819  0.2842  0.0421
   17CHL1  H21A 1237   1.068   5.465   9.304 -0.0228 -0.6180 -0.1285
   17CHL1  H21B 1238   1.207   5.500   9.196  0.8379  1.0497  0.7085
   17CHL1  H21C 1239   1.227   5.488   9.377  0.5248  0.6898 -0.3473
   17CHL1   C22 1240   1.170   5.239   9.132 -0.0877 -0.2374  0.0059
   17CHL1  H22A 1241   1.192   5.130   9.120 -0.7404 -0.5524  1.4145
   17CHL1  H22B 1242   1.060   5.249   9.122 -0.0851  0.5244  0.6242
   17CHL1   C23 1243   1.231   5.300   9.014 -0.1033 -0.7727 -0.0237
   17CHL1  H23A 1244   1.240   5.410   9.031  3.1859 -0.5358 -2.2366
   17CHL1  H23B 1245   1.337   5.268   9.004 -0.1802 -0.8531 -0.6184
   17CHL1   C24 1246   1.157   5.282   8.882 -0.4842  0.3688  0.7846
   17CHL1  H24A 1247   1.163   5.172   8.874 -2.7984  0.1772  1.0113
   17CHL1  H24B 1248   1.048   5.307   8.879 -0.8399 -0.8703  2.1037
   17CHL1   C25 1249   1.217   5.350   8.757  0.6345 -0.3163 -0.1770
   17CHL1   H25 1250   1.197   5.457   8.779 -1.1045 -0.1546 -2.2565
   17CHL1   C26 1251   1.366   5.319   8.726  0.3404  0.3459 -0.1699
   17CHL1  H26A 1252   1.436   5.336   8.811 -0.6514 -2.1923  1.2858
   17CHL1  H26B 1253   1.379   5.212   8.700  0.1113  0.0908  0.7178
   17CHL1  H26C 1254   1.402   5.369   8.634  1.8333 -1.1859 -0.4849
   17CHL1   C27 1255   1.127   5.309   8.639 -0.3512  0.1114  0.1092
   17CHL1  H27A 1256   1.136   5.198   8.632 -1.5041 -0.0606  1.0188
   17CHL1  H27B 1257   1.018   5.329   8.643 -0.3322  0.2407 -0.0163
   17CHL1  H27C 1258   1.171   5.358   8.549 -0.8035  1.4189  0.5804
   18CHL1    C3 1259   0.967   2.423   9.873 -0.0028 -0.1571  0.4229
   18CHL1    H3 1260   1.036   2.510   9.865 -2.8821  2.1226 -2.0518
   18CHL1    O3 1261   0.916   2.420  10.006 -0.0872  0.2424 -0.5731
   18CHL1   H3' 1262   0.853   2.348  10.006 -0.0447  0.2047 -0.6602
   18CHL1    C4 1263   0.851   2.456   9.782  0.3179 -0.5482 -0.5707
   18CHL1   H4A 1264   0.776   2.375   9.797 -1.3871  1.0711 -0.0181
   18CHL1   H4B 1265   0.797   2.549   9.806  1.0197 -0.6240  1.5252
   18CHL1    C5 1266   0.898   2.461   9.638 -0.0105  1.0202 -0.0579
   18CHL1    C6 1267   0.890   2.575   9.567  0.4232  0.5195  0.0027
   18CHL1    H6 1268   0.863   2.668   9.620  1.1916 -0.6213  2.5329
   18CHL1    C7 1269   0.921   2.583   9.415  0.7663  0.5397 -0.2444
   18CHL1   H7A 1270   0.831   2.626   9.366  0.1516 -1.3038 -0.8322
   18CHL1   H7B 1271   0.998   2.656   9.381  0.2594  0.1518 -2.3598
   18CHL1    C8 1272   0.950   2.442   9.347 -0.2621 -0.0005  0.2927
   18CHL1    H8 1273   0.846   2.407   9.331 -0.2908 -1.4574  2.9521
   18CHL1   C14 1274   1.029   2.460   9.221 -0.4012 -0.8896 -0.4667
   18CHL1   H14 1275   1.126   2.492   9.264 -0.9216 -0.6469  0.5679
   18CHL1   C15 1276   0.982   2.563   9.121 -0.1682 -0.3574  0.2397
   18CHL1  H15A 1277   0.873   2.550   9.104 -0.0182  0.2334 -1.2897
   18CHL1  H15B 1278   1.007   2.670   9.138 -0.1474 -0.7520  3.2010
   18CHL1   C16 1279   1.061   2.519   8.995  0.4975 -0.3993 -0.2036
   18CHL1  H16A 1280   0.988   2.513   8.912 -3.3089  2.6135  2.5561
   18CHL1  H16B 1281   1.138   2.592   8.959 -0.1550 -0.1306 -1.0962
   18CHL1   C17 1282   1.122   2.376   9.020  0.2670  0.2675 -0.1757
   18CHL1   H17 1283   1.227   2.399   9.048  0.3121  0.7144 -0.7115
   18CHL1   C13 1284   1.051   2.323   9.150 -0.1803  0.1910 -0.0411
   18CHL1   C18 1285   0.912   2.256   9.105 -0.2049  0.2028  0.2817
   18CHL1  H18A 1286   0.826   2.258   9.175  0.9874 -0.1234  1.8112
   18CHL1  H18B 1287   0.884   2.296   9.005  1.4068 -0.7459 -0.6025
   18CHL1  H18C 1288   0.936   2.149   9.084  0.1231  0.3414 -0.0528
   18CHL1   C12 1289   1.134   2.226   9.240 -0.2341  0.0890 -0.6039
   18CHL1  H12A 1290   1.138   2.125   9.194  0.8078 -0.8165  1.3713
   18CHL1  H12B 1291   1.232   2.274   9.260 -0.1879  0.7627 -2.2311
   18CHL1   C11 1292   1.054   2.214   9.370  0.0237  0.2400  0.3324
   18CHL1  H11A 1293   0.960   2.158   9.351 -0.1894 -0.2712  2.5996
   18CHL1  H11B 1294   1.110   2.149   9.440 -1.8969  0.0427  1.7796
   18CHL1    C9 1295   1.030   2.350   9.445  1.2259 -0.0137  0.4919
   18CHL1    H9 1296   1.132   2.393   9.457  1.7967 -1.2412  0.2036
   18CHL1   C10 1297   0.962   2.333   9.582  0.3346  0.4842 -0.1076
   18CHL1   C19 1298   0.840   2.228   9.580 -0.4242  0.1372 -0.0738
   18CHL1  H19A 1299   0.755   2.264   9.518  0.3042 -1.8726 -2.4225
   18CHL1  H19B 1300   0.866   2.131   9.532 -2.5645 -0.0125 -1.0594
   18CHL1  H19C 1301   0.809   2.207   9.684 -1.1729 -0.2847 -0.3772
   18CHL1    C1 1302   1.069   2.273   9.685 -0.0880 -0.5315  0.6036
   18CHL1   H1A 1303   1.079   2.166   9.659  0.8160 -0.9817  2.6177
   18CHL1   H1B 1304   1.164   2.325   9.661  0.5356 -1.6891  0.5262
   18CHL1    C2 1305   1.024   2.288   9.834 -0.1518 -0.2290 -0.6742
   18CHL1   H2A 1306   1.118   2.270   9.891  0.3465  2.7158 -0.4209
   18CHL1   H2B 1307   0.949   2.208   9.855  3.5248 -3.1634  3.0107
   18CHL1   C20 1308   1.129   2.289   8.897 -0.4214 -0.1530  0.0468
   18CHL1   H20 1309   1.028   2.248   8.876 -0.9296  0.4757  1.1720
   18CHL1   C21 1310   1.215   2.169   8.928 -0.6676  0.5502  0.7587
   18CHL1  H21A 1311   1.221   2.108   8.835  0.3397  2.0242 -0.2034
   18CHL1  H21B 1312   1.182   2.102   9.010  2.5675 -1.7239  0.4083
   18CHL1  H21C 1313   1.317   2.210   8.947  0.0595  0.0442 -1.6622
   18CHL1   C22 1314   1.174   2.364   8.770  0.3362  0.5693  1.1484
   18CHL1  H22A 1315   1.187   2.286   8.693 -0.8794 -0.1698  1.6613
   18CHL1  H22B 1316   1.091   2.430   8.735 -0.9697 -0.8493  1.4911
   18CHL1   C23 1317   1.307   2.446   8.771  0.0210  0.3395  0.1346
   18CHL1  H23A 1318   1.307   2.538   8.833  1.3219  0.8198 -0.5465
   18CHL1  H23B 1319   1.381   2.374   8.813 -0.7224 -0.0349  0.8363
   18CHL1   C24 1320   1.349   2.492   8.626  0.4643 -0.0665  0.4074
   18CHL1  H24A 1321   1.345   2.395   8.573  1.1589 -0.6199  1.3263
   18CHL1  H24B 1322   1.273   2.564   8.587  0.9296 -0.0384 -0.4739
   18CHL1   C25 1323   1.494   2.547   8.613 -0.2134 -0.5567  0.5771
   18CHL1   H25 1324   1.557   2.484   8.679 -1.8774 -1.9871  0.8824
   18CHL1   C26 1325   1.551   2.526   8.471  0.4220 -0.1156 -0.4630
   18CHL1  H26A 1326   1.493   2.584   8.396  0.0216  1.4006  0.9660
   18CHL1  H26B 1327   1.654   2.557   8.446  0.1813 -1.1218 -3.0102
   18CHL1  H26C 1328   1.535   2.418   8.449 -4.4437 -0.3919  2.8296
   18CHL1   C27 1329   1.517   2.694   8.656  0.3086  0.0859  0.7988
   18CHL1  H27A 1330   1.491   2.696   8.764  0.1918 -1.3887  0.8080
   18CHL1  H27B 1331   1.622   2.727   8.641 -0.4220  2.3654  0.2273
   18CHL1  H27C 1332   1.460   2.762   8.589  1.3202 -0.4165 -0.6148
   19CHL1    C3 1333   3.992   0.233  10.462 -0.7270 -0.0623  0.1249
   19CHL1    H3 1334   4.076   0.161  10.470  0.1343  0.7809 -1.0425
   19CHL1    O3 1335   3.941   0.239  10.594 -0.3453  0.4244 -0.0936
   19CHL1   H3' 1336   3.853   0.273  10.579 -0.9422 -1.6938 -1.9539
   19CHL1    C4 1337   4.045   0.370  10.420 -0.5977  0.2086 -0.3371
   19CHL1   H4A 1338   3.978   0.455  10.445  0.7381  0.5271  2.4720
   19CHL1   H4B 1339   4.132   0.394  10.484  0.6049 -1.6675 -1.1695
   19CHL1    C5 1340   4.084   0.377  10.272 -0.1868 -0.3140 -0.7837
   19CHL1    C6 1341   4.213   0.409  10.243 -0.2224  0.9276  1.0427
   19CHL1    H6 1342   4.286   0.437  10.321  0.5762  0.0131  0.6460
   19CHL1    C7 1343   4.272   0.408  10.102  0.5538 -0.4093 -0.1166
   19CHL1   H7A 1344   4.327   0.504  10.090 -2.2370  1.3814  0.4039
   19CHL1   H7B 1345   4.335   0.317  10.101 -1.2474 -1.7089 -1.0337
   19CHL1    C8 1346   4.166   0.396   9.994  0.3213 -0.0011  0.0299
   19CHL1    H8 1347   4.107   0.490   9.984  0.5287  0.3707  1.9164
   19CHL1   C14 1348   4.237   0.351   9.865  0.3914  0.1074  0.0653
   19CHL1   H14 1349   4.275   0.250   9.889 -2.8886 -1.2989 -0.1177
   19CHL1   C15 1350   4.351   0.443   9.806 -0.1259  0.5258  0.2287
   19CHL1  H15A 1351   4.316   0.548   9.812 -1.2319  0.1282  1.1600
   19CHL1  H15B 1352   4.439   0.425   9.872 -0.3685  0.9712  0.6798
   19CHL1   C16 1353   4.364   0.390   9.664  0.0680 -0.1175 -0.2936
   19CHL1  H16A 1354   4.355   0.469   9.588 -2.4343 -0.2511 -0.2425
   19CHL1  H16B 1355   4.464   0.344   9.656  0.3050  0.1437  0.9306
   19CHL1   C17 1356   4.243   0.286   9.639 -0.8126 -0.0081 -0.6288
   19CHL1   H17 1357   4.288   0.185   9.651 -1.1268 -0.0787 -0.0235
   19CHL1   C13 1358   4.139   0.321   9.749  0.3336 -0.4678 -0.2458
   19CHL1   C18 1359   4.067   0.449   9.692  0.0004  0.8065 -0.3484
   19CHL1  H18A 1360   4.009   0.431   9.599  0.1259  1.9484 -0.6607
   19CHL1  H18B 1361   4.002   0.508   9.760 -0.3588  1.9435 -1.6398
   19CHL1  H18C 1362   4.142   0.526   9.666  0.2494  0.1422 -1.6789
   19CHL1   C12 1363   4.039   0.214   9.787 -0.1202  0.2949 -0.1684
   19CHL1  H12A 1364   3.958   0.224   9.712  2.4997  2.0725 -2.9852
   19CHL1  H12B 1365   4.092   0.117   9.797 -2.4262 -1.1637 -1.3406
   19CHL1   C11 1366   3.972   0.252   9.924 -0.7357  0.0528  0.2171
   19CHL1  H11A 1367   3.900   0.335   9.908  1.6323  2.0944 -0.3235
   19CHL1  H11B 1368   3.908   0.167   9.958  1.1183 -2.1459 -1.4386
   19CHL1    C9 1369   4.065   0.292  10.040  0.4340  0.5909  0.0860
   19CHL1    H9 1370   4.127   0.201  10.054  0.4530  0.1897 -2.1036
   19CHL1   C10 1371   3.988   0.324  10.168 -0.4209 -0.5585  0.2397
   19CHL1   C19 1372   3.872   0.428  10.140 -0.4500  0.0242 -0.5981
   19CHL1  H19A 1373   3.825   0.485  10.223  0.1194 -1.7486  1.0151
   19CHL1  H19B 1374   3.916   0.510  10.080 -1.8023  0.9670 -0.3308
   19CHL1  H19C 1375   3.793   0.387  10.073 -0.8005  1.9324 -1.4167
   19CHL1    C1 1376   3.923   0.198  10.214 -0.1714  0.4341 -1.1010
   19CHL1   H1A 1377   3.831   0.180  10.155 -0.7720 -2.1703  0.4789
   19CHL1   H1B 1378   3.993   0.113  10.196  0.6600  0.6447  0.8515
   19CHL1    C2 1379   3.880   0.188  10.367 -0.4465 -0.3781  0.0224
   19CHL1   H2A 1380   3.856   0.084  10.398 -0.9011 -0.2174  0.2116
   19CHL1   H2B 1381   3.799   0.263  10.377  0.0258  0.0687  0.5704
   19CHL1   C20 1382   4.204   0.278   9.490 -0.5709  0.5259  0.4693
   19CHL1   H20 1383   4.152   0.375   9.472 -1.9413 -0.3293 -0.4040
   19CHL1   C21 1384   4.112   0.163   9.452  0.2505 -0.1219 -0.6645
   19CHL1  H21A 1385   4.006   0.175   9.485  0.8832  0.8113  1.1546
   19CHL1  H21B 1386   4.145   0.068   9.498  0.4290 -0.0439 -0.6312
   19CHL1  H21C 1387   4.108   0.153   9.341  0.6218 -1.7752 -0.5511
   19CHL1   C22 1388   4.329   0.272   9.391 -0.0823 -0.5817  0.0780
   19CHL1  H22A 1389   4.401   0.355   9.411 -1.3189  1.2367 -2.3991
   19CHL1  H22B 1390   4.388   0.178   9.385  0.3854 -0.2172 -1.9439
   19CHL1   C23 1391   4.300   0.313   9.241 -0.0042 -0.6821  0.2485
   19CHL1  H23A 1392   4.398   0.323   9.189 -1.2906 -1.4022 -2.4824
   19CHL1  H23B 1393   4.246   0.236   9.184 -1.1000 -0.0157  0.3627
   19CHL1   C24 1394   4.236   0.455   9.231 -0.1850  1.0534 -0.5994
   19CHL1  H24A 1395   4.140   0.454   9.288  1.6860  0.6117  2.8553
   19CHL1  H24B 1396   4.316   0.504   9.290  1.5189 -1.1495 -0.9517
   19CHL1   C25 1397   4.232   0.520   9.090 -0.0322  0.4591  0.7750
   19CHL1   H25 1398   4.149   0.463   9.043 -1.2433 -0.1666  3.4681
   19CHL1   C26 1399   4.189   0.664   9.109 -0.7287  0.3043  0.3137
   19CHL1  H26A 1400   4.102   0.682   9.176  0.0608 -1.8664  2.0475
   19CHL1  H26B 1401   4.275   0.719   9.152 -1.6824 -1.2858  4.8168
   19CHL1  H26C 1402   4.162   0.710   9.012 -0.8310  1.7288  0.9864
   19CHL1   C27 1403   4.362   0.514   9.020 -0.3963  0.9208  0.2401
   19CHL1  H27A 1404   4.396   0.408   9.018  0.2965  1.1457 -0.4111
   19CHL1  H27B 1405   4.353   0.550   8.915  0.5939 -0.6427 -0.4109
   19CHL1  H27C 1406   4.439   0.577   9.070  1.7112 -1.3904  0.0682
   20CHL1    C3 1407   5.861   6.076  10.086 -0.4133  0.1399  0.1269
   20CHL1    H3 1408   5.910   5.977  10.094 -0.3281  0.3253  2.7058
   20CHL1    O3 1409   5.799   6.103  10.212 -0.2591  0.5919 -0.3074
   20CHL1   H3' 1410   5.877   6.137  10.256  0.2631  0.9504 -1.4632
   20CHL1    C4 1411   5.963   6.190  10.060  0.0129  0.4895 -0.1961
   20CHL1   H4A 1412   5.914   6.290  10.059 -0.8218  0.1445  1.4837
   20CHL1   H4B 1413   6.045   6.186  10.135  1.1109 -0.1593 -1.4105
   20CHL1    C5 1414   6.023   6.176   9.918  0.0291 -0.0972 -0.9979
   20CHL1    C6 1415   6.157   6.166   9.898  0.1022  0.4854  0.5770
   20CHL1    H6 1416   6.223   6.174   9.986  0.5599 -3.4080  0.7831
   20CHL1    C7 1417   6.222   6.160   9.760  0.3126 -0.0024 -0.1164
   20CHL1   H7A 1418   6.309   6.228   9.755 -1.2042  2.1165  0.8009
   20CHL1   H7B 1419   6.268   6.061   9.738 -0.4324 -0.6710  1.1775
   20CHL1    C8 1420   6.124   6.200   9.646  0.8437  0.0270 -0.0171
   20CHL1    H8 1421   6.099   6.309   9.646  1.3035  0.1375  0.4693
   20CHL1   C14 1422   6.173   6.158   9.508 -1.4778  0.6860  0.8653
   20CHL1   H14 1423   6.175   6.047   9.518  3.2462  0.2514 -1.9380
   20CHL1   C15 1424   6.324   6.196   9.467  0.8709  0.5237  0.3162
   20CHL1  H15A 1425   6.355   6.297   9.502  0.9235  0.2966  0.9224
   20CHL1  H15B 1426   6.390   6.114   9.502 -0.1723 -0.4411  0.1006
   20CHL1   C16 1427   6.314   6.177   9.314  0.3858  0.5228  0.0020
   20CHL1  H16A 1428   6.322   6.279   9.269  0.5264  0.2139 -0.6852
   20CHL1  H16B 1429   6.391   6.109   9.272  0.9751  0.3403  1.3264
   20CHL1   C17 1430   6.174   6.124   9.270 -0.2867 -0.2635  0.8677
   20CHL1   H17 1431   6.191   6.015   9.283 -1.4831 -0.4752  0.7285
   20CHL1   C13 1432   6.076   6.165   9.386 -0.1920  0.1161  0.2951
   20CHL1   C18 1433   6.039   6.311   9.370  0.8915  0.3106  0.0873
   20CHL1  H18A 1434   5.955   6.331   9.300  0.8084 -0.5451 -0.0684
   20CHL1  H18B 1435   6.011   6.351   9.469  0.8029 -0.4412  0.3652
   20CHL1  H18C 1436   6.118   6.380   9.333  0.5398 -0.1214 -1.5781
   20CHL1   C12 1437   5.953   6.082   9.410 -0.6922 -0.1217 -0.7097
   20CHL1  H12A 1438   5.874   6.108   9.336  0.3303  1.4356 -1.3194
   20CHL1  H12B 1439   5.975   5.974   9.404 -0.9799 -0.2086 -0.1960
   20CHL1   C11 1440   5.902   6.117   9.551  0.4906  0.3462 -0.4154
   20CHL1  H11A 1441   5.857   6.218   9.537 -0.2293 -0.2343 -2.6762
   20CHL1  H11B 1442   5.814   6.051   9.568  0.6288 -0.2955 -2.0639
   20CHL1    C9 1443   5.997   6.122   9.672 -0.1009  0.3761  0.3870
   20CHL1    H9 1444   6.023   6.015   9.687 -0.8800 -0.4463 -3.1235
   20CHL1   C10 1445   5.921   6.163   9.808 -1.0158 -0.0345  0.5100
   20CHL1   C19 1446   5.864   6.299   9.781 -0.0455 -0.0178  0.0455
   20CHL1  H19A 1447   5.841   6.349   9.877 -2.8878 -1.0492 -0.0015
   20CHL1  H19B 1448   5.930   6.357   9.714 -0.7263 -2.2661 -2.7925
   20CHL1  H19C 1449   5.764   6.302   9.733 -0.3005  3.0141  0.6206
   20CHL1    C1 1450   5.826   6.055   9.843  0.7766  0.7083 -0.1526
   20CHL1   H1A 1451   5.748   6.035   9.767  1.9845 -1.1844 -0.9656
   20CHL1   H1B 1452   5.885   5.961   9.832 -1.0290 -0.1651 -4.0275
   20CHL1    C2 1453   5.753   6.072   9.972  0.0392 -0.0251 -0.4824
   20CHL1   H2A 1454   5.694   5.987  10.011  0.9671 -0.5536 -0.2063
   20CHL1   H2B 1455   5.700   6.170   9.975  2.2590  1.2245  0.1969
   20CHL1   C20 1456   6.140   6.166   9.125 -0.3022 -0.4768 -0.1868
   20CHL1   H20 1457   6.138   6.277   9.123  2.3130 -0.3560 -0.1425
   20CHL1   C21 1458   6.008   6.108   9.078 -0.6901 -0.1155  0.0153
   20CHL1  H21A 1459   6.022   5.999   9.063 -1.1175 -0.2837  0.7802
   20CHL1  H21B 1460   5.974   6.143   8.978 -2.1527 -0.7788  0.2587
   20CHL1  H21C 1461   5.921   6.134   9.141 -1.4107  2.1724 -1.7877
   20CHL1   C22 1462   6.252   6.129   9.018  0.1158  0.4679  0.3073
   20CHL1  H22A 1463   6.352   6.127   9.066 -0.0103 -0.9319  0.5434
   20CHL1  H22B 1464   6.246   6.021   8.993  0.0750  0.7410 -0.9323
   20CHL1   C23 1465   6.255   6.222   8.895  0.0304  0.4380 -0.2184
   20CHL1  H23A 1466   6.150   6.225   8.860 -0.1038  2.3983  0.2264
   20CHL1  H23B 1467   6.291   6.323   8.926  0.3752  0.0032  0.8860
   20CHL1   C24 1468   6.337   6.174   8.766  0.3859 -0.7494 -1.0313
   20CHL1  H24A 1469   6.440   6.161   8.805  0.0180  2.3031  1.2671
   20CHL1  H24B 1470   6.311   6.069   8.739 -0.8811 -0.5344 -0.7364
   20CHL1   C25 1471   6.325   6.275   8.641  0.3423  0.3291 -0.1642
   20CHL1   H25 1472   6.402   6.240   8.570  0.8713  1.1079  0.0197
   20CHL1   C26 1473   6.190   6.270   8.568  0.1005 -0.8236 -0.4380
   20CHL1  H26A 1474   6.201   6.318   8.468  3.6425  0.3431  0.3847
   20CHL1  H26B 1475   6.157   6.165   8.556 -0.6885 -0.7200  0.6193
   20CHL1  H26C 1476   6.113   6.318   8.633  1.0827  0.2691 -0.0314
   20CHL1   C27 1477   6.365   6.423   8.672 -0.4823  0.0154 -0.6219
   20CHL1  H27A 1478   6.465   6.428   8.721 -1.5715 -2.5339  2.1947
   20CHL1  H27B 1479   6.355   6.480   8.577 -1.6124  1.4910  0.3512
   20CHL1  H27C 1480   6.294   6.479   8.736 -1.5211  1.2075 -2.7152
   21CHL1    C3 1481   6.729   3.379  10.232 -0.1836  0.4963 -0.2051
   21CHL1    H3 1482   6.806   3.298  10.231 -1.1042 -0.4325  1.0291
   21CHL1    O3 1483   6.710   3.401  10.368  0.6890  0.0400 -0.4292
   21CHL1   H3' 1484   6.792   3.377  10.412  0.5110  1.6921  0.8962
   21CHL1    C4 1485   6.784   3.501  10.162 -0.2618 -0.7626  0.4575
   21CHL1   H4A 1486   6.714   3.587  10.173  1.4761  1.0222 -1.5440
   21CHL1   H4B 1487   6.879   3.533  10.209  1.3248 -2.5862 -1.3691
   21CHL1    C5 1488   6.802   3.478  10.012  0.0975 -0.3111 -0.0373
   21CHL1    C6 1489   6.917   3.514   9.949 -0.3734  0.0128  0.3046
   21CHL1    H6 1490   6.998   3.566  10.003  1.5203 -1.1745 -1.2333
   21CHL1    C7 1491   6.945   3.506   9.802  0.1659 -0.1748 -0.3484
   21CHL1   H7A 1492   6.997   3.599   9.770  0.1963  1.0474  2.9187
   21CHL1   H7B 1493   7.012   3.419   9.784  2.6653  1.8150 -1.2771
   21CHL1    C8 1494   6.809   3.492   9.727  0.2174  0.3832  0.0535
   21CHL1    H8 1495   6.763   3.593   9.723 -1.2487 -0.2516  0.6071
   21CHL1   C14 1496   6.833   3.454   9.583  0.1079 -0.1351 -0.5715
   21CHL1   H14 1497   6.882   3.355   9.592  1.7369  0.7192  0.3663
   21CHL1   C15 1498   6.930   3.549   9.510 -0.4570  0.1592  0.1153
   21CHL1  H15A 1499   6.891   3.653   9.515  0.8898  0.6692  0.6766
   21CHL1  H15B 1500   7.035   3.563   9.546 -0.0409  1.3758 -1.4235
   21CHL1   C16 1501   6.918   3.500   9.361  0.3386 -0.4276  0.1556
   21CHL1  H16A 1502   6.915   3.584   9.288 -0.4350 -0.5341  0.0486
   21CHL1  H16B 1503   7.013   3.444   9.358  2.0355  2.2579  0.6532
   21CHL1   C17 1504   6.793   3.409   9.358  0.0162 -0.2128  0.0125
   21CHL1   H17 1505   6.821   3.302   9.368 -0.5288 -0.4166 -0.6138
   21CHL1   C13 1506   6.711   3.439   9.485 -0.1291 -0.0427 -0.7107
   21CHL1   C18 1507   6.618   3.565   9.477  0.8972  0.0973 -0.6280
   21CHL1  H18A 1508   6.678   3.645   9.429  1.1198 -0.0984 -0.6793
   21CHL1  H18B 1509   6.533   3.536   9.412 -0.0199 -1.3633  1.1200
   21CHL1  H18C 1510   6.580   3.596   9.577  1.0996  1.8928 -1.0864
   21CHL1   C12 1511   6.638   3.319   9.548 -0.3168  0.2965 -0.7252
   21CHL1  H12A 1512   6.546   3.298   9.489  0.3169  2.3574 -2.5579
   21CHL1  H12B 1513   6.701   3.227   9.550 -2.4217 -1.2131  0.9497
   21CHL1   C11 1514   6.602   3.344   9.700 -0.2985  0.2183  0.1980
   21CHL1  H11A 1515   6.525   3.423   9.688  0.6120  0.8314 -2.5268
   21CHL1  H11B 1516   6.554   3.255   9.745  0.2004  0.0388  0.3844
   21CHL1    C9 1517   6.716   3.390   9.795  0.5703  0.7633 -0.1117
   21CHL1    H9 1518   6.781   3.301   9.803 -0.2642 -0.2169 -2.9579
   21CHL1   C10 1519   6.678   3.429   9.936 -0.1837 -0.7539 -0.3460
   21CHL1   C19 1520   6.578   3.545   9.918  0.0317 -0.3566 -0.3172
   21CHL1  H19A 1521   6.564   3.594  10.017 -0.4054 -1.1104  0.0103
   21CHL1  H19B 1522   6.609   3.627   9.851 -0.8625  1.4021  1.3333
   21CHL1  H19C 1523   6.480   3.511   9.880 -0.0272  0.9329 -1.3739
   21CHL1    C1 1524   6.614   3.310  10.012 -0.6022 -0.3253 -0.6965
   21CHL1   H1A 1525   6.515   3.287   9.966  0.2896  0.2605 -3.0515
   21CHL1   H1B 1526   6.684   3.226   9.992 -1.2758 -0.5035 -2.5365
   21CHL1    C2 1527   6.601   3.325  10.165  0.1847 -1.1003 -0.2475
   21CHL1   H2A 1528   6.570   3.236  10.223 -1.7121  0.0408  0.5928
   21CHL1   H2B 1529   6.516   3.395  10.182 -2.7874 -3.9210 -2.1770
   21CHL1   C20 1530   6.714   3.431   9.226  0.6587  0.0568  0.0500
   21CHL1   H20 1531   6.678   3.537   9.224 -0.4946 -0.3228 -0.3092
   21CHL1   C21 1532   6.597   3.327   9.223 -0.6495 -0.3766 -0.5672
   21CHL1  H21A 1533   6.515   3.363   9.289 -1.5607 -1.3097 -1.1525
   21CHL1  H21B 1534   6.635   3.231   9.262  0.0324  0.2760  0.4185
   21CHL1  H21C 1535   6.552   3.314   9.122 -0.0733 -1.3544 -0.7045
   21CHL1   C22 1536   6.798   3.420   9.099  0.7980 -0.3280  0.3982
   21CHL1  H22A 1537   6.901   3.460   9.110  0.7791 -0.3845  0.7808
   21CHL1  H22B 1538   6.815   3.311   9.083  0.7817 -0.4606  1.2726
   21CHL1   C23 1539   6.737   3.492   8.978  0.5215  0.1292  0.2026
   21CHL1  H23A 1540   6.631   3.475   8.949  0.7490  0.4071 -0.7974
   21CHL1  H23B 1541   6.738   3.599   9.010 -0.0015  0.3537 -0.5200
   21CHL1   C24 1542   6.819   3.498   8.853 -0.5476  0.5353 -0.2733
   21CHL1  H24A 1543   6.774   3.574   8.785 -2.4350  0.6622  1.0436
   21CHL1  H24B 1544   6.915   3.546   8.882 -0.7330 -0.1236  1.5706
   21CHL1   C25 1545   6.846   3.366   8.779  1.1228  0.1811 -0.4435
   21CHL1   H25 1546   6.879   3.288   8.851 -0.9869 -1.9294 -1.6203
   21CHL1   C26 1547   6.712   3.323   8.710 -0.2453 -0.4142 -0.6916
   21CHL1  H26A 1548   6.726   3.224   8.662 -0.3882 -0.5364 -0.4842
   21CHL1  H26B 1549   6.630   3.327   8.785  0.4078  1.0763 -0.0264
   21CHL1  H26C 1550   6.689   3.389   8.624  1.9470  2.0211  0.4730
   21CHL1   C27 1551   6.953   3.386   8.665  0.1946  0.0181 -0.4234
   21CHL1  H27A 1552   6.972   3.291   8.609 -0.4402  0.8131 -2.0736
   21CHL1  H27B 1553   6.909   3.454   8.588 -0.1476 -0.6295 -0.8086
   21CHL1  H27C 1554   7.050   3.424   8.704  0.3282 -1.6961  1.0228
   22CHL1    C3 1555   6.224   5.684  10.285  0.0497 -0.1945 -0.5696
   22CHL1    H3 1556   6.179   5.583  10.292  1.6842 -0.9944 -1.0865
   22CHL1    O3 1557   6.239   5.735  10.414  0.1760  0.0815  0.4047
   22CHL1   H3' 1558   6.154   5.724  10.456 -1.2598  3.1462 -1.3653
   22CHL1    C4 1559   6.370   5.670  10.228  0.1609  0.0822 -0.0362
   22CHL1   H4A 1560   6.424   5.766  10.245 -0.1151 -0.2430  3.5314
   22CHL1   H4B 1561   6.436   5.599  10.283  2.9162  1.1957 -1.6949
   22CHL1    C5 1562   6.372   5.638  10.079 -0.7495 -0.9211 -0.0351
   22CHL1    C6 1563   6.444   5.533  10.034 -0.4031 -0.0749 -0.4948
   22CHL1    H6 1564   6.514   5.469  10.089  0.3748 -0.3733 -1.8044
   22CHL1    C7 1565   6.453   5.507   9.888 -0.2798  0.0534  0.2658
   22CHL1   H7A 1566   6.560   5.486   9.869 -0.7689 -1.3909 -1.1363
   22CHL1   H7B 1567   6.402   5.415   9.854 -1.0832 -0.1355  1.8638
   22CHL1    C8 1568   6.409   5.627   9.800 -0.6180 -0.5107 -0.0280
   22CHL1    H8 1569   6.485   5.705   9.820 -0.9211 -0.1676 -0.2045
   22CHL1   C14 1570   6.421   5.585   9.650  0.4100 -0.3873 -0.9727
   22CHL1   H14 1571   6.362   5.492   9.647  0.2044 -0.3472  0.6568
   22CHL1   C15 1572   6.564   5.557   9.597 -0.0600 -0.3215 -0.4901
   22CHL1  H15A 1573   6.636   5.631   9.637  0.4502 -1.3378  0.5019
   22CHL1  H15B 1574   6.598   5.453   9.610  0.0517 -0.3115 -0.6870
   22CHL1   C16 1575   6.544   5.578   9.446  0.9599 -0.1432 -0.3718
   22CHL1  H16A 1576   6.615   5.656   9.411 -0.4879  1.4086 -0.0016
   22CHL1  H16B 1577   6.559   5.480   9.396 -2.3656 -0.4800 -0.9579
   22CHL1   C17 1578   6.399   5.629   9.429 -0.7580  0.0423  0.8699
   22CHL1   H17 1579   6.339   5.536   9.418 -1.0229  0.1625  1.2960
   22CHL1   C13 1580   6.365   5.685   9.562  0.0765 -0.2014  0.5117
   22CHL1   C18 1581   6.439   5.818   9.582 -0.1427 -0.1055  0.3320
   22CHL1  H18A 1582   6.406   5.894   9.508 -1.2458  1.2074  2.1114
   22CHL1  H18B 1583   6.413   5.866   9.679  0.7085 -2.1716  1.6462
   22CHL1  H18C 1584   6.549   5.800   9.579 -0.4841 -2.4828 -1.9136
   22CHL1   C12 1585   6.210   5.698   9.601 -0.0196  0.5008 -0.2629
   22CHL1  H12A 1586   6.151   5.757   9.528  0.8327  2.2556  0.4004
   22CHL1  H12B 1587   6.177   5.592   9.594 -0.0690  0.5341 -0.5260
   22CHL1   C11 1588   6.190   5.755   9.740 -0.2053  0.0042 -0.6913
   22CHL1  H11A 1589   6.218   5.863   9.738 -3.7787  1.1570  1.3931
   22CHL1  H11B 1590   6.082   5.756   9.766  0.0635 -0.9678  0.5531
   22CHL1    C9 1591   6.270   5.666   9.843  0.1733 -0.1049  1.0757
   22CHL1    H9 1592   6.203   5.577   9.849 -0.9956  0.8135  2.0430
   22CHL1   C10 1593   6.280   5.722   9.986 -0.1684 -0.2893  0.0462
   22CHL1   C19 1594   6.345   5.861   9.981 -0.3017  0.0618  0.1186
   22CHL1  H19A 1595   6.446   5.862   9.934 -0.0245  1.3523  0.6971
   22CHL1  H19B 1596   6.278   5.934   9.931 -0.2654 -0.8933 -1.3935
   22CHL1  H19C 1597   6.363   5.901  10.083  3.7476 -2.8142  0.7842
   22CHL1    C1 1598   6.140   5.732  10.051  0.0514 -0.0019  0.4494
   22CHL1   H1A 1599   6.082   5.820  10.016  1.4921  0.6442 -0.4210
   22CHL1   H1B 1600   6.071   5.647  10.033 -2.0185  1.2352  2.1454
   22CHL1    C2 1601   6.143   5.779  10.205  0.1216  0.0073  0.1974
   22CHL1   H2A 1602   6.038   5.779  10.243  0.5675 -0.9321  1.4958
   22CHL1   H2B 1603   6.178   5.884  10.208  1.8792 -0.5690  2.2758
   22CHL1   C20 1604   6.390   5.714   9.302  0.1501  0.7289  0.2984
   22CHL1   H20 1605   6.436   5.814   9.318 -0.9511  1.0759  1.3780
   22CHL1   C21 1606   6.241   5.739   9.269 -0.1331  0.2683  0.0264
   22CHL1  H21A 1607   6.185   5.644   9.276  3.5439 -2.0245  0.5138
   22CHL1  H21B 1608   6.214   5.800   9.180  0.4919 -1.0760 -1.1225
   22CHL1  H21C 1609   6.206   5.816   9.342  2.2848  1.0079  0.5040
   22CHL1   C22 1610   6.461   5.646   9.183 -0.1775  0.0352  0.3926
   22CHL1  H22A 1611   6.566   5.615   9.198  0.0026  0.1972 -0.4487
   22CHL1  H22B 1612   6.397   5.557   9.165  0.6491 -0.8675  1.7614
   22CHL1   C23 1613   6.470   5.729   9.058  0.2975  0.2625  0.1727
   22CHL1  H23A 1614   6.386   5.801   9.048  0.3404  0.4664  1.1957
   22CHL1  H23B 1615   6.556   5.800   9.064  0.4487  0.0419  0.6643
   22CHL1   C24 1616   6.470   5.636   8.932  0.0761 -0.7224 -1.1942
   22CHL1  H24A 1617   6.555   5.565   8.945  0.7991 -0.5669 -4.2339
   22CHL1  H24B 1618   6.375   5.580   8.918 -0.5472 -0.4074  1.3733
   22CHL1   C25 1619   6.491   5.712   8.802  0.0318  0.2844  0.8453
   22CHL1   H25 1620   6.400   5.771   8.777  0.7901  1.1117 -0.0654
   22CHL1   C26 1621   6.616   5.798   8.797  0.7773 -0.6994  0.1641
   22CHL1  H26A 1622   6.704   5.737   8.825 -0.3386 -1.4627  2.2684
   22CHL1  H26B 1623   6.614   5.843   8.696 -0.7142 -0.8842  0.0859
   22CHL1  H26C 1624   6.615   5.883   8.869  1.0085  1.9636 -2.7510
   22CHL1   C27 1625   6.502   5.606   8.693 -0.0630  0.0445  0.1349
   22CHL1  H27A 1626   6.527   5.648   8.593 -1.4264  2.1361  0.5996
   22CHL1  H27B 1627   6.568   5.525   8.731  0.8760  1.6602  2.1252
   22CHL1  H27C 1628   6.404   5.555   8.686 -0.4626  0.9968 -1.8173
   23CHL1    C3 1629   2.143   1.746   9.881 -0.3787 -0.0410 -0.1297
   23CHL1    H3 1630   2.040   1.724   9.846 -0.1616 -0.7784 -0.3243
   23CHL1    O3 1631   2.123   1.809  10.007  0.2699 -0.5610  0.7733
   23CHL1   H3' 1632   2.210   1.847  10.023  0.1731 -0.1646  0.3732
   23CHL1    C4 1633   2.217   1.612   9.905  0.7434  1.2435 -0.3543
   23CHL1   H4A 1634   2.315   1.638   9.949  1.4973  0.7407 -1.6871
   23CHL1   H4B 1635   2.160   1.555   9.981  1.9776 -0.1805 -0.4597
   23CHL1    C5 1636   2.249   1.545   9.771 -0.3237 -0.2060  0.2378
   23CHL1    C6 1637   2.211   1.419   9.742 -0.9650 -0.1773 -0.1273
   23CHL1    H6 1638   2.161   1.358   9.819  1.1825 -1.6843  0.1553
   23CHL1    C7 1639   2.242   1.348   9.614 -0.2275 -1.0510 -0.5789
   23CHL1   H7A 1640   2.277   1.243   9.624  0.5813 -0.6870  0.6449
   23CHL1   H7B 1641   2.146   1.327   9.563 -0.2131 -0.2508 -0.9514
   23CHL1    C8 1642   2.342   1.424   9.524 -0.5993 -0.3956 -0.0331
   23CHL1    H8 1643   2.444   1.416   9.568  0.0228  2.7650 -0.6391
   23CHL1   C14 1644   2.324   1.371   9.384 -0.5393  0.4036 -0.0388
   23CHL1   H14 1645   2.220   1.386   9.347 -1.7154 -1.4683  2.2837
   23CHL1   C15 1646   2.341   1.218   9.358 -0.4071 -0.1731  0.5256
   23CHL1  H15A 1647   2.435   1.190   9.410 -0.1007  1.2979  0.7899
   23CHL1  H15B 1648   2.252   1.172   9.406  0.1839 -1.4930  0.4289
   23CHL1   C16 1649   2.353   1.204   9.207 -0.3321  0.1495  0.1087
   23CHL1  H16A 1650   2.432   1.128   9.192 -0.2260  0.4127 -0.7634
   23CHL1  H16B 1651   2.253   1.182   9.161 -0.4530  1.9605 -0.5743
   23CHL1   C17 1652   2.386   1.346   9.153  0.4892 -0.2439 -0.2616
   23CHL1   H17 1653   2.285   1.374   9.117 -1.1075 -2.9561  1.7215
   23CHL1   C13 1654   2.412   1.436   9.280 -0.0350  0.1912 -0.0133
   23CHL1   C18 1655   2.568   1.414   9.317  0.0742  0.4898 -0.1506
   23CHL1  H18A 1656   2.604   1.442   9.418 -1.0941 -0.2252  0.4932
   23CHL1  H18B 1657   2.599   1.308   9.301  0.0627  0.3385  0.7806
   23CHL1  H18C 1658   2.616   1.469   9.234 -2.8197 -3.0667 -4.6616
   23CHL1   C12 1659   2.383   1.586   9.276  0.4132  0.3242 -0.5061
   23CHL1  H12A 1660   2.453   1.648   9.217 -0.6366  0.8847 -1.1946
   23CHL1  H12B 1661   2.277   1.596   9.244  0.2298 -0.4301 -0.1733
   23CHL1   C11 1662   2.383   1.643   9.421 -0.0246 -0.3178  0.0832
   23CHL1  H11A 1663   2.491   1.660   9.441 -0.6898  3.1752  1.4876
   23CHL1  H11B 1664   2.328   1.739   9.411 -1.5393 -0.9617  1.6292
   23CHL1    C9 1665   2.301   1.572   9.528  1.2936  0.0350 -0.1590
   23CHL1    H9 1666   2.199   1.581   9.485  0.8683 -2.0618  0.3080
   23CHL1   C10 1667   2.308   1.640   9.663 -0.5466 -0.5591 -0.8207
   23CHL1   C19 1668   2.458   1.660   9.710 -0.0201  0.1400 -0.2674
   23CHL1  H19A 1669   2.519   1.567   9.708 -1.4443 -0.8199 -0.5623
   23CHL1  H19B 1670   2.511   1.727   9.640 -0.3185  0.9197  0.2424
   23CHL1  H19C 1671   2.456   1.702   9.813 -0.7048 -1.8017  0.5699
   23CHL1    C1 1672   2.235   1.777   9.655 -0.5949  0.2795 -0.5899
   23CHL1   H1A 1673   2.284   1.850   9.586  1.9052 -2.2048 -1.6344
   23CHL1   H1B 1674   2.133   1.753   9.616 -0.2557  0.3896 -1.5699
   23CHL1    C2 1675   2.207   1.846   9.793 -0.0250  0.2868 -0.1302
   23CHL1   H2A 1676   2.151   1.941   9.779 -0.8928 -0.0790  0.7231
   23CHL1   H2B 1677   2.303   1.869   9.843  0.0865 -0.7739  0.1801
   23CHL1   C20 1678   2.486   1.345   9.036 -0.2698 -0.0090  0.0054
   23CHL1   H20 1679   2.588   1.314   9.066  0.4852  0.5849 -1.8114
   23CHL1   C21 1680   2.495   1.498   8.992 -0.7702  0.4311  0.4698
   23CHL1  H21A 1681   2.396   1.548   8.985 -1.6799 -1.1432  1.4973
   23CHL1  H21B 1682   2.542   1.502   8.891  1.1175 -0.9794  1.2393
   23CHL1  H21C 1683   2.560   1.568   9.049  3.2890  1.8814 -5.0652
   23CHL1   C22 1684   2.453   1.261   8.910  0.0655 -0.8246 -0.4637
   23CHL1  H22A 1685   2.419   1.159   8.938  0.5963 -0.7350  0.5494
   23CHL1  H22B 1686   2.376   1.323   8.859  0.4746  0.8766  0.8916
   23CHL1   C23 1687   2.586   1.250   8.820  0.4687  1.3296  0.8046
   23CHL1  H23A 1688   2.647   1.342   8.808  2.6830  0.1850  2.5850
   23CHL1  H23B 1689   2.656   1.176   8.864  1.9802  1.9989 -0.3975
   23CHL1   C24 1690   2.544   1.179   8.684  0.4950 -0.2408 -0.0623
   23CHL1  H24A 1691   2.465   1.102   8.692  0.6069 -0.3520 -0.0317
   23CHL1  H24B 1692   2.492   1.257   8.623 -1.4778 -0.9547  0.6128
   23CHL1   C25 1693   2.662   1.144   8.595  0.2135 -0.0266 -0.2163
   23CHL1   H25 1694   2.721   1.058   8.634 -1.3507 -1.3450 -0.5986
   23CHL1   C26 1695   2.603   1.084   8.466 -0.8534 -0.2297 -0.9365
   23CHL1  H26A 1696   2.687   1.043   8.405  0.6000  3.4760 -1.6557
   23CHL1  H26B 1697   2.532   0.998   8.475  1.7777 -2.3840  1.0653
   23CHL1  H26C 1698   2.561   1.162   8.400 -3.8915  0.2846  1.3886
   23CHL1   C27 1699   2.749   1.263   8.562  0.7062  0.0204 -0.5667
   23CHL1  H27A 1700   2.706   1.352   8.511  0.8358  0.8803  0.7845
   23CHL1  H27B 1701   2.792   1.304   8.656  1.6099 -0.1321 -0.9055
   23CHL1  H27C 1702   2.839   1.233   8.505 -0.3233 -1.5956 -1.4358
   24CHL1    C3 1703   2.894   0.126  10.431  0.4581 -0.5375 -0.4193
   24CHL1    H3 1704   2.834   0.217  10.410  2.6630  1.4610  1.4286
   24CHL1    O3 1705   2.878   0.102  10.571 -0.1132 -0.3051  0.8105
   24CHL1   H3' 1706   2.853   0.011  10.586 -0.6103  0.0639  2.4479
   24CHL1    C4 1707   2.857   0.003  10.356  0.2336 -0.5131  0.1377
   24CHL1   H4A 1708   2.919  -0.082  10.392  2.0932  0.8130  0.2113
   24CHL1   H4B 1709   2.749  -0.008  10.381  0.2662  2.1108  1.8753
   24CHL1    C5 1710   2.885   0.016  10.206  0.0327  0.0687 -0.8461
   24CHL1    C6 1711   2.784   0.008  10.119  0.7876  0.1172  0.3633
   24CHL1    H6 1712   2.681  -0.005  10.155 -0.1383  2.4146 -1.2252
   24CHL1    C7 1713   2.811   0.020   9.976  0.7932  0.2713 -0.3074
   24CHL1   H7A 1714   2.752  -0.055   9.920 -2.6139  1.0632  1.9399
   24CHL1   H7B 1715   2.780   0.121   9.942 -0.5347 -0.0036  0.0182
   24CHL1    C8 1716   2.960   0.013   9.938  0.7716  0.7677  0.2880
   24CHL1    H8 1717   2.990  -0.094   9.947 -1.0546  0.2869  1.1654
   24CHL1   C14 1718   2.980   0.049   9.791  0.7164 -0.0549 -0.6796
   24CHL1   H14 1719   2.963   0.159   9.781 -1.4656 -0.5220 -3.4093
   24CHL1   C15 1720   2.882  -0.006   9.682  0.1596 -0.2834 -1.0033
   24CHL1  H15A 1721   2.869  -0.115   9.701  0.5025 -0.2819 -0.7427
   24CHL1  H15B 1722   2.783   0.042   9.682  1.0772  1.7737  1.0925
   24CHL1   C16 1723   2.958   0.018   9.545 -0.0740 -0.2736  1.1579
   24CHL1  H16A 1724   2.964  -0.080   9.494  0.5558 -0.1249  0.9438
   24CHL1  H16B 1725   2.898   0.091   9.485  0.1549 -0.7793  0.3016
   24CHL1   C17 1726   3.095   0.075   9.578 -0.1389  0.0667 -0.5467
   24CHL1   H17 1727   3.083   0.185   9.576  1.0421  0.2641  1.0341
   24CHL1   C13 1728   3.124   0.035   9.727  0.0886  0.2903 -0.1161
   24CHL1   C18 1729   3.169  -0.112   9.728  0.0305 -0.0213  0.3486
   24CHL1  H18A 1730   3.271  -0.137   9.692  0.0229 -0.9993  0.9756
   24CHL1  H18B 1731   3.165  -0.153   9.832  0.8716 -1.5429 -0.1785
   24CHL1  H18C 1732   3.099  -0.177   9.671  0.5870 -0.1299 -0.2198
   24CHL1   C12 1733   3.212   0.127   9.814 -0.1235 -0.2069  0.3274
   24CHL1  H12A 1734   3.316   0.100   9.785 -0.1166  0.0462  0.1184
   24CHL1  H12B 1735   3.209   0.237   9.798  2.3877 -0.0364  0.6058
   24CHL1   C11 1736   3.193   0.101   9.964  0.2230  0.8972 -0.2661
   24CHL1  H11A 1737   3.229  -0.002   9.987 -2.3544  0.0270  0.2534
   24CHL1  H11B 1738   3.258   0.174  10.016  0.7026  0.3071 -0.0225
   24CHL1    C9 1739   3.049   0.107  10.019  0.2698  0.1412 -0.7860
   24CHL1    H9 1740   3.003   0.207  10.006  1.0799  0.5216 -0.7734
   24CHL1   C10 1741   3.033   0.064  10.168 -0.4118  0.8989 -0.2726
   24CHL1   C19 1742   3.118  -0.064  10.203 -0.1029  0.0771  0.1574
   24CHL1  H19A 1743   3.085  -0.156  10.151 -0.9088  1.4099 -1.7853
   24CHL1  H19B 1744   3.226  -0.052  10.178  0.1564 -0.9740  0.6949
   24CHL1  H19C 1745   3.132  -0.069  10.314  0.7897  1.1363  0.1094
   24CHL1    C1 1746   3.084   0.188  10.262  1.0676  0.5760  0.6172
   24CHL1   H1A 1747   3.195   0.198  10.252  1.1182  0.1460  0.7152
   24CHL1   H1B 1748   3.025   0.277  10.230  0.2966 -0.5850 -1.3695
   24CHL1    C2 1749   3.038   0.170  10.410  0.5234 -0.2120 -0.2753
   24CHL1   H2A 1750   3.058   0.266  10.463  1.0322 -0.3922 -0.1333
   24CHL1   H2B 1751   3.110   0.093  10.444  0.2535 -1.2260 -1.9035
   24CHL1   C20 1752   3.197   0.036   9.471  0.1989 -0.1655  0.6815
   24CHL1   H20 1753   3.216  -0.071   9.450  2.2665  0.4686 -1.2171
   24CHL1   C21 1754   3.335   0.090   9.509  0.8615 -0.3356 -0.1500
   24CHL1  H21A 1755   3.396   0.083   9.417  0.5013 -0.5851 -0.3750
   24CHL1  H21B 1756   3.396   0.042   9.588  2.0026 -0.0399 -0.8353
   24CHL1  H21C 1757   3.333   0.199   9.527 -0.4300 -0.3360 -0.1747
   24CHL1   C22 1758   3.158   0.095   9.328  0.9803 -0.5199  0.3090
   24CHL1  H22A 1759   3.061   0.044   9.306  0.2439  0.6121  0.8365
   24CHL1  H22B 1760   3.133   0.203   9.321  1.2445 -0.4691  0.1461
   24CHL1   C23 1761   3.265   0.067   9.217 -0.4153  0.6059  0.4010
   24CHL1  H23A 1762   3.350   0.136   9.237  2.8600 -2.7369 -0.8923
   24CHL1  H23B 1763   3.307  -0.035   9.231 -1.9828 -0.0044  0.8345
   24CHL1   C24 1764   3.211   0.082   9.074 -0.2923  0.6795 -0.2627
   24CHL1  H24A 1765   3.115   0.028   9.065  0.2025 -0.1568 -0.6422
   24CHL1  H24B 1766   3.207   0.192   9.059  2.0400  1.0433  1.2716
   24CHL1   C25 1767   3.314   0.031   8.965  0.7492 -0.2900 -0.5526
   24CHL1   H25 1768   3.347  -0.068   9.002  4.5027  1.3238  0.8964
   24CHL1   C26 1769   3.253   0.029   8.827 -0.0363  0.2513 -0.1535
   24CHL1  H26A 1770   3.155  -0.024   8.832 -0.4410  0.8742 -1.2852
   24CHL1  H26B 1771   3.230   0.132   8.791 -3.5103  0.1807  1.4006
   24CHL1  H26C 1772   3.306  -0.028   8.749  0.9399  1.6560 -0.5526
   24CHL1   C27 1773   3.440   0.124   8.967 -0.2475 -0.0335 -0.6058
   24CHL1  H27A 1774   3.423   0.218   8.910  3.0442  0.9328 -0.2007
   24CHL1  H27B 1775   3.480   0.160   9.064  1.0193 -0.6813 -0.8762
   24CHL1  H27C 1776   3.528   0.066   8.932  2.3533  2.5215  1.2197
   25CHL1    C3 1777   4.371   4.117  10.216 -0.2049 -0.6992 -0.1380
   25CHL1    H3 1778   4.392   4.223  10.190 -0.1092 -0.5952  0.3482
   25CHL1    O3 1779   4.412   4.094  10.353  0.1559 -0.3078 -0.0105
   25CHL1   H3' 1780   4.370   4.013  10.383  1.8091 -1.5432 -0.8259
   25CHL1    C4 1781   4.217   4.094  10.197 -0.3500 -0.6139 -0.8962
   25CHL1   H4A 1782   4.194   3.987  10.218  0.3849 -1.1720 -2.7153
   25CHL1   H4B 1783   4.155   4.153  10.268  0.8914 -0.0984 -0.2134
   25CHL1    C5 1784   4.186   4.122  10.048 -0.4736 -0.2788 -0.2638
   25CHL1    C6 1785   4.111   4.228  10.010  0.3415 -0.0601 -0.6006
   25CHL1    H6 1786   4.074   4.304  10.081  0.9998  0.3979 -0.7328
   25CHL1    C7 1787   4.073   4.269   9.873 -0.6980  0.6778 -0.2649
   25CHL1   H7A 1788   3.964   4.290   9.870 -0.5864  1.7429  1.3858
   25CHL1   H7B 1789   4.119   4.365   9.843  0.8443  0.1591  0.3660
   25CHL1    C8 1790   4.108   4.157   9.781 -0.4770  0.0174  0.4565
   25CHL1    H8 1791   4.030   4.078   9.786  0.6859 -1.1385  1.0409
   25CHL1   C14 1792   4.104   4.205   9.631 -0.1397  0.5345  0.3782
   25CHL1   H14 1793   4.178   4.287   9.616  0.0408  0.4094  0.5675
   25CHL1   C15 1794   3.971   4.271   9.596  0.0958  1.0362  0.9959
   25CHL1  H15A 1795   3.900   4.191   9.626  0.3417 -0.4230 -1.8948
   25CHL1  H15B 1796   3.950   4.368   9.645  0.7132  2.1881 -0.8991
   25CHL1   C16 1797   3.972   4.260   9.441  0.4739  0.3614  0.0664
   25CHL1  H16A 1798   3.872   4.223   9.408  0.0618  0.3922  1.2178
   25CHL1  H16B 1799   3.986   4.364   9.404  1.1126  0.6491  1.0885
   25CHL1   C17 1800   4.104   4.178   9.397  0.3743  0.2825 -0.3794
   25CHL1   H17 1801   4.181   4.256   9.383 -0.5504  1.2724 -0.1273
   25CHL1   C13 1802   4.137   4.103   9.528  0.3330  0.7772  1.0809
   25CHL1   C18 1803   4.045   3.973   9.524 -0.2233  0.1577  0.3317
   25CHL1  H18A 1804   4.044   3.927   9.625  1.2914  0.2551  0.4137
   25CHL1  H18B 1805   3.940   4.000   9.501 -0.2799  2.7150  2.9690
   25CHL1  H18C 1806   4.085   3.893   9.458  0.0596  0.3298  0.2916
   25CHL1   C12 1807   4.285   4.065   9.544  0.2919  0.8689  0.0483
   25CHL1  H12A 1808   4.315   3.991   9.467 -1.4595  0.0269  0.1270
   25CHL1  H12B 1809   4.341   4.157   9.516  0.4700  0.3873 -1.2231
   25CHL1   C11 1810   4.308   4.012   9.687  0.3295  0.0107 -0.7049
   25CHL1  H11A 1811   4.265   3.910   9.698  3.1975 -1.5811 -2.9917
   25CHL1  H11B 1812   4.416   3.996   9.707  0.8258  2.1170 -1.4783
   25CHL1    C9 1813   4.252   4.096   9.808  0.9285 -0.1582  0.3634
   25CHL1    H9 1814   4.315   4.187   9.814 -0.6811  0.9473  1.1997
   25CHL1   C10 1815   4.265   4.031   9.947  0.2655  0.1065  0.3529
   25CHL1   C19 1816   4.208   3.887   9.942  0.4262 -0.2940  0.1587
   25CHL1  H19A 1817   4.281   3.818   9.894 -0.8043 -1.3275 -0.3037
   25CHL1  H19B 1818   4.184   3.845  10.042  0.5188  0.1177  0.3549
   25CHL1  H19C 1819   4.122   3.889   9.871  0.7078  2.2977 -0.2228
   25CHL1    C1 1820   4.410   4.037   9.984  0.1428  0.1532  0.3076
   25CHL1   H1A 1821   4.454   3.962   9.916 -1.2820 -0.6333  0.1994
   25CHL1   H1B 1822   4.453   4.136   9.961  0.6333  0.1925  1.3299
   25CHL1    C2 1823   4.441   4.009  10.131  0.3849 -0.2442  1.2319
   25CHL1   H2A 1824   4.551   4.013  10.138  0.4199 -0.4971  0.8525
   25CHL1   H2B 1825   4.403   3.907  10.153 -0.9064  0.3977  2.1711
   25CHL1   C20 1826   4.071   4.115   9.263  0.1860 -0.1139  0.5914
   25CHL1   H20 1827   4.000   4.029   9.260  0.4058 -0.2814 -1.0641
   25CHL1   C21 1828   4.200   4.044   9.209 -0.3753 -0.4097 -0.4308
   25CHL1  H21A 1829   4.231   3.969   9.286  1.8746  1.4281  0.5846
   25CHL1  H21B 1830   4.281   4.119   9.204 -0.3772 -0.2553  1.1937
   25CHL1  H21C 1831   4.184   3.987   9.115  1.8561 -1.9896  0.0506
   25CHL1   C22 1832   4.019   4.221   9.160  0.0837  0.4370 -0.5301
   25CHL1  H22A 1833   3.916   4.243   9.195 -0.6290  0.5140 -2.5496
   25CHL1  H22B 1834   4.075   4.316   9.166 -1.0392  1.0539  0.8521
   25CHL1   C23 1835   4.006   4.169   9.019  0.0043 -0.1781 -0.1442
   25CHL1  H23A 1836   4.111   4.165   8.984  0.0175 -0.9164 -0.0400
   25CHL1  H23B 1837   3.967   4.065   9.013  1.4349 -0.8154  1.1707
   25CHL1   C24 1838   3.925   4.273   8.944 -0.0202 -0.3091  1.1702
   25CHL1  H24A 1839   3.825   4.276   8.991  0.0950 -1.0355  1.4737
   25CHL1  H24B 1840   3.966   4.377   8.951 -0.7008  0.0525  0.1668
   25CHL1   C25 1841   3.897   4.238   8.796  0.4312 -0.1775  0.2734
   25CHL1   H25 1842   3.849   4.138   8.807  0.1455 -0.1126 -0.3362
   25CHL1   C26 1843   3.796   4.341   8.738 -0.1568  0.1094  0.2482
   25CHL1  H26A 1844   3.695   4.328   8.782 -1.4138 -1.0426 -2.6821
   25CHL1  H26B 1845   3.832   4.446   8.743  0.3014  0.1195 -2.1053
   25CHL1  H26C 1846   3.797   4.328   8.628 -0.2798 -0.9564  0.3626
   25CHL1   C27 1847   4.019   4.223   8.701 -0.1657 -0.2312  0.2975
   25CHL1  H27A 1848   4.051   4.324   8.667 -2.5810  1.2572  2.0972
   25CHL1  H27B 1849   4.102   4.181   8.761 -0.3667 -0.7349  0.2273
   25CHL1  H27C 1850   4.001   4.156   8.614 -0.8340 -0.6961  0.7791
   26CHL1    C3 1851   0.164   4.421  10.375  0.1034 -0.1665 -0.2590
   26CHL1    H3 1852   0.095   4.504  10.349  0.4265  0.3471  0.4738
   26CHL1    O3 1853   0.161   4.380  10.512  0.1705  0.6195  0.4800
   26CHL1   H3' 1854   0.072   4.407  10.537  0.5233  0.9169  1.4835
   26CHL1    C4 1855   0.124   4.301  10.291 -0.0684  0.2106 -0.1364
   26CHL1   H4A 1856   0.204   4.225  10.308  0.8914  1.4276  1.1148
   26CHL1   H4B 1857   0.027   4.266  10.332 -0.1858 -0.7427 -1.1796
   26CHL1    C5 1858   0.121   4.339  10.151 -1.0236 -1.4469  0.5255
   26CHL1    C6 1859   0.013   4.317  10.071 -0.3594 -0.6131 -0.3914
   26CHL1    H6 1860  -0.074   4.266  10.116 -0.9851  2.4256  2.2375
   26CHL1    C7 1861   0.003   4.342   9.923 -0.4152 -0.2412  0.4122
   26CHL1   H7A 1862  -0.032   4.248   9.876 -1.5637 -0.1481  1.0557
   26CHL1   H7B 1863  -0.076   4.419   9.914 -2.0739 -1.8524  0.7276
   26CHL1    C8 1864   0.143   4.381   9.868 -0.1753 -0.0274 -0.1405
   26CHL1    H8 1865   0.204   4.290   9.854  2.3990  1.5039  0.4978
   26CHL1   C14 1866   0.124   4.446   9.733 -0.0714 -0.4369  0.2042
   26CHL1   H14 1867   0.081   4.546   9.756  2.0570  0.7556 -0.6847
   26CHL1   C15 1868   0.028   4.392   9.631 -0.2489  0.2583  0.5217
   26CHL1  H15A 1869   0.066   4.293   9.598 -0.1123  0.5487 -0.2203
   26CHL1  H15B 1870  -0.081   4.390   9.653 -0.3067 -1.3304  0.1764
   26CHL1   C16 1871   0.054   4.485   9.506  0.2384 -0.8344  0.4174
   26CHL1  H16A 1872   0.059   4.418   9.417  0.4883  0.3534 -0.4929
   26CHL1  H16B 1873  -0.024   4.561   9.488  0.7981 -0.5479 -0.9678
   26CHL1   C17 1874   0.186   4.564   9.531 -0.4735 -0.0913  0.6398
   26CHL1   H17 1875   0.159   4.666   9.564  2.7789  0.9163  0.5640
   26CHL1   C13 1876   0.250   4.486   9.656 -0.3478 -0.1228 -0.4835
   26CHL1   C18 1877   0.334   4.363   9.607  0.6681 -0.2391 -0.2054
   26CHL1  H18A 1878   0.324   4.282   9.683  3.1791  0.6395  1.1340
   26CHL1  H18B 1879   0.302   4.328   9.506  2.5010  0.1448 -0.9515
   26CHL1  H18C 1880   0.441   4.391   9.603  0.5289  0.1687 -2.1747
   26CHL1   C12 1881   0.337   4.575   9.750 -0.0405  0.0958  0.6731
   26CHL1  H12A 1882   0.432   4.604   9.700  0.8844 -2.5008  0.7921
   26CHL1  H12B 1883   0.289   4.670   9.783  1.5285  1.2843 -0.2985
   26CHL1   C11 1884   0.367   4.505   9.880 -0.1363 -0.5511  0.5046
   26CHL1  H11A 1885   0.427   4.414   9.858  1.3908  0.6908 -0.7350
   26CHL1  H11B 1886   0.423   4.574   9.947  1.4026 -2.8309  1.7084
   26CHL1    C9 1887   0.232   4.466   9.953  0.1932 -0.7729  0.1687
   26CHL1    H9 1888   0.183   4.565   9.971 -1.2641 -1.4233 -0.0526
   26CHL1   C10 1889   0.250   4.406  10.095  0.8476  0.6415  0.1787
   26CHL1   C19 1890   0.353   4.292  10.081  0.4425 -0.2310  0.6118
   26CHL1  H19A 1891   0.384   4.244  10.176  7.0353 -0.1586 -0.9948
   26CHL1  H19B 1892   0.318   4.220  10.005  1.0515  0.2844 -0.1731
   26CHL1  H19C 1893   0.452   4.327  10.045  0.6745 -1.6161 -0.1280
   26CHL1    C1 1894   0.307   4.519  10.190 -0.6283 -0.0892 -0.0680
   26CHL1   H1A 1895   0.415   4.537  10.171 -0.9672  1.1705 -0.9878
   26CHL1   H1B 1896   0.265   4.619  10.163  0.6898  0.0019 -2.0088
   26CHL1    C2 1897   0.295   4.484  10.342  0.1775  0.0343  0.0598
   26CHL1   H2A 1898   0.320   4.572  10.405 -1.4392  0.0989  0.6475
   26CHL1   H2B 1899   0.374   4.408  10.362  0.3316  0.4898  1.2682
   26CHL1   C20 1900   0.276   4.587   9.413  0.1153 -0.7236  0.0167
   26CHL1   H20 1901   0.289   4.488   9.364  1.4062  0.0996 -1.4261
   26CHL1   C21 1902   0.415   4.652   9.437  0.8602  0.6400 -0.0288
   26CHL1  H21A 1903   0.406   4.744   9.499  1.1869  0.2821  0.5672
   26CHL1  H21B 1904   0.466   4.671   9.341  1.4444  1.8947  0.4996
   26CHL1  H21C 1905   0.476   4.581   9.497 -0.8580 -1.2551 -0.4033
   26CHL1   C22 1906   0.197   4.672   9.301 -0.1825  0.8280 -0.8601
   26CHL1  H22A 1907   0.091   4.641   9.290 -0.4575  1.7142 -0.7644
   26CHL1  H22B 1908   0.192   4.780   9.329  1.3975  0.6526  0.2728
   26CHL1   C23 1909   0.263   4.666   9.165  0.5344 -0.3233 -0.0597
   26CHL1  H23A 1910   0.363   4.713   9.175 -1.0184  3.1842  0.5778
   26CHL1  H23B 1911   0.257   4.559   9.134 -1.2308 -0.9763  2.2203
   26CHL1   C24 1912   0.190   4.741   9.058 -0.2625  0.4744 -0.2578
   26CHL1  H24A 1913   0.081   4.719   9.049 -0.3433  1.3535 -1.9879
   26CHL1  H24B 1914   0.203   4.851   9.072  1.9411  0.2290 -0.0943
   26CHL1   C25 1915   0.254   4.713   8.922 -0.8211 -0.2122 -1.0946
   26CHL1   H25 1916   0.243   4.605   8.898 -1.6934  0.0883 -2.1241
   26CHL1   C26 1917   0.158   4.771   8.812 -0.1854  0.3190  0.2137
   26CHL1  H26A 1918   0.165   4.879   8.838  1.0424  0.0022  1.3307
   26CHL1  H26B 1919   0.197   4.744   8.711 -1.1381  0.2095 -0.1363
   26CHL1  H26C 1920   0.053   4.735   8.819 -0.6424  1.7690  1.2570
   26CHL1   C27 1921   0.399   4.762   8.909  0.0955 -0.3718 -0.2126
   26CHL1  H27A 1922   0.410   4.862   8.958 -0.1980  0.2606 -1.3885
   26CHL1  H27B 1923   0.457   4.684   8.962 -0.7280  0.4496  2.0077
   26CHL1  H27C 1924   0.430   4.773   8.803  1.8392 -0.8573  0.2167
   27CHL1    C3 1925   5.395   1.201  10.235  0.4356 -0.4588  0.3607
   27CHL1    H3 1926   5.506   1.205  10.235  0.4049  1.1116 -0.1319
   27CHL1    O3 1927   5.354   1.165  10.363  0.4387 -0.8892  0.2488
   27CHL1   H3' 1928   5.259   1.172  10.353  0.2714 -0.8935  1.7337
   27CHL1    C4 1929   5.365   1.347  10.186 -0.4359 -0.2836  0.1332
   27CHL1   H4A 1930   5.258   1.378  10.197 -0.6296 -0.0149 -1.9965
   27CHL1   H4B 1931   5.420   1.414  10.255 -1.5052 -1.0175  1.7529
   27CHL1    C5 1932   5.391   1.378  10.042 -0.7287  0.1479  0.5590
   27CHL1    C6 1933   5.452   1.496  10.009  0.1776 -0.5346 -0.3816
   27CHL1    H6 1934   5.488   1.559  10.092 -1.9972  0.3802 -0.0605
   27CHL1    C7 1935   5.463   1.551   9.873 -1.1656  0.0898 -0.9767
   27CHL1   H7A 1936   5.433   1.658   9.869  1.0323  0.8318  0.6152
   27CHL1   H7B 1937   5.567   1.538   9.838 -0.3476  1.4771  0.7607
   27CHL1    C8 1938   5.394   1.461   9.761 -1.0319 -0.2270 -0.0160
   27CHL1    H8 1939   5.290   1.499   9.769 -0.4077  1.4514  0.6919
   27CHL1   C14 1940   5.462   1.477   9.620  0.3331 -0.1384 -0.4083
   27CHL1   H14 1941   5.556   1.419   9.633 -1.2730 -2.7928  0.0513
   27CHL1   C15 1942   5.486   1.615   9.568 -0.0892  0.1380  0.9012
   27CHL1  H15A 1943   5.403   1.686   9.587 -0.7986 -0.7158  1.0476
   27CHL1  H15B 1944   5.581   1.662   9.601  0.2267  1.6329 -1.8121
   27CHL1   C16 1945   5.486   1.594   9.414  0.0162 -0.6294 -0.8706
   27CHL1  H16A 1946   5.411   1.669   9.380 -0.8741 -2.0559 -2.2533
   27CHL1  H16B 1947   5.588   1.614   9.375  0.9993 -4.1782 -0.4671
   27CHL1   C17 1948   5.450   1.449   9.384  0.6723  0.0377 -0.8970
   27CHL1   H17 1949   5.550   1.402   9.384  1.2436  1.1815 -2.2088
   27CHL1   C13 1950   5.381   1.403   9.511 -0.2318 -0.2147  0.6339
   27CHL1   C18 1951   5.232   1.455   9.499 -0.8338  0.2107  0.6227
   27CHL1  H18A 1952   5.168   1.399   9.428 -2.1480 -1.1084  2.7570
   27CHL1  H18B 1953   5.170   1.438   9.589 -0.5176 -1.3157  0.5743
   27CHL1  H18C 1954   5.228   1.564   9.476 -3.0539  0.0050 -0.1848
   27CHL1   C12 1955   5.384   1.250   9.550  0.2110  0.3955 -0.0092
   27CHL1  H12A 1956   5.322   1.188   9.481  0.3941 -0.9066  0.9413
   27CHL1  H12B 1957   5.490   1.216   9.546  1.1048  2.9641  0.0737
   27CHL1   C11 1958   5.330   1.218   9.693  0.3294 -0.2020  0.0523
   27CHL1  H11A 1959   5.220   1.232   9.683  0.3520  0.1439  0.2752
   27CHL1  H11B 1960   5.354   1.112   9.718 -0.7078 -0.3841  0.3387
   27CHL1    C9 1961   5.388   1.314   9.802 -0.5459  0.1050 -0.5123
   27CHL1    H9 1962   5.494   1.282   9.793 -0.9504 -1.7638  0.7743
   27CHL1   C10 1963   5.335   1.277   9.943 -0.3233  0.2131  0.6022
   27CHL1   C19 1964   5.185   1.296   9.956 -0.3770 -0.1640  0.6384
   27CHL1  H19A 1965   5.151   1.279  10.060  1.3085 -0.4117  1.1775
   27CHL1  H19B 1966   5.156   1.395   9.914 -1.8917 -1.0029 -0.4179
   27CHL1  H19C 1967   5.128   1.225   9.891  2.3760 -2.2584  0.3358
   27CHL1    C1 1968   5.384   1.136   9.999 -0.7342  0.5739 -0.9202
   27CHL1   H1A 1969   5.331   1.061   9.937 -1.3191 -0.3243  0.6062
   27CHL1   H1B 1970   5.494   1.120   9.995 -0.7779 -0.0356  0.0882
   27CHL1    C2 1971   5.337   1.102  10.138 -0.0996  0.5194  0.0437
   27CHL1   H2A 1972   5.374   0.999  10.161  2.1116  1.6235  1.8482
   27CHL1   H2B 1973   5.226   1.110  10.141 -0.0600  1.1799 -0.1694
   27CHL1   C20 1974   5.385   1.420   9.248 -0.7429 -0.8206  0.4966
   27CHL1   H20 1975   5.275   1.435   9.255 -0.7786 -0.6969 -0.3134
   27CHL1   C21 1976   5.411   1.267   9.214  0.3785 -0.1698 -0.2149
   27CHL1  H21A 1977   5.353   1.243   9.123  0.0230 -1.6659  0.3728
   27CHL1  H21B 1978   5.383   1.193   9.292  0.2616  0.6910  0.5740
   27CHL1  H21C 1979   5.519   1.249   9.195  0.8184 -0.8734  2.4979
   27CHL1   C22 1980   5.436   1.502   9.131 -0.3139  0.3855 -0.4845
   27CHL1  H22A 1981   5.438   1.609   9.162 -1.7643  0.4700 -0.6018
   27CHL1  H22B 1982   5.537   1.471   9.098  0.8403  3.4567 -0.2242
   27CHL1   C23 1983   5.345   1.494   9.006 -0.1080  0.2708  0.1116
   27CHL1  H23A 1984   5.323   1.392   8.969  1.4713  0.5818 -1.8610
   27CHL1  H23B 1985   5.245   1.540   9.023  0.3414  1.3863 -0.1796
   27CHL1   C24 1986   5.407   1.558   8.884  0.8687  0.7048 -0.3761
   27CHL1  H24A 1987   5.500   1.503   8.859  2.2582  2.9278 -0.3304
   27CHL1  H24B 1988   5.332   1.548   8.803 -0.6506  1.1936  0.9017
   27CHL1   C25 1989   5.440   1.707   8.900 -0.3275 -0.0491 -0.7199
   27CHL1   H25 1990   5.524   1.711   8.974  0.4865  1.3958 -1.6632
   27CHL1   C26 1991   5.496   1.773   8.772 -0.1838 -0.0952  0.2945
   27CHL1  H26A 1992   5.500   1.883   8.780 -1.4678  0.3304 -3.1074
   27CHL1  H26B 1993   5.601   1.745   8.748 -0.1557 -0.9992  1.4052
   27CHL1  H26C 1994   5.437   1.741   8.683 -1.6276  0.7952  0.9101
   27CHL1   C27 1995   5.328   1.785   8.955 -0.9192 -0.6361 -0.1407
   27CHL1  H27A 1996   5.355   1.893   8.960  0.5861 -0.9538 -0.8273
   27CHL1  H27B 1997   5.236   1.792   8.892 -1.5307  2.7151  0.9347
   27CHL1  H27C 1998   5.305   1.751   9.058 -1.0726 -0.2101 -0.0335
   28CHL1    C3 1999   4.867   1.807  10.063 -0.2399  0.5954  0.3515
   28CHL1    H3 2000   4.777   1.871  10.046 -2.8443 -2.7238  0.5841
   28CHL1    O3 2001   4.857   1.760  10.200 -0.5267  0.5882  0.0447
   28CHL1   H3' 2002   4.802   1.681  10.205  0.7296 -0.3860 -0.8166
   28CHL1    C4 2003   4.854   1.687   9.964  0.5683 -0.0328 -0.4744
   28CHL1   H4A 2004   4.932   1.620  10.005  0.4288  0.8306  1.3193
   28CHL1   H4B 2005   4.757   1.641   9.989  0.1143  1.5767  0.9264
   28CHL1    C5 2006   4.865   1.734   9.819 -0.6207  0.4527  0.1297
   28CHL1    C6 2007   4.778   1.695   9.726 -0.1492  0.4480 -0.2889
   28CHL1    H6 2008   4.697   1.635   9.771  1.0133 -0.4523  0.6733
   28CHL1    C7 2009   4.790   1.733   9.580 -0.9265 -0.0803  0.3736
   28CHL1   H7A 2010   4.773   1.646   9.513 -0.6524 -0.3023  0.5853
   28CHL1   H7B 2011   4.708   1.807   9.568  0.2717  1.2489  0.1503
   28CHL1    C8 2012   4.924   1.803   9.543 -0.2208 -0.1679 -0.0826
   28CHL1    H8 2013   5.005   1.730   9.523  0.2531  0.3552 -0.0766
   28CHL1   C14 2014   4.904   1.889   9.417  0.2671  0.4460  0.1698
   28CHL1   H14 2015   4.835   1.972   9.445 -0.8068  0.3098 -1.8589
   28CHL1   C15 2016   4.841   1.816   9.297  0.0457 -0.3076  0.4341
   28CHL1  H15A 2017   4.881   1.714   9.279 -1.9317 -1.2940  1.2343
   28CHL1  H15B 2018   4.730   1.813   9.308 -0.0527 -0.6228 -0.5713
   28CHL1   C16 2019   4.878   1.903   9.171  0.3315  0.3068 -0.1612
   28CHL1  H16A 2020   4.935   1.842   9.097 -0.9722 -2.0752  0.6752
   28CHL1  H16B 2021   4.787   1.945   9.124 -0.0068 -0.2043  0.0277
   28CHL1   C17 2022   4.985   2.008   9.224  0.6439 -0.3739  0.5097
   28CHL1   H17 2023   4.923   2.097   9.246  0.1554 -0.2065 -1.4110
   28CHL1   C13 2024   5.034   1.953   9.363  1.0658 -0.1307 -0.4109
   28CHL1   C18 2025   5.140   1.848   9.337  0.0173 -0.3747 -1.0437
   28CHL1  H18A 2026   5.163   1.788   9.428 -0.6143 -1.8970 -1.8528
   28CHL1  H18B 2027   5.096   1.775   9.266  0.5464 -0.8003 -0.9451
   28CHL1  H18C 2028   5.226   1.907   9.298 -1.3278  2.2805 -0.2804
   28CHL1   C12 2029   5.078   2.056   9.474  0.3127 -0.2151  0.4495
   28CHL1  H12A 2030   5.177   2.103   9.455  0.8258 -1.9651 -1.5639
   28CHL1  H12B 2031   4.992   2.126   9.476  0.7927  0.6165 -2.9106
   28CHL1   C11 2032   5.092   1.991   9.614  0.5630  0.2440 -0.1490
   28CHL1  H11A 2033   5.187   1.933   9.619  0.5265  0.1932 -0.0281
   28CHL1  H11B 2034   5.094   2.070   9.692  0.0605  0.6846 -0.5743
   28CHL1    C9 2035   4.970   1.894   9.656 -0.2104 -0.6525 -0.5563
   28CHL1    H9 2036   4.887   1.966   9.673  0.2464 -0.3855  0.6413
   28CHL1   C10 2037   4.989   1.821   9.791  0.3939 -0.8346 -0.2137
   28CHL1   C19 2038   5.122   1.724   9.797  0.4573 -0.2007  0.5958
   28CHL1  H19A 2039   5.115   1.675   9.896 -1.0523  0.1174  0.6790
   28CHL1  H19B 2040   5.124   1.659   9.707 -0.7497  2.1397 -1.2531
   28CHL1  H19C 2041   5.206   1.796   9.807  1.2050 -1.2031  1.6314
   28CHL1    C1 2042   4.999   1.929   9.903 -1.1511  0.3074  0.3878
   28CHL1   H1A 2043   5.096   1.982   9.888 -0.9680  0.3615  1.6464
   28CHL1   H1B 2044   4.922   2.007   9.884  0.2315  1.8200  0.7722
   28CHL1    C2 2045   4.989   1.889  10.051  0.4907  0.2051  0.6416
   28CHL1   H2A 2046   4.987   1.980  10.115  0.3514 -0.5158  1.6790
   28CHL1   H2B 2047   5.075   1.829  10.089  0.6369 -0.6218 -0.9302
   28CHL1   C20 2048   5.082   2.059   9.115  0.3326  0.3964  0.1570
   28CHL1   H20 2049   5.137   1.969   9.082  0.0822  0.6795 -1.0615
   28CHL1   C21 2050   5.178   2.170   9.157  0.0313 -0.4121 -1.0208
   28CHL1  H21A 2051   5.253   2.205   9.082  2.0368 -1.6133  0.3052
   28CHL1  H21B 2052   5.246   2.134   9.237 -3.1273 -1.3251  1.4420
   28CHL1  H21C 2053   5.112   2.251   9.195  1.3475  0.2382 -0.0382
   28CHL1   C22 2054   5.004   2.093   8.982  0.3995 -0.3618  0.3299
   28CHL1  H22A 2055   4.929   2.020   8.944  3.4434 -2.8545 -1.4432
   28CHL1  H22B 2056   4.967   2.198   8.982 -2.1773 -1.0445  4.2830
   28CHL1   C23 2057   5.105   2.072   8.866 -0.9084 -0.5666  0.6624
   28CHL1  H23A 2058   5.207   2.102   8.900  1.0612 -0.7100 -4.3145
   28CHL1  H23B 2059   5.110   1.964   8.840 -1.2429 -0.2672 -0.6969
   28CHL1   C24 2060   5.072   2.143   8.740 -0.7092  0.4570  0.0786
   28CHL1  H24A 2061   4.966   2.124   8.713 -0.4411 -2.0772  0.6419
   28CHL1  H24B 2062   5.071   2.252   8.763 -1.1259  0.2384  1.1531
   28CHL1   C25 2063   5.160   2.105   8.612  0.5406  0.8025 -0.5017
   28CHL1   H25 2064   5.135   1.997   8.609 -1.0692  1.1243  0.2214
   28CHL1   C26 2065   5.100   2.166   8.483 -0.2277  0.2619 -0.2586
   28CHL1  H26A 2066   5.001   2.117   8.469 -1.0403  1.3364  1.3433
   28CHL1  H26B 2067   5.091   2.277   8.483 -1.3547  0.1923 -0.8088
   28CHL1  H26C 2068   5.164   2.131   8.400  0.1849 -2.0829  0.9763
   28CHL1   C27 2069   5.307   2.140   8.640 -0.3270 -0.0803  0.1382
   28CHL1  H27A 2070   5.328   2.240   8.682  1.9304 -0.7202  0.7127
   28CHL1  H27B 2071   5.335   2.056   8.707 -3.5790 -0.8368  0.7231
   28CHL1  H27C 2072   5.371   2.125   8.550 -1.8783 -0.3478 -0.9763
   29CHL1    C3 2073   4.117   4.360   6.402 -0.0223 -0.1028 -0.3486
   29CHL1    H3 2074   4.010   4.389   6.412 -0.2063 -0.5325 -0.9857
   29CHL1    O3 2075   4.134   4.301   6.279 -0.3878  0.7187  0.2545
   29CHL1   H3' 2076   4.109   4.370   6.218  1.6660  0.3404 -1.1166
   29CHL1    C4 2077   4.218   4.472   6.417  0.7277 -0.6911 -0.1446
   29CHL1   H4A 2078   4.319   4.428   6.398  0.1793 -0.2968 -5.6731
   29CHL1   H4B 2079   4.214   4.552   6.340 -1.2719 -0.5540  0.0514
   29CHL1    C5 2080   4.214   4.542   6.558 -0.0544 -0.4989  0.1903
   29CHL1    C6 2081   4.199   4.674   6.576  0.3630  0.7540 -0.1740
   29CHL1    H6 2082   4.175   4.733   6.486  0.4089  1.9513  0.5741
   29CHL1    C7 2083   4.196   4.738   6.717  0.6661 -0.7442  0.3410
   29CHL1   H7A 2084   4.255   4.831   6.706  0.6667 -0.3976  2.7915
   29CHL1   H7B 2085   4.088   4.756   6.740  0.8728  0.8119  0.1438
   29CHL1    C8 2086   4.258   4.646   6.831 -0.0202  0.5200 -0.0005
   29CHL1    H8 2087   4.368   4.633   6.822 -0.0156 -2.4569  2.4610
   29CHL1   C14 2088   4.234   4.699   6.968  0.2851  0.0821 -0.3098
   29CHL1   H14 2089   4.124   4.713   6.970  0.1678 -0.8305  0.1180
   29CHL1   C15 2090   4.280   4.849   7.001  0.3991 -0.0460  0.3622
   29CHL1  H15A 2091   4.385   4.864   6.968  0.3510  1.8710  0.9998
   29CHL1  H15B 2092   4.203   4.920   6.964  1.0839 -0.5212 -2.2061
   29CHL1   C16 2093   4.280   4.856   7.155  0.2181  0.3222 -0.3162
   29CHL1  H16A 2094   4.374   4.891   7.204  0.3978 -1.0870  0.4145
   29CHL1  H16B 2095   4.195   4.919   7.189 -0.1457 -0.8375  1.0105
   29CHL1   C17 2096   4.244   4.706   7.201  0.1197 -0.3761 -0.0951
   29CHL1   H17 2097   4.133   4.701   7.195  0.1907 -0.7867 -1.3977
   29CHL1   C13 2098   4.276   4.611   7.089 -0.6130  0.0969  0.0200
   29CHL1   C18 2099   4.433   4.583   7.100  0.2760  0.1762 -0.3354
   29CHL1  H18A 2100   4.460   4.523   7.190 -1.3791  1.3364  0.9731
   29CHL1  H18B 2101   4.472   4.517   7.019 -2.6313 -1.1571 -0.7626
   29CHL1  H18C 2102   4.491   4.677   7.094 -0.7966  0.9940  1.3832
   29CHL1   C12 2103   4.198   4.483   7.073  0.1345 -0.0317  0.2440
   29CHL1  H12A 2104   4.218   4.401   7.146 -1.1944 -0.7372 -0.1285
   29CHL1  H12B 2105   4.091   4.513   7.082 -0.4212 -1.6047 -0.6458
   29CHL1   C11 2106   4.220   4.410   6.938 -0.1038  0.2305  0.2564
   29CHL1  H11A 2107   4.329   4.387   6.933 -0.5720 -2.2194  0.3676
   29CHL1  H11B 2108   4.150   4.325   6.924 -1.4847  1.5276 -1.2032
   29CHL1    C9 2109   4.190   4.506   6.815  0.0310  0.3306  0.6409
   29CHL1    H9 2110   4.080   4.522   6.823  0.1470  0.6085  2.0132
   29CHL1   C10 2111   4.227   4.443   6.678  0.5554 -0.0302 -0.3201
   29CHL1   C19 2112   4.374   4.395   6.681 -0.3503 -0.8272 -0.5022
   29CHL1  H19A 2113   4.393   4.325   6.766  0.2425 -0.4727 -0.3346
   29CHL1  H19B 2114   4.406   4.363   6.580 -0.3023  1.0374 -1.1156
   29CHL1  H19C 2115   4.440   4.481   6.706 -0.2223 -0.8869 -0.6298
   29CHL1    C1 2116   4.128   4.323   6.657 -0.7010  0.4444 -0.4816
   29CHL1   H1A 2117   4.156   4.242   6.728 -1.8214 -0.1017 -0.6400
   29CHL1   H1B 2118   4.021   4.352   6.659 -0.8019  0.2299 -2.0563
   29CHL1    C2 2119   4.142   4.256   6.509 -0.1988  0.0446 -0.3584
   29CHL1   H2A 2120   4.071   4.171   6.500  1.4273 -1.4569  0.3549
   29CHL1   H2B 2121   4.245   4.214   6.497  0.5487  1.1531  1.7571
   29CHL1   C20 2122   4.277   4.682   7.353 -0.0776 -0.6061  0.0773
   29CHL1   H20 2123   4.387   4.675   7.360  0.0700  0.0939 -1.2875
   29CHL1   C21 2124   4.210   4.554   7.405 -0.0892 -0.5750 -0.4238
   29CHL1  H21A 2125   4.279   4.472   7.376  0.3968 -0.2116 -0.2945
   29CHL1  H21B 2126   4.109   4.516   7.376  0.1465 -1.3362 -0.2792
   29CHL1  H21C 2127   4.213   4.547   7.516 -1.0366 -1.9461 -0.4517
   29CHL1   C22 2128   4.237   4.805   7.442  0.0324 -0.4047  0.6940
   29CHL1  H22A 2129   4.305   4.886   7.408 -0.5588 -0.1700  0.0419
   29CHL1  H22B 2130   4.128   4.820   7.423  0.8098  2.0308 -2.7868
   29CHL1   C23 2131   4.253   4.788   7.588 -0.6216 -0.8290  0.2276
   29CHL1  H23A 2132   4.239   4.893   7.621 -1.8002 -0.0858 -2.3446
   29CHL1  H23B 2133   4.175   4.724   7.634 -0.7119 -0.4929  0.5423
   29CHL1   C24 2134   4.391   4.746   7.644 -0.2618 -0.6217  0.5128
   29CHL1  H24A 2135   4.428   4.655   7.593  0.9777 -0.2853  0.7837
   29CHL1  H24B 2136   4.467   4.822   7.614  0.0880 -0.5855  1.4671
   29CHL1   C25 2137   4.389   4.721   7.794 -0.5328 -0.1581  0.1948
   29CHL1   H25 2138   4.322   4.633   7.805 -0.2557 -0.3970 -0.0017
   29CHL1   C26 2139   4.527   4.678   7.838  0.1870 -0.0607 -0.2990
   29CHL1  H26A 2140   4.535   4.655   7.946  3.0203 -1.8250 -0.7793
   29CHL1  H26B 2141   4.573   4.599   7.774 -2.0488 -0.6440 -1.2818
   29CHL1  H26C 2142   4.599   4.759   7.815  1.0545 -0.7942 -0.2259
   29CHL1   C27 2143   4.348   4.847   7.873 -0.8141 -0.0229  0.6326
   29CHL1  H27A 2144   4.368   4.834   7.981 -2.2019  1.4050  1.1021
   29CHL1  H27B 2145   4.418   4.925   7.836  0.8509 -1.8487 -0.1952
   29CHL1  H27C 2146   4.240   4.869   7.861 -1.0352 -1.5587 -0.4559
   30CHL1    C3 2147   2.653   4.890   6.975 -0.0046  0.1864 -0.3142
   30CHL1    H3 2148   2.735   4.965   6.970  1.4957 -1.3271  0.7039
   30CHL1    O3 2149   2.604   4.873   6.844  0.3256 -0.7519 -0.9347
   30CHL1   H3' 2150   2.519   4.827   6.848  0.1984 -0.7724 -3.0918
   30CHL1    C4 2151   2.716   4.758   7.020 -0.4155  0.1482  0.3402
   30CHL1   H4A 2152   2.647   4.672   7.010  0.3035 -0.2892 -1.1442
   30CHL1   H4B 2153   2.801   4.722   6.958  0.4183  1.9033  0.3951
   30CHL1    C5 2154   2.759   4.773   7.166 -0.7587 -0.4361  0.2483
   30CHL1    C6 2155   2.889   4.766   7.194  0.2701 -0.6462 -0.5724
   30CHL1    H6 2156   2.959   4.751   7.110  1.7575  0.7705  0.3546
   30CHL1    C7 2157   2.945   4.772   7.329  0.8246  0.0776  0.9722
   30CHL1   H7A 2158   3.021   4.697   7.360 -1.5706 -1.5693  3.3468
   30CHL1   H7B 2159   2.985   4.875   7.341 -0.2522  0.7365 -0.8754
   30CHL1    C8 2160   2.833   4.750   7.434  0.2221 -0.8891  0.1606
   30CHL1    H8 2161   2.813   4.641   7.426 -2.8816 -0.3529 -0.7928
   30CHL1   C14 2162   2.889   4.783   7.571 -0.3442 -0.2701 -0.4687
   30CHL1   H14 2163   2.910   4.891   7.588 -0.9792 -0.4541  1.9019
   30CHL1   C15 2164   3.021   4.718   7.608 -0.7492  0.2252 -0.1102
   30CHL1  H15A 2165   3.022   4.608   7.589  0.4799  0.1188  0.4295
   30CHL1  H15B 2166   3.099   4.764   7.543 -1.3873  0.6616 -0.5686
   30CHL1   C16 2167   3.025   4.749   7.763 -0.2586 -0.1854 -0.5090
   30CHL1  H16A 2168   3.053   4.650   7.805  1.1694  0.0401 -0.8946
   30CHL1  H16B 2169   3.105   4.823   7.782 -0.4034  0.2817 -1.6835
   30CHL1   C17 2170   2.885   4.785   7.809 -0.0349  0.0577 -0.2223
   30CHL1   H17 2171   2.893   4.895   7.817 -0.2255 -0.0413  2.2232
   30CHL1   C13 2172   2.784   4.754   7.690 -0.8896  0.0925  0.1081
   30CHL1   C18 2173   2.755   4.599   7.692 -0.2628  0.2236  0.4520
   30CHL1  H18A 2174   2.852   4.548   7.710  0.8234  0.9956 -2.5985
   30CHL1  H18B 2175   2.676   4.575   7.767 -1.3529 -2.4625 -1.4145
   30CHL1  H18C 2176   2.710   4.559   7.599  0.6055  0.5038 -0.0991
   30CHL1   C12 2177   2.668   4.842   7.677  0.4204  0.0671  1.1814
   30CHL1  H12A 2178   2.592   4.820   7.755  2.2247  0.9695  3.3214
   30CHL1  H12B 2179   2.705   4.947   7.680  0.1904  0.1731  0.3943
   30CHL1   C11 2180   2.608   4.828   7.532 -0.4194  0.2914  0.9288
   30CHL1  H11A 2181   2.549   4.734   7.527  0.4348 -0.2002 -0.4925
   30CHL1  H11B 2182   2.533   4.910   7.529 -0.2126  0.6301  2.9433
   30CHL1    C9 2183   2.712   4.836   7.410  0.2975 -0.3523 -0.5892
   30CHL1    H9 2184   2.748   4.939   7.390  1.1603 -0.7140 -0.9387
   30CHL1   C10 2185   2.649   4.801   7.269  0.4723 -0.0955 -0.4971
   30CHL1   C19 2186   2.552   4.676   7.283  0.6492 -0.0273  0.6401
   30CHL1  H19A 2187   2.509   4.650   7.184  0.3865 -0.4322  0.8537
   30CHL1  H19B 2188   2.602   4.587   7.326 -2.0953 -1.2228  1.5911
   30CHL1  H19C 2189   2.471   4.712   7.350  2.2472  2.8787  1.1759
   30CHL1    C1 2190   2.568   4.918   7.217 -0.7277 -0.3754  0.0184
   30CHL1   H1A 2191   2.482   4.938   7.284 -1.4557  2.6044 -1.6381
   30CHL1   H1B 2192   2.634   5.005   7.237 -1.0224 -0.0907 -0.2420
   30CHL1    C2 2193   2.533   4.924   7.063  0.3377  0.1905  0.1217
   30CHL1   H2A 2194   2.495   5.023   7.030  1.1448  0.1001 -1.1272
   30CHL1   H2B 2195   2.457   4.843   7.056 -0.4214  0.6666  2.0946
   30CHL1   C20 2196   2.845   4.728   7.948  0.0928 -0.1169  1.0691
   30CHL1   H20 2197   2.832   4.619   7.939  0.6167 -0.0603 -1.0016
   30CHL1   C21 2198   2.708   4.774   7.990  0.6516  0.2946 -0.1189
   30CHL1  H21A 2199   2.694   4.884   7.986  2.0393  0.5117  0.3821
   30CHL1  H21B 2200   2.693   4.762   8.099 -0.0980  0.0100 -0.2518
   30CHL1  H21C 2201   2.629   4.717   7.937 -0.4486  0.3870  1.3501
   30CHL1   C22 2202   2.947   4.758   8.054  0.2813  0.4776 -0.8991
   30CHL1  H22A 2203   2.903   4.715   8.146 -3.1873 -1.3233 -3.1907
   30CHL1  H22B 2204   3.037   4.697   8.034  1.0549  1.0571  0.6280
   30CHL1   C23 2205   2.982   4.901   8.094 -0.0566 -0.0853 -0.2038
   30CHL1  H23A 2206   3.053   4.933   8.014 -1.4520 -1.7825 -2.2354
   30CHL1  H23B 2207   2.895   4.968   8.076  0.7960  0.8415 -1.0711
   30CHL1   C24 2208   3.037   4.907   8.234  0.0856 -0.4089  0.1543
   30CHL1  H24A 2209   2.972   4.919   8.323  2.2085  0.2546  1.6995
   30CHL1  H24B 2210   3.104   4.818   8.238  2.3270  1.2333  0.5830
   30CHL1   C25 2211   3.152   5.015   8.243  0.1796 -0.0509 -0.3085
   30CHL1   H25 2212   3.235   4.981   8.178  0.9811  0.3678  0.4781
   30CHL1   C26 2213   3.129   5.164   8.199  0.1147  0.2968  0.0041
   30CHL1  H26A 2214   3.229   5.209   8.218 -0.2775  0.6034  1.4563
   30CHL1  H26B 2215   3.103   5.180   8.092  0.0523 -1.5495 -0.2805
   30CHL1  H26C 2216   3.050   5.208   8.264  1.9753  0.1447  2.4932
   30CHL1   C27 2217   3.204   5.008   8.388  0.4689 -0.7738  0.7640
   30CHL1  H27A 2218   3.235   4.908   8.426 -0.0762 -0.9454  0.7645
   30CHL1  H27B 2219   3.293   5.070   8.415  0.1161 -0.7453  1.9065
   30CHL1  H27C 2220   3.117   5.034   8.451 -0.9562  0.4919 -1.5821
   31CHL1    C3 2221   1.348   0.036   6.910 -0.3351 -0.6462 -0.0311
   31CHL1    H3 2222   1.268   0.112   6.918  0.8431  1.0468 -2.7194
   31CHL1    O3 2223   1.357   0.005   6.773  0.3659  0.1533 -0.4017
   31CHL1   H3' 2224   1.395   0.085   6.737  1.2917 -1.2630 -2.7779
   31CHL1    C4 2225   1.485   0.091   6.958 -1.0364 -0.1979  1.0329
   31CHL1   H4A 2226   1.553   0.007   6.933  0.5063  1.1327  0.5902
   31CHL1   H4B 2227   1.516   0.171   6.888  0.7376 -2.9054 -1.5278
   31CHL1    C5 2228   1.500   0.117   7.100  0.1010 -0.4965 -0.4540
   31CHL1    C6 2229   1.523   0.240   7.148  0.1845  0.0858 -0.1817
   31CHL1    H6 2230   1.550   0.322   7.081  0.0902  0.2803  0.0159
   31CHL1    C7 2231   1.529   0.276   7.297  0.4071 -0.0729  0.3970
   31CHL1   H7A 2232   1.616   0.341   7.321  1.6816 -1.9629  1.1922
   31CHL1   H7B 2233   1.437   0.335   7.318 -0.6223 -1.0480 -1.1434
   31CHL1    C8 2234   1.534   0.154   7.383 -0.1370 -0.2174  0.6588
   31CHL1    H8 2235   1.639   0.116   7.376 -0.5795 -1.5412  0.9964
   31CHL1   C14 2236   1.525   0.196   7.534  0.3575 -0.5823  0.5389
   31CHL1   H14 2237   1.426   0.243   7.552 -0.0337 -0.1660 -2.2824
   31CHL1   C15 2238   1.634   0.293   7.589 -0.1717  0.7468  0.1740
   31CHL1  H15A 2239   1.729   0.254   7.546 -0.2173 -0.4305  1.0877
   31CHL1  H15B 2240   1.625   0.398   7.554  1.1333  1.1611  0.9986
   31CHL1   C16 2241   1.624   0.274   7.739 -0.1694 -0.5122  0.0635
   31CHL1  H16A 2242   1.725   0.252   7.781 -0.4262 -0.0298  0.9581
   31CHL1  H16B 2243   1.580   0.369   7.775  1.0799 -0.6980  2.2304
   31CHL1   C17 2244   1.532   0.153   7.768 -0.4823 -0.2405  0.6564
   31CHL1   H17 2245   1.437   0.204   7.793  0.7243  1.2525  2.4260
   31CHL1   C13 2246   1.526   0.078   7.630 -0.2150 -0.1925  0.4527
   31CHL1   C18 2247   1.652  -0.009   7.630  0.6876  0.0259  0.3337
   31CHL1  H18A 2248   1.649  -0.103   7.690 -1.1263  0.5743  1.1637
   31CHL1  H18B 2249   1.686  -0.037   7.528  0.4615  0.8300  0.0321
   31CHL1  H18C 2250   1.740   0.047   7.667  2.5603  0.6413 -4.3529
   31CHL1   C12 2251   1.394   0.002   7.604  0.5421 -0.2081 -0.4495
   31CHL1  H12A 2252   1.404  -0.090   7.664  1.1265  1.1191  1.5763
   31CHL1  H12B 2253   1.301   0.059   7.627  1.5537  0.9785  0.8382
   31CHL1   C11 2254   1.403  -0.058   7.457  0.0552 -0.3032  0.8488
   31CHL1  H11A 2255   1.484  -0.134   7.461  0.8016  0.4915  1.3871
   31CHL1  H11B 2256   1.310  -0.113   7.433  0.8571 -1.1835 -0.3404
   31CHL1    C9 2257   1.432   0.052   7.343  0.7837  0.0109  0.2503
   31CHL1    H9 2258   1.340   0.115   7.336  1.5473  1.1419  0.2266
   31CHL1   C10 2259   1.457   0.006   7.195 -1.1662 -0.2546  0.3316
   31CHL1   C19 2260   1.575  -0.107   7.203  0.3101 -0.0412 -0.0775
   31CHL1  H19A 2261   1.615  -0.131   7.102  1.4651  0.7271  0.1935
   31CHL1  H19B 2262   1.665  -0.074   7.259  0.9863 -0.8048 -0.6939
   31CHL1  H19C 2263   1.549  -0.204   7.252  0.3381 -0.0523 -0.0834
   31CHL1    C1 2264   1.322  -0.049   7.137 -0.3124  0.5656  0.8233
   31CHL1   H1A 2265   1.288  -0.129   7.205  3.2505 -1.0513  0.9222
   31CHL1   H1B 2266   1.244   0.029   7.147 -1.1232 -0.1623  0.3715
   31CHL1    C2 2267   1.314  -0.094   6.990  0.4319 -0.5965  0.6168
   31CHL1   H2A 2268   1.214  -0.134   6.960 -0.1600  1.0708  0.2363
   31CHL1   H2B 2269   1.381  -0.179   6.967 -0.3024 -0.9705 -0.2492
   31CHL1   C20 2270   1.579   0.083   7.893  0.1257  0.4567 -0.4923
   31CHL1   H20 2271   1.679   0.036   7.885 -1.0952 -2.1049 -1.5047
   31CHL1   C21 2272   1.490  -0.036   7.934 -0.2315 -0.2521  0.3333
   31CHL1  H21A 2273   1.531  -0.097   8.018 -1.6207  0.4788  1.5724
   31CHL1  H21B 2274   1.485  -0.108   7.849 -0.9256 -2.0337  1.8220
   31CHL1  H21C 2275   1.385  -0.003   7.940 -0.7892 -1.3689 -2.0692
   31CHL1   C22 2276   1.592   0.181   8.007 -0.7000  0.0750 -1.0211
   31CHL1  H22A 2277   1.688   0.234   7.991  0.9039 -1.5660  2.1283
   31CHL1  H22B 2278   1.511   0.257   8.009 -1.5034 -0.7748 -0.0064
   31CHL1   C23 2279   1.601   0.113   8.138  0.3771  0.8983 -0.2626
   31CHL1  H23A 2280   1.509   0.058   8.166  1.1296  1.2279  3.3229
   31CHL1  H23B 2281   1.692   0.049   8.142 -0.2042 -0.0034 -0.9759
   31CHL1   C24 2282   1.627   0.223   8.240 -0.0062  0.4032 -0.8425
   31CHL1  H24A 2283   1.726   0.269   8.216  0.6102 -0.1691  0.5489
   31CHL1  H24B 2284   1.541   0.293   8.240 -1.6634 -1.5382 -1.0087
   31CHL1   C25 2285   1.649   0.174   8.386  0.5817  1.1993 -0.9503
   31CHL1   H25 2286   1.716   0.085   8.387  0.3195  1.0073 -0.1176
   31CHL1   C26 2287   1.704   0.285   8.481  0.5269 -0.3959 -0.3224
   31CHL1  H26A 2288   1.758   0.363   8.424 -0.6333  1.4803  1.0422
   31CHL1  H26B 2289   1.613   0.328   8.528 -1.9385 -1.5147 -3.7279
   31CHL1  H26C 2290   1.784   0.259   8.554  0.8988  1.0730 -0.1686
   31CHL1   C27 2291   1.509   0.122   8.440  0.2137 -0.3594  0.6000
   31CHL1  H27A 2292   1.457   0.049   8.375 -3.2158  0.8316  1.7626
   31CHL1  H27B 2293   1.435   0.205   8.446 -0.6112 -1.1296  1.4016
   31CHL1  H27C 2294   1.522   0.086   8.544  1.7353 -1.6205  0.0010
   32CHL1    C3 2295   2.806   5.378   6.907  0.0419  0.0345 -0.2392
   32CHL1    H3 2296   2.906   5.411   6.942  0.3974  0.3896 -1.5295
   32CHL1    O3 2297   2.798   5.367   6.766 -0.2496  0.1807  0.1585
   32CHL1   H3' 2298   2.706   5.364   6.740  0.6397 -0.6227 -3.4799
   32CHL1    C4 2299   2.789   5.248   6.978  0.1905 -0.7341 -0.9119
   32CHL1   H4A 2300   2.690   5.204   6.953 -1.3559 -1.1698  4.6039
   32CHL1   H4B 2301   2.859   5.171   6.940  0.2398 -0.8844 -0.5265
   32CHL1    C5 2302   2.798   5.254   7.131 -0.6498 -0.1752 -0.1447
   32CHL1    C6 2303   2.895   5.187   7.200  0.0828  0.5717 -0.9824
   32CHL1    H6 2304   2.957   5.110   7.151  2.3927 -1.5228  4.4732
   32CHL1    C7 2305   2.913   5.196   7.347 -0.0150  0.6278 -0.8126
   32CHL1   H7A 2306   2.912   5.095   7.394  0.4868  0.0453 -1.9832
   32CHL1   H7B 2307   3.010   5.241   7.376  0.0952 -0.5904  0.8589
   32CHL1    C8 2308   2.789   5.259   7.407  0.5358 -0.2410  0.7476
   32CHL1    H8 2309   2.716   5.175   7.413  0.9177 -0.5913  0.5992
   32CHL1   C14 2310   2.824   5.303   7.550 -0.8077 -0.3442  0.1893
   32CHL1   H14 2311   2.886   5.394   7.537 -1.9021  0.2736 -0.8904
   32CHL1   C15 2312   2.908   5.211   7.642 -0.2052 -0.1741  0.1929
   32CHL1  H15A 2313   2.876   5.106   7.632  0.4164 -0.4678  1.1593
   32CHL1  H15B 2314   3.017   5.212   7.622  0.2910 -0.8603  2.5486
   32CHL1   C16 2315   2.876   5.242   7.782  0.2568 -0.5852  0.0564
   32CHL1  H16A 2316   2.826   5.153   7.826 -1.5244  0.5990  0.5045
   32CHL1  H16B 2317   2.961   5.269   7.848 -0.0218 -0.6301  0.4335
   32CHL1   C17 2318   2.771   5.359   7.774 -0.6440  0.6568  0.2260
   32CHL1   H17 2319   2.825   5.455   7.757  1.2039 -0.3603  0.0621
   32CHL1   C13 2320   2.703   5.339   7.641  0.6142 -0.3520  0.1523
   32CHL1   C18 2321   2.588   5.228   7.653 -0.2679 -0.5288  0.1533
   32CHL1  H18A 2322   2.550   5.189   7.556 -3.1082  1.3126  0.4154
   32CHL1  H18B 2323   2.606   5.144   7.724  1.4938  0.3328  0.7902
   32CHL1  H18C 2324   2.496   5.278   7.689 -0.7832 -2.1104  1.1675
   32CHL1   C12 2325   2.641   5.461   7.565 -1.1094 -0.3495  0.4624
   32CHL1  H12A 2326   2.548   5.490   7.619 -0.4224  1.0141  0.9408
   32CHL1  H12B 2327   2.708   5.549   7.568 -0.7703 -0.5531 -0.5384
   32CHL1   C11 2328   2.608   5.432   7.414 -0.4607 -0.5561  0.0239
   32CHL1  H11A 2329   2.529   5.354   7.412 -0.7415 -0.2709 -0.1242
   32CHL1  H11B 2330   2.572   5.528   7.370 -0.3256 -0.2963  0.4726
   32CHL1    C9 2331   2.726   5.380   7.332 -0.6019  1.0070  0.7819
   32CHL1    H9 2332   2.804   5.457   7.349  1.1337 -0.7575  1.1787
   32CHL1   C10 2333   2.697   5.355   7.183  0.0884  0.2431  0.2180
   32CHL1   C19 2334   2.560   5.290   7.167  0.8771 -0.6359 -0.1352
   32CHL1  H19A 2335   2.480   5.350   7.215 -0.7308 -1.8621 -1.2043
   32CHL1  H19B 2336   2.538   5.279   7.059  4.1874 -0.9461 -0.9070
   32CHL1  H19C 2337   2.561   5.191   7.217 -0.7163  0.1117  1.4536
   32CHL1    C1 2338   2.708   5.494   7.107  0.3382  0.7095  0.6235
   32CHL1   H1A 2339   2.622   5.552   7.149  0.5727  1.5256 -0.0120
   32CHL1   H1B 2340   2.796   5.557   7.128  0.6031  0.3152  0.6980
   32CHL1    C2 2341   2.701   5.483   6.952  0.0759 -0.2995 -0.1766
   32CHL1   H2A 2342   2.729   5.581   6.908  3.2442 -1.1421 -0.2915
   32CHL1   H2B 2343   2.605   5.447   6.910 -0.0802  0.1943 -0.2584
   32CHL1   C20 2344   2.686   5.370   7.902 -0.1772  0.4872  0.2651
   32CHL1   H20 2345   2.620   5.281   7.909  3.3617 -2.4162 -0.0280
   32CHL1   C21 2346   2.600   5.503   7.882 -0.5097 -0.0555  0.4532
   32CHL1  H21A 2347   2.663   5.586   7.843 -1.5086  0.1462 -0.8101
   32CHL1  H21B 2348   2.549   5.543   7.971 -2.1322  0.9501 -0.8730
   32CHL1  H21C 2349   2.529   5.467   7.804  0.1024 -2.0068  0.7532
   32CHL1   C22 2350   2.776   5.367   8.022  0.2682 -0.5028 -0.0591
   32CHL1  H22A 2351   2.808   5.260   8.026 -1.8123 -1.1971 -0.5995
   32CHL1  H22B 2352   2.859   5.439   8.010 -0.0106 -0.0294  0.7694
   32CHL1   C23 2353   2.710   5.397   8.158 -0.8463 -0.1746 -0.5315
   32CHL1  H23A 2354   2.786   5.454   8.216  0.5575 -1.5088 -0.9981
   32CHL1  H23B 2355   2.622   5.464   8.153 -2.0160 -1.6914 -0.6596
   32CHL1   C24 2356   2.651   5.283   8.238  0.3149  0.6775  0.5500
   32CHL1  H24A 2357   2.617   5.211   8.162  2.1349  0.4612 -0.1132
   32CHL1  H24B 2358   2.720   5.218   8.295 -0.4534 -0.9651 -0.3245
   32CHL1   C25 2359   2.526   5.309   8.327  0.6293 -0.3908  0.3906
   32CHL1   H25 2360   2.516   5.214   8.384 -0.1173  0.0527  1.0258
   32CHL1   C26 2361   2.545   5.429   8.422 -0.4321 -0.5116 -0.5242
   32CHL1  H26A 2362   2.453   5.423   8.483 -0.3963  1.9429 -0.1214
   32CHL1  H26B 2363   2.637   5.418   8.483 -1.0672  0.4753  0.6556
   32CHL1  H26C 2364   2.537   5.527   8.370  2.7128  1.0978  1.7047
   32CHL1   C27 2365   2.401   5.339   8.240 -0.2883 -0.1529 -0.6470
   32CHL1  H27A 2366   2.402   5.273   8.150 -1.7064 -3.2323  1.4179
   32CHL1  H27B 2367   2.306   5.317   8.293  0.5730 -1.8142  0.3230
   32CHL1  H27C 2368   2.400   5.446   8.210  0.0976  0.4788  1.4212
   33CHL1    C3 2369   4.089   3.400   6.485  0.2035 -0.0208 -0.0012
   33CHL1    H3 2370   3.980   3.391   6.466  0.1010 -0.4067  0.7568
   33CHL1    O3 2371   4.157   3.381   6.367  0.1943  0.0912 -0.1613
   33CHL1   H3' 2372   4.118   3.305   6.323  2.5416 -0.0115 -2.2826
   33CHL1    C4 2373   4.120   3.543   6.538  0.1047 -0.8763 -0.6401
   33CHL1   H4A 2374   4.228   3.567   6.545  0.1933 -1.2076 -0.8144
   33CHL1   H4B 2375   4.086   3.618   6.463  1.5076 -1.1068 -1.5661
   33CHL1    C5 2376   4.086   3.589   6.679 -0.7196  1.1560 -0.2944
   33CHL1    C6 2377   4.007   3.694   6.706  0.5052 -0.4177 -0.2347
   33CHL1    H6 2378   3.982   3.770   6.631 -0.0779 -3.0980 -2.9271
   33CHL1    C7 2379   3.961   3.727   6.852 -0.0672  0.1662  0.5807
   33CHL1   H7A 2380   3.981   3.835   6.867  1.5104 -0.0712  0.3042
   33CHL1   H7B 2381   3.857   3.688   6.865  0.5762 -1.5376  0.8452
   33CHL1    C8 2382   4.044   3.653   6.958  0.9754 -0.3816  0.7595
   33CHL1    H8 2383   4.142   3.705   6.968 -0.6240  2.7906  1.2688
   33CHL1   C14 2384   3.978   3.657   7.097 -0.5306 -0.7553  0.2718
   33CHL1   H14 2385   3.877   3.613   7.076 -0.1984 -1.1334 -0.6034
   33CHL1   C15 2386   3.946   3.796   7.151 -0.2061  0.3611  0.1832
   33CHL1  H15A 2387   4.032   3.867   7.144  0.4034 -0.1779  1.7376
   33CHL1  H15B 2388   3.861   3.837   7.093  1.5010  0.4771 -2.3768
   33CHL1   C16 2389   3.904   3.764   7.297 -0.3969 -0.4076 -0.3084
   33CHL1  H16A 2390   3.970   3.832   7.355 -0.7461 -0.0773 -0.2942
   33CHL1  H16B 2391   3.797   3.788   7.317 -0.4382 -1.3858  0.7014
   33CHL1   C17 2392   3.940   3.609   7.322  0.4197 -0.6301  0.9935
   33CHL1   H17 2393   3.842   3.562   7.298  0.2807  0.4407 -0.7267
   33CHL1   C13 2394   4.041   3.576   7.210 -0.1641 -0.3573  0.7824
   33CHL1   C18 2395   4.180   3.630   7.244 -0.3837  0.2986 -0.0573
   33CHL1  H18A 2396   4.253   3.626   7.161  1.1872  1.0691  1.2432
   33CHL1  H18B 2397   4.187   3.735   7.280  0.8877  0.9613 -2.1034
   33CHL1  H18C 2398   4.221   3.572   7.330  0.3648 -0.8814 -1.1714
   33CHL1   C12 2399   4.053   3.430   7.164  0.1564  0.6132 -0.5057
   33CHL1  H12A 2400   4.108   3.367   7.236 -0.0290  1.1951  0.1512
   33CHL1  H12B 2401   3.947   3.396   7.154  1.1992 -3.6935  1.0288
   33CHL1   C11 2402   4.130   3.426   7.035  0.4160 -0.6739  0.3099
   33CHL1  H11A 2403   4.233   3.466   7.043  0.6813 -1.2782 -0.1034
   33CHL1  H11B 2404   4.133   3.319   7.008 -0.1857 -0.6727  0.2167
   33CHL1    C9 2405   4.061   3.509   6.919  0.6142 -0.7276 -0.0016
   33CHL1    H9 2406   3.960   3.465   6.902  0.0938  0.3212  0.2928
   33CHL1   C10 2407   4.130   3.485   6.786  0.0032  0.2137 -0.4071
   33CHL1   C19 2408   4.294   3.494   6.799  0.2809 -0.0304  0.5787
   33CHL1  H19A 2409   4.355   3.442   6.723 -2.9620  1.6939 -3.6235
   33CHL1  H19B 2410   4.340   3.595   6.807  2.8393 -1.2751  4.4227
   33CHL1  H19C 2411   4.328   3.447   6.894  1.9002 -0.5750 -0.2449
   33CHL1    C1 2412   4.085   3.341   6.735 -0.7466 -0.2693 -0.1205
   33CHL1   H1A 2413   4.123   3.261   6.802 -1.9940 -2.1361 -1.5442
   33CHL1   H1B 2414   3.975   3.351   6.739 -0.7526 -0.3566 -0.0941
   33CHL1    C2 2415   4.139   3.307   6.589  0.2236 -0.0807 -0.5161
   33CHL1   H2A 2416   4.109   3.200   6.585  0.2181 -0.2080  1.7197
   33CHL1   H2B 2417   4.250   3.307   6.589  0.2445 -0.9335 -1.4430
   33CHL1   C20 2418   3.979   3.589   7.470  0.3108  0.4113  0.2976
   33CHL1   H20 2419   4.067   3.655   7.486 -1.0552  2.4995 -0.2902
   33CHL1   C21 2420   4.020   3.444   7.485  0.6596  0.4322 -0.2367
   33CHL1  H21A 2421   4.121   3.417   7.447  1.3468 -0.2719  1.8981
   33CHL1  H21B 2422   3.953   3.392   7.413  1.0056 -1.6007  0.8087
   33CHL1  H21C 2423   4.000   3.405   7.587  0.6617  0.6361 -0.1580
   33CHL1   C22 2424   3.863   3.626   7.566 -0.0625 -0.3405  0.0185
   33CHL1  H22A 2425   3.794   3.706   7.532 -1.1638 -1.5555 -0.6873
   33CHL1  H22B 2426   3.795   3.538   7.572  0.4076 -1.0917 -3.3431
   33CHL1   C23 2427   3.908   3.661   7.712  1.0776  0.7343  0.7750
   33CHL1  H23A 2428   3.809   3.678   7.760  0.2439 -0.1610 -0.5832
   33CHL1  H23B 2429   3.959   3.576   7.763 -0.7815 -0.1714  1.2194
   33CHL1   C24 2430   3.985   3.796   7.723  0.1106 -0.3793 -0.2492
   33CHL1  H24A 2431   4.066   3.801   7.647  0.4389  2.4371  0.1844
   33CHL1  H24B 2432   3.917   3.883   7.720  2.0706  1.4302  2.3968
   33CHL1   C25 2433   4.058   3.799   7.868 -0.2768  0.0638  0.8384
   33CHL1   H25 2434   4.122   3.708   7.877  1.6197  1.1438 -0.7822
   33CHL1   C26 2435   4.157   3.911   7.881 -0.0978  0.3682  0.5018
   33CHL1  H26A 2436   4.241   3.895   7.951  1.1473  1.4335 -0.6934
   33CHL1  H26B 2437   4.207   3.929   7.784 -1.8362 -2.1816 -0.9998
   33CHL1  H26C 2438   4.103   4.006   7.899  0.8895  1.0425 -0.0015
   33CHL1   C27 2439   3.958   3.796   7.984 -0.0250 -0.3785 -0.4340
   33CHL1  H27A 2440   4.015   3.802   8.079 -1.6463 -2.1991  0.7369
   33CHL1  H27B 2441   3.891   3.885   7.985  0.0536 -0.3217 -0.2452
   33CHL1  H27C 2442   3.893   3.706   7.989 -0.3502 -0.2014 -1.2474
   34CHL1    C3 2443   5.436   1.476   6.920 -0.3113 -0.6475  0.4501
   34CHL1    H3 2444   5.542   1.461   6.950 -0.2405 -0.4711  0.2939
   34CHL1    O3 2445   5.443   1.516   6.782  0.3615  0.3499  0.1167
   34CHL1   H3' 2446   5.354   1.506   6.748  0.4376 -1.7382  0.3953
   34CHL1    C4 2447   5.370   1.337   6.922 -0.7291  0.5841  0.3503
   34CHL1   H4A 2448   5.275   1.332   6.864  1.4082 -2.6922 -3.3333
   34CHL1   H4B 2449   5.435   1.266   6.866 -2.9170 -1.1861 -0.0615
   34CHL1    C5 2450   5.351   1.290   7.061  0.4812 -0.2181  0.1036
   34CHL1    C6 2451   5.410   1.178   7.103 -0.4073  1.0021 -0.8610
   34CHL1    H6 2452   5.475   1.126   7.031 -0.2082  0.0092  0.0143
   34CHL1    C7 2453   5.391   1.126   7.248  0.2296 -0.2863 -0.6097
   34CHL1   H7A 2454   5.367   1.017   7.242  0.6591 -0.4637  0.5694
   34CHL1   H7B 2455   5.491   1.125   7.297 -0.2138 -2.6754  0.4261
   34CHL1    C8 2456   5.283   1.201   7.326 -0.1697 -0.0289  0.3139
   34CHL1    H8 2457   5.187   1.161   7.287 -0.7784  3.1399 -1.8627
   34CHL1   C14 2458   5.281   1.171   7.480  0.4336 -0.4297 -0.5852
   34CHL1   H14 2459   5.373   1.215   7.523  0.3092 -2.0048  1.4836
   34CHL1   C15 2460   5.297   1.023   7.528  0.2028  0.4507 -0.4050
   34CHL1  H15A 2461   5.234   0.962   7.459  0.8031 -0.7070  0.0607
   34CHL1  H15B 2462   5.405   1.002   7.515  0.4653  0.9983  0.7607
   34CHL1   C16 2463   5.247   1.025   7.670  0.1525 -0.5920 -0.2667
   34CHL1  H16A 2464   5.151   0.971   7.681  0.3179 -1.2840 -1.9537
   34CHL1  H16B 2465   5.326   0.985   7.737  0.0570 -2.6897 -1.3436
   34CHL1   C17 2466   5.207   1.177   7.701 -0.0779  0.4517 -0.3934
   34CHL1   H17 2467   5.302   1.224   7.735  0.1988  0.6037 -1.3419
   34CHL1   C13 2468   5.171   1.237   7.563  0.1124  0.1839  0.3606
   34CHL1   C18 2469   5.038   1.184   7.520  0.3441 -0.5042  0.3537
   34CHL1  H18A 2470   5.034   1.175   7.409  4.2843 -1.2227  0.1201
   34CHL1  H18B 2471   5.023   1.081   7.560  0.0911 -0.2612  0.8996
   34CHL1  H18C 2472   4.956   1.250   7.553 -0.5232 -1.1222 -0.5247
   34CHL1   C12 2473   5.192   1.396   7.544  0.2119  1.1780  0.0527
   34CHL1  H12A 2474   5.103   1.445   7.591 -0.4229  0.5266 -0.4527
   34CHL1  H12B 2475   5.285   1.435   7.591 -0.0006  1.2797  0.4003
   34CHL1   C11 2476   5.186   1.429   7.393 -0.2823 -0.3974  0.7079
   34CHL1  H11A 2477   5.079   1.405   7.372 -0.7379 -0.5978  3.0391
   34CHL1  H11B 2478   5.202   1.539   7.390  0.2838 -0.4728  0.9240
   34CHL1    C9 2479   5.287   1.352   7.304 -0.2864 -0.1083 -0.8005
   34CHL1    H9 2480   5.382   1.391   7.346 -1.2627  2.2011 -0.6015
   34CHL1   C10 2481   5.281   1.392   7.154 -0.1111 -0.2744 -0.1617
   34CHL1   C19 2482   5.131   1.405   7.104  0.2629  0.4264  0.3630
   34CHL1  H19A 2483   5.116   1.422   6.996 -0.1593 -0.5244  0.2628
   34CHL1  H19B 2484   5.079   1.310   7.130  0.7172 -0.3077 -1.2776
   34CHL1  H19C 2485   5.073   1.487   7.152 -1.5314 -0.4320 -0.2626
   34CHL1    C1 2486   5.343   1.534   7.150 -0.4403 -0.0174  0.1823
   34CHL1   H1A 2487   5.275   1.601   7.206 -0.5845  0.2165 -0.2679
   34CHL1   H1B 2488   5.445   1.538   7.195 -0.0975  0.6629 -0.6420
   34CHL1    C2 2489   5.362   1.577   7.002  0.1999 -0.8310 -0.7923
   34CHL1   H2A 2490   5.403   1.679   7.011  0.8193 -0.7632 -3.5787
   34CHL1   H2B 2491   5.258   1.591   6.966 -0.5698 -1.7595  0.9153
   34CHL1   C20 2492   5.125   1.196   7.825 -0.0158  0.3987 -0.4812
   34CHL1   H20 2493   5.033   1.133   7.819  0.2068 -0.1103  0.9726
   34CHL1   C21 2494   5.075   1.341   7.844 -0.1628  0.3293 -0.6566
   34CHL1  H21A 2495   5.150   1.421   7.863  1.1669 -0.8150 -0.9456
   34CHL1  H21B 2496   5.001   1.346   7.928 -1.6881 -0.2714 -1.9094
   34CHL1  H21C 2497   5.008   1.372   7.761 -3.0795  0.4087  1.5512
   34CHL1   C22 2498   5.199   1.132   7.948  1.0342  0.2738  0.0417
   34CHL1  H22A 2499   5.187   1.022   7.936 -2.4420  0.4080  1.3580
   34CHL1  H22B 2500   5.305   1.167   7.947  0.7827  1.0945 -2.0236
   34CHL1   C23 2501   5.132   1.162   8.083 -0.1761 -0.2855 -0.3112
   34CHL1  H23A 2502   5.144   1.268   8.112  0.9435 -0.7067  0.8762
   34CHL1  H23B 2503   5.027   1.136   8.056 -0.0876  1.5599 -2.6871
   34CHL1   C24 2504   5.188   1.083   8.201  0.6090  0.8139 -0.5788
   34CHL1  H24A 2505   5.213   0.976   8.184  0.3873  0.9716 -1.9673
   34CHL1  H24B 2506   5.282   1.133   8.234 -0.5503  2.2618  0.7103
   34CHL1   C25 2507   5.096   1.081   8.325 -0.2356  0.9015  0.2531
   34CHL1   H25 2508   5.064   1.186   8.342 -0.0098  0.9587  0.3345
   34CHL1   C26 2509   4.979   0.983   8.302 -0.3014  1.0872 -0.3235
   34CHL1  H26A 2510   4.917   1.000   8.212  0.7809 -0.8119 -1.5051
   34CHL1  H26B 2511   5.006   0.877   8.279  1.3501  1.4482 -0.1953
   34CHL1  H26C 2512   4.915   0.988   8.393  1.3584  0.4453  0.9453
   34CHL1   C27 2513   5.181   1.028   8.440  0.6026  1.3079  0.4829
   34CHL1  H27A 2514   5.149   1.055   8.543  2.5098 -0.3662  1.6063
   34CHL1  H27B 2515   5.177   0.917   8.436  2.1511  1.2608 -0.9536
   34CHL1  H27C 2516   5.284   1.067   8.428  0.9006  0.3525 -0.2059
   35CHL1    C3 2517   2.450   3.587   7.119 -0.5218  0.9281  1.1591
   35CHL1    H3 2518   2.541   3.649   7.129  0.8306 -1.0170  1.6275
   35CHL1    O3 2519   2.457   3.498   7.012 -0.0802  0.3577  0.5519
   35CHL1   H3' 2520   2.366   3.468   7.006  0.4790 -1.2453 -0.6567
   35CHL1    C4 2521   2.443   3.504   7.251  0.4018  0.2629  0.4459
   35CHL1   H4A 2522   2.367   3.424   7.237  0.9464 -0.0099 -1.1742
   35CHL1   H4B 2523   2.538   3.446   7.256  0.4684  0.4148  1.0627
   35CHL1    C5 2524   2.415   3.579   7.375 -0.7493 -0.1959  0.4246
   35CHL1    C6 2525   2.487   3.574   7.480 -0.5392 -0.5802  0.7477
   35CHL1    H6 2526   2.569   3.501   7.485 -0.0623 -0.3003 -1.7898
   35CHL1    C7 2527   2.455   3.647   7.611 -1.0406  0.5482 -0.0488
   35CHL1   H7A 2528   2.471   3.583   7.700  1.5005  2.0814  0.6955
   35CHL1   H7B 2529   2.534   3.723   7.625  0.4106 -0.6982 -1.2038
   35CHL1    C8 2530   2.316   3.710   7.607  0.3358  0.0141 -0.8277
   35CHL1    H8 2531   2.237   3.639   7.640  0.5769 -0.6007 -1.5701
   35CHL1   C14 2532   2.314   3.815   7.716  0.7978 -0.4199  0.1181
   35CHL1   H14 2533   2.382   3.890   7.671 -0.9258  0.6840 -0.7903
   35CHL1   C15 2534   2.351   3.776   7.859  0.2620 -0.1506  0.7258
   35CHL1  H15A 2535   2.309   3.676   7.880 -1.2402  0.2640 -0.1339
   35CHL1  H15B 2536   2.460   3.761   7.866 -0.0241 -1.8008  2.6347
   35CHL1   C16 2537   2.298   3.887   7.945 -0.0876  0.3387  0.9637
   35CHL1  H16A 2538   2.231   3.838   8.020 -0.7138 -0.3763 -0.0389
   35CHL1  H16B 2539   2.383   3.939   7.994  1.1032 -2.3009  1.8835
   35CHL1   C17 2540   2.206   3.979   7.852  0.2512 -0.3153  0.0104
   35CHL1   H17 2541   2.268   4.066   7.822 -1.5972  0.5576 -1.5441
   35CHL1   C13 2542   2.176   3.890   7.729  0.0921  0.0059  0.0938
   35CHL1   C18 2543   2.059   3.795   7.766  0.2822  0.6673  0.2236
   35CHL1  H18A 2544   2.058   3.714   7.689 -1.1421  1.8482 -1.0585
   35CHL1  H18B 2545   2.085   3.733   7.855  1.7122 -2.4834 -2.1699
   35CHL1  H18C 2546   1.957   3.838   7.763  0.0767  0.1629 -0.1353
   35CHL1   C12 2547   2.148   3.963   7.596 -0.7669  0.2561  0.2599
   35CHL1  H12A 2548   2.049   4.013   7.602 -1.1282 -0.4437  0.2634
   35CHL1  H12B 2549   2.231   4.032   7.571 -1.7550  1.4767  0.2548
   35CHL1   C11 2550   2.150   3.861   7.475  0.0803  0.6392  0.2856
   35CHL1  H11A 2551   2.062   3.793   7.480  1.7269 -1.7794 -1.2450
   35CHL1  H11B 2552   2.136   3.918   7.381 -1.0597  0.3223  0.2521
   35CHL1    C9 2553   2.276   3.772   7.475  0.0172 -0.0808 -0.1493
   35CHL1    H9 2554   2.356   3.845   7.449 -0.4059  0.4557  0.0125
   35CHL1   C10 2555   2.285   3.666   7.365  0.8844  0.0541  0.0053
   35CHL1   C19 2556   2.169   3.570   7.381 -0.3284  0.5002  0.0190
   35CHL1  H19A 2557   2.073   3.626   7.382 -0.6296 -0.0106  0.6970
   35CHL1  H19B 2558   2.167   3.495   7.299 -1.8686  0.7634 -0.2209
   35CHL1  H19C 2559   2.177   3.513   7.476 -1.5184 -0.7119 -0.5790
   35CHL1    C1 2560   2.278   3.749   7.233 -0.0183 -0.4084 -0.3034
   35CHL1   H1A 2561   2.173   3.771   7.204  0.2946  0.5326 -0.7657
   35CHL1   H1B 2562   2.334   3.845   7.244  0.9468 -0.9271 -0.5164
   35CHL1    C2 2563   2.325   3.673   7.105 -0.9336 -0.6460 -0.0616
   35CHL1   H2A 2564   2.328   3.736   7.013  2.9884  1.2090  1.1461
   35CHL1   H2B 2565   2.248   3.594   7.089  0.3410 -1.5793 -2.1286
   35CHL1   C20 2566   2.084   4.038   7.930 -0.1355  0.1571 -0.1590
   35CHL1   H20 2567   2.021   3.956   7.969  1.0305 -1.0835 -0.7849
   35CHL1   C21 2568   2.009   4.134   7.841  0.1189  0.0685  0.7606
   35CHL1  H21A 2569   1.960   4.077   7.759  0.2991 -1.0246  1.3933
   35CHL1  H21B 2570   2.076   4.217   7.812  0.7455 -0.6066  0.2545
   35CHL1  H21C 2571   1.927   4.190   7.891 -1.1746 -1.4007  0.3846
   35CHL1   C22 2572   2.124   4.105   8.061 -0.0043  0.2862 -0.4287
   35CHL1  H22A 2573   2.029   4.127   8.115  0.3011 -3.5493  2.0578
   35CHL1  H22B 2574   2.168   4.022   8.121 -1.7275 -0.4588 -0.1399
   35CHL1   C23 2575   2.213   4.229   8.055 -0.2431  0.6611 -0.4144
   35CHL1  H23A 2576   2.307   4.203   8.000 -1.1876 -3.2380 -0.4309
   35CHL1  H23B 2577   2.166   4.317   8.006  0.8989  1.4237 -0.1897
   35CHL1   C24 2578   2.260   4.274   8.194 -0.1027 -0.3284 -0.3663
   35CHL1  H24A 2579   2.170   4.305   8.251 -1.7783 -2.0005 -1.9319
   35CHL1  H24B 2580   2.314   4.194   8.248  1.8905  0.1764 -1.5234
   35CHL1   C25 2581   2.365   4.380   8.196  0.1705 -0.7127 -0.0958
   35CHL1   H25 2582   2.317   4.452   8.125 -2.6308  2.1673  4.2379
   35CHL1   C26 2583   2.359   4.453   8.331 -0.3443 -0.9863  0.1072
   35CHL1  H26A 2584   2.397   4.557   8.323  0.3118 -1.3614 -2.1508
   35CHL1  H26B 2585   2.253   4.466   8.359 -0.5514  1.0092 -1.4539
   35CHL1  H26C 2586   2.420   4.383   8.394  2.6439 -0.4264 -1.9384
   35CHL1   C27 2587   2.502   4.317   8.161 -0.9035 -0.5175  0.3492
   35CHL1  H27A 2588   2.509   4.255   8.069  1.4091 -0.3511  0.3528
   35CHL1  H27B 2589   2.532   4.261   8.252  0.9607 -0.3494 -0.1131
   35CHL1  H27C 2590   2.576   4.398   8.148 -2.2153  0.5025 -1.0410
   36CHL1    C3 2591   2.895   2.012   6.515 -0.6226  0.0098 -0.1542
   36CHL1    H3 2592   2.822   2.093   6.494 -1.1230 -0.6604 -1.1211
   36CHL1    O3 2593   2.950   1.959   6.395 -0.6027  0.2764  0.2164
   36CHL1   H3' 2594   3.022   2.020   6.376 -0.0614 -0.1764  0.7963
   36CHL1    C4 2595   3.006   2.075   6.607 -0.1060  0.2330  0.0277
   36CHL1   H4A 2596   3.096   2.010   6.614  1.4361  2.3769  1.0759
   36CHL1   H4B 2597   3.050   2.158   6.549  0.5285 -0.7857 -0.9964
   36CHL1    C5 2598   2.956   2.102   6.744 -0.2110 -0.4496 -0.0238
   36CHL1    C6 2599   2.969   2.229   6.792  0.2325 -0.0182  0.4827
   36CHL1    H6 2600   3.029   2.303   6.737  1.0840  0.6737  2.2675
   36CHL1    C7 2601   2.947   2.256   6.936 -0.1282 -0.0539  1.0588
   36CHL1   H7A 2602   3.023   2.326   6.978  1.9398 -1.1999 -0.5840
   36CHL1   H7B 2603   2.856   2.317   6.955  0.7475  0.4159  4.3077
   36CHL1    C8 2604   2.914   2.128   7.020 -1.1610  1.0929 -0.2810
   36CHL1    H8 2605   3.011   2.079   7.041 -2.9754 -1.9357  1.8623
   36CHL1   C14 2606   2.835   2.162   7.142 -0.6136  0.5144  0.2590
   36CHL1   H14 2607   2.733   2.200   7.120 -1.1628 -0.5082  1.0138
   36CHL1   C15 2608   2.896   2.268   7.234  0.8499 -0.8307  0.3738
   36CHL1  H15A 2609   3.005   2.245   7.238  0.8954 -0.4614  2.2805
   36CHL1  H15B 2610   2.865   2.367   7.196 -0.5574 -1.2978  0.2558
   36CHL1   C16 2611   2.819   2.246   7.365  0.0457  0.5945 -0.4111
   36CHL1  H16A 2612   2.895   2.226   7.443 -1.5770 -1.8074  0.6821
   36CHL1  H16B 2613   2.755   2.331   7.397  2.2856  1.5955  1.6900
   36CHL1   C17 2614   2.738   2.113   7.357  0.4942 -0.3607 -0.3077
   36CHL1   H17 2615   2.637   2.148   7.327  1.5242  1.9975 -1.3102
   36CHL1   C13 2616   2.802   2.039   7.236 -0.9631 -0.7131  0.1304
   36CHL1   C18 2617   2.933   1.980   7.288 -0.1241 -0.5648  0.8006
   36CHL1  H18A 2618   2.982   2.054   7.355  1.2652 -0.4938 -0.2486
   36CHL1  H18B 2619   2.908   1.886   7.342 -0.4560 -0.4645  0.8250
   36CHL1  H18C 2620   3.010   1.959   7.211 -1.6396 -2.7983 -0.2390
   36CHL1   C12 2621   2.714   1.941   7.164 -0.4543  0.0062  0.5831
   36CHL1  H12A 2622   2.710   1.843   7.217  4.4215 -1.3569 -1.0338
   36CHL1  H12B 2623   2.613   1.982   7.140 -0.8254 -0.2669  1.6080
   36CHL1   C11 2624   2.788   1.901   7.037  0.5373  0.2454 -0.2442
   36CHL1  H11A 2625   2.868   1.828   7.064  0.3867  0.9042  2.2350
   36CHL1  H11B 2626   2.711   1.843   6.981 -2.8587  2.8979  1.2644
   36CHL1    C9 2627   2.824   2.018   6.951  0.1506  0.0325  0.5359
   36CHL1    H9 2628   2.735   2.080   6.927  0.8928  1.5183  1.5232
   36CHL1   C10 2629   2.878   1.981   6.810  0.0966  0.8834 -0.0741
   36CHL1   C19 2630   2.978   1.861   6.829  0.5379  0.1041  0.1939
   36CHL1  H19A 2631   3.045   1.852   6.741 -0.9652  2.9980 -1.4035
   36CHL1  H19B 2632   3.035   1.871   6.924  0.2458 -1.0257  0.4996
   36CHL1  H19C 2633   2.917   1.769   6.836 -0.9626  0.8688 -1.8486
   36CHL1    C1 2634   2.766   1.943   6.715  1.1828 -0.1355 -0.0716
   36CHL1   H1A 2635   2.713   1.854   6.755  0.4194  0.1703 -0.3662
   36CHL1   H1B 2636   2.693   2.025   6.696  0.8842 -0.7421 -1.6381
   36CHL1    C2 2637   2.833   1.895   6.581 -0.0950 -0.4465  0.2758
   36CHL1   H2A 2638   2.751   1.849   6.522 -0.7052 -0.1700  0.8904
   36CHL1   H2B 2639   2.900   1.807   6.593 -1.1566 -1.1481  1.2553
   36CHL1   C20 2640   2.723   2.042   7.496 -0.0467  0.7984 -0.4638
   36CHL1   H20 2641   2.818   2.015   7.548 -0.8241  2.3725  1.9362
   36CHL1   C21 2642   2.626   1.923   7.481 -0.2804 -1.0630 -0.2082
   36CHL1  H21A 2643   2.671   1.844   7.418  0.5878  1.1732 -2.5539
   36CHL1  H21B 2644   2.522   1.955   7.456  0.6692  1.2967 -1.3759
   36CHL1  H21C 2645   2.606   1.874   7.579 -0.6828  3.1329  2.0310
   36CHL1   C22 2646   2.665   2.127   7.606 -0.7925  0.0387 -0.8202
   36CHL1  H22A 2647   2.717   2.225   7.602 -1.4299  0.4405  0.4536
   36CHL1  H22B 2648   2.555   2.138   7.607 -0.9630 -1.3046 -1.6077
   36CHL1   C23 2649   2.705   2.071   7.751 -0.0435 -0.1647  0.2797
   36CHL1  H23A 2650   2.639   1.985   7.776 -0.1402  0.1239  1.0564
   36CHL1  H23B 2651   2.813   2.046   7.745  0.4021  1.6287  0.3275
   36CHL1   C24 2652   2.669   2.178   7.850  0.0100 -0.5712 -0.1193
   36CHL1  H24A 2653   2.735   2.266   7.834  0.2700 -0.7668 -0.1197
   36CHL1  H24B 2654   2.561   2.205   7.848  0.3039  1.0285  1.7934
   36CHL1   C25 2655   2.695   2.130   7.993 -0.3970  1.0567  0.2948
   36CHL1   H25 2656   2.782   2.061   7.993 -1.1416  0.0639 -1.2044
   36CHL1   C26 2657   2.730   2.244   8.088 -0.6839 -0.1689 -0.1281
   36CHL1  H26A 2658   2.815   2.304   8.050 -1.2828  0.6621 -0.1780
   36CHL1  H26B 2659   2.642   2.312   8.092 -1.3199 -1.0304  1.3508
   36CHL1  H26C 2660   2.750   2.196   8.187 -0.2154  1.5928  0.6788
   36CHL1   C27 2661   2.579   2.043   8.043  0.5101 -0.4796 -0.3528
   36CHL1  H27A 2662   2.578   2.027   8.153 -1.9181  1.9211  0.0839
   36CHL1  H27B 2663   2.479   2.089   8.028  0.0935 -0.9956  0.7456
   36CHL1  H27C 2664   2.582   1.945   7.991  0.9618 -0.4622 -0.3626
   37CHL1    C3 2665   4.424   3.998   6.571 -0.5294 -0.1201 -0.0529
   37CHL1    H3 2666   4.394   4.105   6.578 -1.4427 -0.3457 -0.4692
   37CHL1    O3 2667   4.437   3.970   6.433  0.5003 -0.4512 -0.0128
   37CHL1   H3' 2668   4.482   3.885   6.429 -0.9578 -1.2572  0.0996
   37CHL1    C4 2669   4.560   3.983   6.644 -0.4842 -0.0822 -0.2731
   37CHL1   H4A 2670   4.568   3.872   6.635 -2.2390 -0.2765  0.1078
   37CHL1   H4B 2671   4.644   4.032   6.591 -0.1074 -0.7490 -0.3139
   37CHL1    C5 2672   4.559   4.013   6.791  0.1974 -0.4463  0.2944
   37CHL1    C6 2673   4.636   4.118   6.833  0.0502 -0.1380 -0.3248
   37CHL1    H6 2674   4.708   4.158   6.760 -0.6107  0.3691 -0.7077
   37CHL1    C7 2675   4.643   4.174   6.971 -1.1545 -0.0510  0.8282
   37CHL1   H7A 2676   4.749   4.177   7.006 -0.8583  0.5242 -0.0905
   37CHL1   H7B 2677   4.605   4.278   6.970 -1.0671  0.0035 -1.3871
   37CHL1    C8 2678   4.559   4.087   7.065 -0.0242 -0.4755  0.2896
   37CHL1    H8 2679   4.618   4.000   7.103  0.0368 -0.8042 -0.5332
   37CHL1   C14 2680   4.527   4.156   7.192 -1.1657 -0.6996 -0.6572
   37CHL1   H14 2681   4.489   4.258   7.171 -1.6922 -0.7173  0.1447
   37CHL1   C15 2682   4.649   4.188   7.288  0.7863  0.3931 -0.2078
   37CHL1  H15A 2683   4.703   4.094   7.309 -0.7645 -0.0059  2.4246
   37CHL1  H15B 2684   4.717   4.272   7.260  0.6478  0.7995  0.6354
   37CHL1   C16 2685   4.581   4.229   7.418 -0.0844 -0.2764 -0.4753
   37CHL1  H16A 2686   4.635   4.180   7.501  0.8026 -1.4321 -1.6849
   37CHL1  H16B 2687   4.588   4.340   7.429 -0.0833 -0.4085  0.9472
   37CHL1   C17 2688   4.433   4.190   7.412  0.0788 -0.2784  0.4414
   37CHL1   H17 2689   4.395   4.284   7.366  0.7526 -0.3784 -0.3421
   37CHL1   C13 2690   4.428   4.088   7.289 -0.4114 -0.4790  0.0472
   37CHL1   C18 2691   4.492   3.956   7.335 -0.2252 -0.3739 -0.5056
   37CHL1  H18A 2692   4.549   3.899   7.259  2.5287  1.0495  0.3324
   37CHL1  H18B 2693   4.565   3.968   7.419 -1.2216  0.3404  0.2862
   37CHL1  H18C 2694   4.415   3.894   7.386 -1.9431  0.0110 -2.5299
   37CHL1   C12 2695   4.293   4.056   7.221  0.1608 -0.6703  0.7991
   37CHL1  H12A 2696   4.221   4.000   7.283 -0.7495 -0.5447 -0.1183
   37CHL1  H12B 2697   4.254   4.148   7.173 -0.1482 -2.3642 -2.5006
   37CHL1   C11 2698   4.317   3.977   7.093  0.4618 -0.2700 -0.2075
   37CHL1  H11A 2699   4.339   3.873   7.125 -1.8907 -0.2873  1.6927
   37CHL1  H11B 2700   4.223   3.976   7.034  0.3721 -0.0955 -0.0697
   37CHL1    C9 2701   4.423   4.037   6.999 -0.4787 -0.9679  0.2658
   37CHL1    H9 2702   4.385   4.131   6.952  3.1691 -0.5578 -2.2560
   37CHL1   C10 2703   4.447   3.949   6.870 -0.4476  0.2530 -0.0775
   37CHL1   C19 2704   4.480   3.800   6.902  0.0232  1.0029  0.0745
   37CHL1  H19A 2705   4.561   3.784   6.977  0.0373  0.5672 -0.0303
   37CHL1  H19B 2706   4.391   3.761   6.955 -0.5566 -0.0829 -1.6243
   37CHL1  H19C 2707   4.496   3.740   6.809 -0.1505 -0.1839  0.7939
   37CHL1    C1 2708   4.309   3.947   6.790  0.1741  0.2304  0.0102
   37CHL1   H1A 2709   4.236   3.885   6.846  2.5007 -1.8429  0.9032
   37CHL1   H1B 2710   4.274   4.052   6.796  0.4246  0.2320  1.9718
   37CHL1    C2 2711   4.325   3.905   6.643  0.8514 -0.1976  0.1994
   37CHL1   H2A 2712   4.231   3.902   6.585 -0.6593 -0.1513  2.5065
   37CHL1   H2B 2713   4.363   3.800   6.641 -1.7975 -1.2760  1.5014
   37CHL1   C20 2714   4.364   4.156   7.544 -0.3833  0.0163 -0.7274
   37CHL1   H20 2715   4.393   4.056   7.583 -2.4010  0.0082  0.9404
   37CHL1   C21 2716   4.215   4.153   7.515  0.0170  0.8387 -0.5028
   37CHL1  H21A 2717   4.143   4.152   7.600 -0.5054 -0.9013 -0.9225
   37CHL1  H21B 2718   4.191   4.056   7.464  1.9667  0.1181 -0.1171
   37CHL1  H21C 2719   4.200   4.240   7.448  1.1802  1.5075  0.0881
   37CHL1   C22 2720   4.386   4.265   7.657 -0.9372 -0.0060  0.1196
   37CHL1  H22A 2721   4.487   4.310   7.644 -0.3222 -1.6813 -1.2506
   37CHL1  H22B 2722   4.319   4.348   7.627 -1.9220 -0.9969 -0.4851
   37CHL1   C23 2723   4.369   4.204   7.793  0.2288  0.3898  0.1463
   37CHL1  H23A 2724   4.267   4.161   7.805  0.1756  0.8337  1.3985
   37CHL1  H23B 2725   4.438   4.117   7.801 -1.2045 -0.6688  1.5328
   37CHL1   C24 2726   4.377   4.303   7.902 -0.0988  0.2607 -0.4910
   37CHL1  H24A 2727   4.475   4.355   7.909  1.0546 -1.8031 -0.4622
   37CHL1  H24B 2728   4.295   4.377   7.887 -2.2124 -1.6971  0.7585
   37CHL1   C25 2729   4.365   4.253   8.049 -0.0866  0.8334 -0.0893
   37CHL1   H25 2730   4.399   4.329   8.123 -0.6151  3.5663 -2.5096
   37CHL1   C26 2731   4.214   4.229   8.084 -0.4505 -0.2672  0.5270
   37CHL1  H26A 2732   4.169   4.331   8.079  1.3753  0.5347 -0.5572
   37CHL1  H26B 2733   4.168   4.160   8.010 -1.4072  0.5704  0.3084
   37CHL1  H26C 2734   4.209   4.185   8.186 -2.5252  0.5148  0.8168
   37CHL1   C27 2735   4.452   4.128   8.082 -0.1298  0.0020  0.3287
   37CHL1  H27A 2736   4.560   4.150   8.069 -0.0234 -0.0640  1.0497
   37CHL1  H27B 2737   4.439   4.095   8.187 -0.9687  1.0631  0.5816
   37CHL1  H27C 2738   4.413   4.043   8.021 -0.3287  2.1055 -2.7411
   38CHL1    C3 2739   1.365   5.066   7.162 -0.2915  0.3680  0.3179
   38CHL1    H3 2740   1.340   4.958   7.172  1.8123 -0.4007 -1.7683
   38CHL1    O3 2741   1.380   5.081   7.018 -0.3083  0.0358  0.2006
   38CHL1   H3' 2742   1.296   5.049   6.986 -0.4185  0.0479  0.4763
   38CHL1    C4 2743   1.282   5.178   7.222 -0.7079 -0.1671 -1.0599
   38CHL1   H4A 2744   1.294   5.282   7.186 -1.2364 -0.0455 -0.8985
   38CHL1   H4B 2745   1.177   5.168   7.187 -0.7049  0.2288 -1.1875
   38CHL1    C5 2746   1.269   5.176   7.373  0.0742 -0.6381  0.7200
   38CHL1    C6 2747   1.152   5.161   7.433  0.0071  0.4642 -0.4275
   38CHL1    H6 2748   1.063   5.152   7.369  1.1377 -0.6676 -1.8944
   38CHL1    C7 2749   1.138   5.157   7.587  0.1722 -0.0697  0.2859
   38CHL1   H7A 2750   1.060   5.233   7.608  0.2138 -0.1563  0.7660
   38CHL1   H7B 2751   1.105   5.057   7.624 -0.8098  0.0434 -0.2763
   38CHL1    C8 2752   1.268   5.195   7.666  0.2059  0.7757 -0.1424
   38CHL1    H8 2753   1.282   5.305   7.661  2.7724  0.5124 -0.6251
   38CHL1   C14 2754   1.269   5.154   7.814  0.3915  0.6790  0.2765
   38CHL1   H14 2755   1.247   5.045   7.810 -0.3564  0.7992  0.8585
   38CHL1   C15 2756   1.157   5.207   7.902 -0.2573 -0.1354  0.0559
   38CHL1  H15A 2757   1.137   5.314   7.885 -0.2690 -0.2649 -0.7562
   38CHL1  H15B 2758   1.057   5.166   7.875 -0.2439  0.5074 -1.0208
   38CHL1   C16 2759   1.197   5.164   8.044 -0.1680 -0.1443  0.4790
   38CHL1  H16A 2760   1.174   5.248   8.113  3.1175  1.8903 -0.6497
   38CHL1  H16B 2761   1.141   5.078   8.086 -1.5838  0.5426  0.0678
   38CHL1   C17 2762   1.353   5.134   8.030  0.1912 -0.4211 -0.3750
   38CHL1   H17 2763   1.353   5.024   8.015 -0.2351 -0.5801  0.6674
   38CHL1   C13 2764   1.398   5.181   7.891  0.1352 -1.3263  0.4091
   38CHL1   C18 2765   1.425   5.337   7.889 -0.4503  0.3402  0.4527
   38CHL1  H18A 2766   1.373   5.400   7.963 -2.0409  1.0057 -1.1547
   38CHL1  H18B 2767   1.533   5.357   7.907  0.4439  0.4296 -3.7992
   38CHL1  H18C 2768   1.412   5.382   7.788  1.9008 -1.2849 -0.6844
   38CHL1   C12 2769   1.512   5.106   7.823 -0.2398  0.2478  0.0811
   38CHL1  H12A 2770   1.616   5.112   7.863 -0.3086  1.1869  0.1403
   38CHL1  H12B 2771   1.486   4.998   7.826 -0.6220  0.3355 -0.1121
   38CHL1   C11 2772   1.523   5.158   7.681 -0.2378  0.0476  0.2825
   38CHL1  H11A 2773   1.569   5.258   7.673 -0.2790  0.0240 -0.3476
   38CHL1  H11B 2774   1.598   5.090   7.634 -0.9589 -0.8586  0.4189
   38CHL1    C9 2775   1.395   5.139   7.599  0.2316 -0.2532  0.3130
   38CHL1    H9 2776   1.376   5.030   7.612  2.6014 -0.6003  1.3709
   38CHL1   C10 2777   1.406   5.178   7.446  0.5488 -0.1875 -0.1001
   38CHL1   C19 2778   1.465   5.317   7.436  0.1116 -0.4484  0.1854
   38CHL1  H19A 2779   1.455   5.361   7.334  0.3265 -0.0123  0.3504
   38CHL1  H19B 2780   1.413   5.385   7.506  1.6975 -0.3163  1.2900
   38CHL1  H19C 2781   1.571   5.336   7.466  0.2170 -0.6808 -0.0331
   38CHL1    C1 2782   1.509   5.082   7.379  0.3364  0.2646  0.4723
   38CHL1   H1A 2783   1.610   5.110   7.415  1.6955 -2.2521 -1.1751
   38CHL1   H1B 2784   1.502   4.977   7.414 -0.6697  0.0832 -0.2017
   38CHL1    C2 2785   1.500   5.078   7.225  0.1984 -0.1820 -0.2607
   38CHL1   H2A 2786   1.566   4.995   7.192 -0.3238 -0.7871  0.1787
   38CHL1   H2B 2787   1.542   5.174   7.190 -1.3706 -0.3514 -2.8973
   38CHL1   C20 2788   1.440   5.170   8.153 -0.3429  0.5799  0.2772
   38CHL1   H20 2789   1.450   5.280   8.154 -1.2686  0.6871 -0.9119
   38CHL1   C21 2790   1.591   5.123   8.136  0.3431  0.6172 -0.0964
   38CHL1  H21A 2791   1.636   5.148   8.234 -0.1994  2.7619 -0.3451
   38CHL1  H21B 2792   1.647   5.184   8.062  0.9474  0.8966  0.5791
   38CHL1  H21C 2793   1.606   5.015   8.112  2.3563  0.7242  0.5171
   38CHL1   C22 2794   1.387   5.120   8.288  0.3123  0.1633 -0.3884
   38CHL1  H22A 2795   1.450   5.128   8.379  0.0828 -0.8421 -0.1241
   38CHL1  H22B 2796   1.293   5.174   8.312 -0.3840 -1.6009  1.1184
   38CHL1   C23 2797   1.367   4.971   8.285 -0.2754 -0.7691 -0.3902
   38CHL1  H23A 2798   1.266   4.956   8.241 -0.1108 -2.8090 -0.1622
   38CHL1  H23B 2799   1.437   4.925   8.211 -1.3339 -0.5542 -1.5692
   38CHL1   C24 2800   1.380   4.892   8.412 -0.7674  0.5709  0.1653
   38CHL1  H24A 2801   1.364   4.783   8.401 -0.9804  0.4341  1.6530
   38CHL1  H24B 2802   1.488   4.883   8.436 -0.6440 -0.4264 -0.6903
   38CHL1   C25 2803   1.304   4.953   8.530  0.0716  0.0577  0.7566
   38CHL1   H25 2804   1.336   5.060   8.538  0.5184 -0.1613  2.3867
   38CHL1   C26 2805   1.156   4.930   8.498  0.0581 -0.1502 -0.0533
   38CHL1  H26A 2806   1.131   4.822   8.501 -0.6844  0.0028  2.9950
   38CHL1  H26B 2807   1.109   4.985   8.582  2.3038  0.0674  1.1430
   38CHL1  H26C 2808   1.118   4.975   8.404 -1.9853 -2.0602 -0.2185
   38CHL1   C27 2809   1.348   4.897   8.669 -0.2227  0.1402 -0.0657
   38CHL1  H27A 2810   1.293   4.947   8.751  1.0988  1.8727 -0.1993
   38CHL1  H27B 2811   1.326   4.788   8.666  1.7652 -0.2912 -0.4817
   38CHL1  H27C 2812   1.458   4.905   8.683  0.1669 -2.8413 -0.7267
   39CHL1    C3 2813   1.572   4.541   7.222  1.3544  0.1624  0.1932
   39CHL1    H3 2814   1.546   4.438   7.257  3.9820 -0.5390  0.2823
   39CHL1    O3 2815   1.547   4.538   7.081 -0.2811  0.2204  0.1499
   39CHL1   H3' 2816   1.564   4.627   7.050 -0.3376  0.2306  0.1484
   39CHL1    C4 2817   1.493   4.657   7.287  0.1122  0.3802 -0.3719
   39CHL1   H4A 2818   1.523   4.754   7.243  1.0918  0.8198  1.1860
   39CHL1   H4B 2819   1.382   4.650   7.277 -0.0353 -0.0257  1.1903
   39CHL1    C5 2820   1.527   4.665   7.432 -0.5761 -0.6259 -0.2248
   39CHL1    C6 2821   1.434   4.659   7.527  0.0723 -0.3046  1.0459
   39CHL1    H6 2822   1.329   4.648   7.497  0.4806 -1.9820  0.0686
   39CHL1    C7 2823   1.467   4.665   7.675  0.2921 -0.4851  0.8274
   39CHL1   H7A 2824   1.405   4.739   7.731 -0.9543  1.5410 -2.8707
   39CHL1   H7B 2825   1.454   4.563   7.716 -1.0520 -0.2675  0.9810
   39CHL1    C8 2826   1.616   4.708   7.704  0.0844 -0.0895 -0.3369
   39CHL1    H8 2827   1.617   4.818   7.694  0.1101  0.0562  1.0272
   39CHL1   C14 2828   1.661   4.664   7.847 -0.1578  1.6781  0.1889
   39CHL1   H14 2829   1.653   4.554   7.852  1.6534  1.5006 -0.1371
   39CHL1   C15 2830   1.569   4.720   7.959  0.1762 -0.3590 -0.7695
   39CHL1  H15A 2831   1.554   4.828   7.938 -2.0650 -0.8542 -2.0254
   39CHL1  H15B 2832   1.471   4.669   7.953 -0.0736  0.2405 -2.1455
   39CHL1   C16 2833   1.655   4.701   8.088 -0.4511  0.7260 -0.1591
   39CHL1  H16A 2834   1.644   4.797   8.143  0.9306  0.7874  0.0532
   39CHL1  H16B 2835   1.614   4.624   8.157  1.2572  1.7606  2.1487
   39CHL1   C17 2836   1.799   4.663   8.044  0.3689  0.4691  0.1483
   39CHL1   H17 2837   1.806   4.553   8.038  1.0923  0.3429  2.2216
   39CHL1   C13 2838   1.804   4.709   7.891  0.1850  0.0416 -0.8456
   39CHL1   C18 2839   1.824   4.867   7.893 -0.4743 -0.4587 -0.3513
   39CHL1  H18A 2840   1.930   4.901   7.891 -0.4440 -0.4438  0.8966
   39CHL1  H18B 2841   1.771   4.913   7.807 -0.2222  0.1108 -0.2049
   39CHL1  H18C 2842   1.784   4.925   7.979 -1.5793  2.1376 -2.4847
   39CHL1   C12 2843   1.903   4.645   7.799 -0.5248  0.4833 -0.5620
   39CHL1  H12A 2844   2.010   4.669   7.818 -0.3428 -0.0909 -0.8643
   39CHL1  H12B 2845   1.887   4.536   7.810 -0.0191  0.3804 -0.8099
   39CHL1   C11 2846   1.871   4.688   7.647  0.0207  0.4832  0.2492
   39CHL1  H11A 2847   1.892   4.797   7.640 -2.0898  1.0960  2.1256
   39CHL1  H11B 2848   1.928   4.630   7.572 -1.9036  2.7674 -3.2603
   39CHL1    C9 2849   1.721   4.645   7.611 -0.4991 -0.0517  0.2974
   39CHL1    H9 2850   1.731   4.535   7.622 -1.1320 -0.1055  0.3420
   39CHL1   C10 2851   1.681   4.672   7.463 -0.1887  0.6602 -0.3189
   39CHL1   C19 2852   1.741   4.812   7.427 -0.4338  0.3038 -0.1999
   39CHL1  H19A 2853   1.708   4.883   7.506 -1.8322 -1.2852  0.7076
   39CHL1  H19B 2854   1.851   4.805   7.413 -0.8305 -3.3201 -2.8779
   39CHL1  H19C 2855   1.696   4.846   7.331 -3.0337 -1.8764  0.1109
   39CHL1    C1 2856   1.764   4.561   7.382  0.2144 -0.3064 -0.2917
   39CHL1   H1A 2857   1.873   4.574   7.401  0.2036  3.2615 -1.8874
   39CHL1   H1B 2858   1.737   4.459   7.417  0.6711  0.2825  1.9391
   39CHL1    C2 2859   1.723   4.559   7.235  1.0022 -0.5917 -0.2725
   39CHL1   H2A 2860   1.777   4.476   7.185  0.7037 -0.5289 -0.7044
   39CHL1   H2B 2861   1.756   4.648   7.178 -0.5682 -1.3360 -2.4750
   39CHL1   C20 2862   1.914   4.688   8.133 -0.5066 -0.8434  0.2105
   39CHL1   H20 2863   1.945   4.791   8.105 -2.2385 -0.3250  0.0572
   39CHL1   C21 2864   2.037   4.598   8.105  0.2049 -0.4800 -0.3554
   39CHL1  H21A 2865   2.015   4.491   8.126  0.6346 -0.6491 -0.7557
   39CHL1  H21B 2866   2.116   4.624   8.179 -1.4425 -1.4802  1.8795
   39CHL1  H21C 2867   2.067   4.615   8.000 -1.6528  2.8932 -0.4680
   39CHL1   C22 2868   1.872   4.693   8.283 -0.3941  0.4025 -0.0492
   39CHL1  H22A 2869   1.808   4.781   8.302 -1.2479 -0.3579  0.6959
   39CHL1  H22B 2870   1.805   4.606   8.300 -1.5041  1.3656  0.6506
   39CHL1   C23 2871   1.976   4.723   8.387  0.0745 -0.2173  0.2306
   39CHL1  H23A 2872   2.053   4.642   8.390  1.2481  0.8402 -0.5805
   39CHL1  H23B 2873   2.029   4.811   8.344  0.2816 -1.2553 -1.7760
   39CHL1   C24 2874   1.939   4.748   8.528 -0.2619  0.3841  0.1131
   39CHL1  H24A 2875   2.033   4.776   8.579  0.1328 -0.1867 -0.2986
   39CHL1  H24B 2876   1.877   4.840   8.534  1.2961  1.4045  1.5529
   39CHL1   C25 2877   1.859   4.638   8.609 -0.5603  0.1068 -0.3396
   39CHL1   H25 2878   1.763   4.623   8.555 -0.5599 -2.1284  0.2025
   39CHL1   C26 2879   1.941   4.508   8.614  0.2334  0.5252  0.6100
   39CHL1  H26A 2880   2.049   4.532   8.600  0.2055 -0.1634 -1.0456
   39CHL1  H26B 2881   1.924   4.444   8.703 -0.4393 -1.9667 -1.1674
   39CHL1  H26C 2882   1.914   4.452   8.521  1.6453  1.5452 -0.4668
   39CHL1   C27 2883   1.828   4.696   8.754 -0.2626 -0.1366 -0.2179
   39CHL1  H27A 2884   1.920   4.691   8.815  1.0654 -0.1057 -2.1371
   39CHL1  H27B 2885   1.794   4.802   8.746  0.1565 -0.0632 -1.1656
   39CHL1  H27C 2886   1.748   4.641   8.810 -1.5042  1.0300 -0.7787
   40CHL1    C3 2887   6.737   3.052   6.748 -1.0744 -0.7369 -1.0374
   40CHL1    H3 2888   6.700   2.948   6.741  0.6795 -1.2600 -4.3704
   40CHL1    O3 2889   6.767   3.100   6.620 -0.4598  0.3991 -0.4913
   40CHL1   H3' 2890   6.757   3.194   6.638 -0.9377 -0.1642  3.0648
   40CHL1    C4 2891   6.634   3.146   6.826  0.4135  0.3272  0.4721
   40CHL1   H4A 2892   6.667   3.252   6.821  0.3705  0.2924 -1.0250
   40CHL1   H4B 2893   6.537   3.136   6.772 -0.4563  0.7059  1.8970
   40CHL1    C5 2894   6.611   3.104   6.970  0.4688  0.1711 -0.7477
   40CHL1    C6 2895   6.488   3.065   7.015 -0.2098 -0.0971 -0.6580
   40CHL1    H6 2896   6.400   3.078   6.951 -1.5453 -1.0381  0.8908
   40CHL1    C7 2897   6.468   3.027   7.159  0.0822 -0.2238  0.0467
   40CHL1   H7A 2898   6.383   3.088   7.197  1.1538  0.7926  0.8643
   40CHL1   H7B 2899   6.432   2.922   7.167 -1.9397  0.3971 -0.2260
   40CHL1    C8 2900   6.586   3.066   7.257  0.5691 -0.0341 -0.5924
   40CHL1    H8 2901   6.570   3.175   7.274 -2.3994 -0.1950 -1.8290
   40CHL1   C14 2902   6.564   3.003   7.392 -0.3895 -0.2915  0.0337
   40CHL1   H14 2903   6.572   2.894   7.371  2.3553  0.4204 -3.6288
   40CHL1   C15 2904   6.432   3.013   7.474  0.2323 -0.3564  0.6883
   40CHL1  H15A 2905   6.403   3.120   7.486  0.4081 -0.5861  4.2300
   40CHL1  H15B 2906   6.358   2.951   7.420  1.1133 -0.2944 -0.6529
   40CHL1   C16 2907   6.475   2.966   7.616 -0.4675  0.1425 -0.0490
   40CHL1  H16A 2908   6.443   3.040   7.693  1.5024 -1.0047  1.9885
   40CHL1  H16B 2909   6.427   2.866   7.619  0.2415 -0.2165 -0.5523
   40CHL1   C17 2910   6.626   2.945   7.607 -0.3298 -0.3016 -0.0743
   40CHL1   H17 2911   6.643   2.840   7.577 -1.5893 -0.7896  0.8839
   40CHL1   C13 2912   6.677   3.029   7.491 -0.2247 -0.2568 -0.1849
   40CHL1   C18 2913   6.695   3.168   7.525  0.8416 -0.7644  0.1882
   40CHL1  H18A 2914   6.716   3.231   7.436 -1.5228 -1.7672 -1.1896
   40CHL1  H18B 2915   6.602   3.208   7.570  0.7840 -0.7868  0.0893
   40CHL1  H18C 2916   6.773   3.180   7.603 -2.5111  0.7427  3.6571
   40CHL1   C12 2917   6.813   2.977   7.433  0.1168 -0.3774  1.1081
   40CHL1  H12A 2918   6.904   2.985   7.496  0.9697  0.2120 -0.1717
   40CHL1  H12B 2919   6.797   2.867   7.427 -1.3179 -0.1120 -0.7100
   40CHL1   C11 2920   6.848   3.038   7.296 -0.0881  0.0335 -0.9283
   40CHL1  H11A 2921   6.865   3.147   7.312 -3.7169  0.7252 -0.9087
   40CHL1  H11B 2922   6.931   2.983   7.246 -0.7619  0.9768 -3.2237
   40CHL1    C9 2923   6.723   3.024   7.200 -0.4022  0.8755 -0.6015
   40CHL1    H9 2924   6.707   2.917   7.176 -1.0670  0.8831 -0.2228
   40CHL1   C10 2925   6.738   3.097   7.061  0.4612  0.1688  0.2649
   40CHL1   C19 2926   6.781   3.245   7.075  0.2493  0.0845 -0.2737
   40CHL1  H19A 2927   6.831   3.292   6.988  4.0773 -1.5012  0.8622
   40CHL1  H19B 2928   6.704   3.311   7.122  0.9984 -1.1031  2.9242
   40CHL1  H19C 2929   6.867   3.257   7.145 -0.3261  0.5379  0.3767
   40CHL1    C1 2930   6.836   3.005   6.980  1.0856  0.0274 -0.3287
   40CHL1   H1A 2931   6.935   3.006   7.031  1.7563  1.4508 -1.5890
   40CHL1   H1B 2932   6.797   2.902   6.979 -0.6905  0.6774 -0.8009
   40CHL1    C2 2933   6.868   3.041   6.836 -0.6277  0.1917 -0.3403
   40CHL1   H2A 2934   6.940   2.965   6.798  0.4207  1.7614 -1.6544
   40CHL1   H2B 2935   6.931   3.132   6.823  1.2539 -1.3389 -2.8105
   40CHL1   C20 2936   6.703   2.947   7.739  0.1078  0.1833 -0.0278
   40CHL1   H20 2937   6.810   2.954   7.707 -0.3078 -0.8875 -1.7839
   40CHL1   C21 2938   6.674   2.815   7.815  0.3515  0.2158  0.0100
   40CHL1  H21A 2939   6.752   2.811   7.894  2.1696  2.1669 -1.5460
   40CHL1  H21B 2940   6.688   2.729   7.747 -1.0671  0.7877 -1.0557
   40CHL1  H21C 2941   6.571   2.808   7.854 -1.0123 -1.7772 -3.5260
   40CHL1   C22 2942   6.665   3.069   7.832 -0.6176 -0.2411 -0.0159
   40CHL1  H22A 2943   6.652   3.160   7.769  2.8125  0.2648 -0.1506
   40CHL1  H22B 2944   6.575   3.026   7.880 -0.8384 -0.2742 -0.4528
   40CHL1   C23 2945   6.765   3.094   7.950  0.1096 -0.3536  0.7171
   40CHL1  H23A 2946   6.790   2.998   8.000  0.4376 -0.4891  0.3031
   40CHL1  H23B 2947   6.860   3.126   7.902  0.0504 -1.6612 -0.3240
   40CHL1   C24 2948   6.712   3.189   8.057 -0.5126 -0.1383  0.3681
   40CHL1  H24A 2949   6.699   3.295   8.026  2.6370  0.7836  1.8232
   40CHL1  H24B 2950   6.606   3.163   8.078 -0.3337 -0.4173  0.9322
   40CHL1   C25 2951   6.787   3.186   8.183  0.6698  0.5996  0.1264
   40CHL1   H25 2952   6.833   3.085   8.192 -0.9048 -0.4023 -2.3290
   40CHL1   C26 2953   6.909   3.279   8.187  0.0216 -0.3313  0.0172
   40CHL1  H26A 2954   6.953   3.302   8.287  0.2516 -0.1516 -0.1243
   40CHL1  H26B 2955   6.996   3.245   8.127  1.0995 -0.3512  1.5354
   40CHL1  H26C 2956   6.881   3.382   8.157 -0.3806 -0.3759  0.2308
   40CHL1   C27 2957   6.709   3.219   8.308  0.3884 -0.1984 -0.5409
   40CHL1  H27A 2958   6.622   3.150   8.317 -1.2319  1.8069 -0.0408
   40CHL1  H27B 2959   6.761   3.214   8.405  2.9162  1.1279 -1.7495
   40CHL1  H27C 2960   6.653   3.315   8.298 -0.3224 -0.3265  1.7617
   41CHL1    C3 2961   4.845   3.297   6.775  0.4317  0.0976 -0.5573
   41CHL1    H3 2962   4.929   3.365   6.799 -0.9170  1.2791  1.0341
   41CHL1    O3 2963   4.869   3.254   6.641  0.1832  0.1550  0.7730
   41CHL1   H3' 2964   4.792   3.201   6.620  1.7856 -1.7834 -0.4532
   41CHL1    C4 2965   4.838   3.182   6.873 -0.2028 -0.4636  0.1252
   41CHL1   H4A 2966   4.751   3.120   6.844 -0.5054  0.0226 -0.0228
   41CHL1   H4B 2967   4.935   3.128   6.879 -0.5878 -1.0143  3.0452
   41CHL1    C5 2968   4.802   3.239   7.012  0.0426 -0.2616  0.4212
   41CHL1    C6 2969   4.881   3.210   7.116 -0.0521  0.3110  0.4037
   41CHL1    H6 2970   4.972   3.157   7.087 -0.9888 -0.9029 -0.3987
   41CHL1    C7 2971   4.859   3.269   7.252 -1.0484  0.2045 -0.7167
   41CHL1   H7A 2972   4.884   3.198   7.334  1.3098  0.8659 -0.7873
   41CHL1   H7B 2973   4.920   3.360   7.269 -0.2141 -0.6439  1.0840
   41CHL1    C8 2974   4.718   3.321   7.275  0.5685  0.0664  0.7994
   41CHL1    H8 2975   4.660   3.227   7.277  0.8089 -0.1084 -0.0375
   41CHL1   C14 2976   4.701   3.396   7.404  0.0919  0.1782 -1.2622
   41CHL1   H14 2977   4.770   3.483   7.405 -0.1701  0.4613  1.8546
   41CHL1   C15 2978   4.745   3.319   7.531  0.1686 -0.1594  0.2876
   41CHL1  H15A 2979   4.713   3.213   7.520  1.2318 -0.5407  0.7088
   41CHL1  H15B 2980   4.856   3.324   7.531  0.1917  0.1306 -1.8573
   41CHL1   C16 2981   4.668   3.390   7.643  0.1665 -0.6083  0.7124
   41CHL1  H16A 2982   4.599   3.317   7.690 -0.6029 -0.7977 -0.6477
   41CHL1  H16B 2983   4.740   3.417   7.722  0.2485  1.5322 -0.0147
   41CHL1   C17 2984   4.587   3.510   7.576 -0.3938 -0.5737  0.5663
   41CHL1   H17 2985   4.662   3.591   7.566  0.4760 -1.5097 -0.9037
   41CHL1   C13 2986   4.564   3.465   7.433 -1.1198 -0.1780 -0.0218
   41CHL1   C18 2987   4.456   3.364   7.435 -0.4239  0.4693 -0.3588
   41CHL1  H18A 2988   4.460   3.306   7.340  3.2532  2.6094 -1.7091
   41CHL1  H18B 2989   4.472   3.289   7.515 -1.7268  0.6248  0.0715
   41CHL1  H18C 2990   4.355   3.411   7.439 -0.2286  0.8834 -0.2318
   41CHL1   C12 2991   4.546   3.571   7.324  0.5141 -0.3009 -0.2876
   41CHL1  H12A 2992   4.447   3.622   7.325  1.7638  2.2334  0.2509
   41CHL1  H12B 2993   4.630   3.643   7.323 -0.2068  0.5622 -0.7273
   41CHL1   C11 2994   4.554   3.499   7.184 -0.6675 -0.4001  0.0287
   41CHL1  H11A 2995   4.471   3.425   7.182 -0.5068 -0.5738 -1.3260
   41CHL1  H11B 2996   4.527   3.572   7.104 -1.9857 -1.5243 -0.6071
   41CHL1    C9 2997   4.679   3.403   7.161  0.0763  0.2792 -0.0448
   41CHL1    H9 2998   4.766   3.471   7.150  0.1135 -0.0445 -2.3070
   41CHL1   C10 2999   4.677   3.327   7.023 -0.1576 -0.1451 -0.7012
   41CHL1   C19 3000   4.551   3.246   7.007 -0.0372  0.1650 -0.7539
   41CHL1  H19A 3001   4.526   3.202   6.908 -2.8031 -1.9978  0.7769
   41CHL1  H19B 3002   4.556   3.165   7.082 -0.7715 -0.8168 -1.7234
   41CHL1  H19C 3003   4.464   3.311   7.029 -0.4260 -0.4175 -0.5373
   41CHL1    C1 3004   4.690   3.435   6.915 -0.3023 -0.1268  0.8822
   41CHL1   H1A 3005   4.601   3.501   6.915 -0.5506 -0.4456 -0.1940
   41CHL1   H1B 3006   4.782   3.496   6.926 -0.0407  0.0086 -1.5438
   41CHL1    C2 3007   4.711   3.381   6.780  0.3457  0.3407  0.2247
   41CHL1   H2A 3008   4.705   3.459   6.701  0.6499  1.0651  0.9079
   41CHL1   H2B 3009   4.633   3.310   6.745 -0.9059  0.3801  2.7739
   41CHL1   C20 3010   4.470   3.562   7.658 -0.1455  0.4409  0.2941
   41CHL1   H20 3011   4.388   3.487   7.664  1.2900 -1.2047  0.3178
   41CHL1   C21 3012   4.414   3.687   7.603 -0.2399 -0.4061  0.0553
   41CHL1  H21A 3013   4.321   3.717   7.656 -2.1972 -0.2794 -3.1937
   41CHL1  H21B 3014   4.374   3.678   7.500  1.0225 -1.2692 -0.3806
   41CHL1  H21C 3015   4.484   3.774   7.603 -0.7699  0.0262 -0.1692
   41CHL1   C22 3016   4.495   3.579   7.808 -0.3656  0.1863 -0.6105
   41CHL1  H22A 3017   4.402   3.607   7.860  1.5635  0.5250  2.9745
   41CHL1  H22B 3018   4.525   3.478   7.844 -1.4462 -0.4187 -1.3461
   41CHL1   C23 3019   4.608   3.688   7.836  0.3525  0.3175 -0.3546
   41CHL1  H23A 3020   4.705   3.651   7.795  0.9674  0.9912  0.4656
   41CHL1  H23B 3021   4.590   3.777   7.772 -1.2135 -0.1544 -0.6062
   41CHL1   C24 3022   4.614   3.727   7.980 -0.4777 -0.4028 -0.1320
   41CHL1  H24A 3023   4.686   3.807   8.010 -1.0510 -0.0748  0.3982
   41CHL1  H24B 3024   4.510   3.742   8.014 -1.2840 -3.0471 -1.2122
   41CHL1   C25 3025   4.653   3.609   8.075 -0.2182 -0.8354 -0.4145
   41CHL1   H25 3026   4.560   3.549   8.062 -1.2687  0.9776 -1.7187
   41CHL1   C26 3027   4.777   3.521   8.045 -1.0694 -0.1222  0.2805
   41CHL1  H26A 3028   4.776   3.468   7.947  1.7871 -2.5997  1.4118
   41CHL1  H26B 3029   4.869   3.582   8.039 -0.4764 -1.0569 -0.3870
   41CHL1  H26C 3030   4.792   3.446   8.126 -0.6069 -0.4450 -0.0981
   41CHL1   C27 3031   4.652   3.669   8.215 -0.6783  0.3715  0.4178
   41CHL1  H27A 3032   4.559   3.725   8.240  1.3008  3.2436  1.8159
   41CHL1  H27B 3033   4.657   3.582   8.284 -0.9008  0.2149  0.2404
   41CHL1  H27C 3034   4.741   3.732   8.232 -0.0894  0.3596 -2.1868
   42CHL1    C3 3035   0.290   2.598  10.133  0.1359  0.1218 -0.0621
   42CHL1    H3 3036   0.277   2.704  10.105  1.5257 -0.1901 -2.0892
   42CHL1    O3 3037   0.267   2.566  10.271  0.2436 -0.2882  0.4856
   42CHL1   H3' 3038   0.339   2.612  10.314 -0.4705 -0.2241  1.6478
   42CHL1    C4 3039   0.183   2.523  10.048  0.6365  0.2538  0.4224
   42CHL1   H4A 3040   0.193   2.415  10.073  1.4633 -0.7158 -3.4654
   42CHL1   H4B 3041   0.082   2.555  10.082  0.6324 -0.7994  1.4994
   42CHL1    C5 3042   0.210   2.535   9.900  0.1086 -0.4157 -0.4186
   42CHL1    C6 3043   0.122   2.599   9.823  0.2090  0.8512 -0.0498
   42CHL1    H6 3044   0.032   2.643   9.868  0.2709 -0.1119  1.0734
   42CHL1    C7 3045   0.138   2.617   9.676 -0.1477 -0.0415  0.8052
   42CHL1   H7A 3046   0.044   2.595   9.621 -1.9298  0.1492  3.5761
   42CHL1   H7B 3047   0.160   2.721   9.646 -1.7071 -0.0090 -0.3356
   42CHL1    C8 3048   0.249   2.532   9.614  0.7111  0.6132  0.6244
   42CHL1    H8 3049   0.217   2.427   9.597  0.5665  0.7964 -0.2994
   42CHL1   C14 3050   0.273   2.583   9.466 -0.2756 -0.1451  0.1767
   42CHL1   H14 3051   0.293   2.692   9.479 -3.0393  0.7483 -2.0522
   42CHL1   C15 3052   0.160   2.600   9.362 -0.5625 -0.1934  0.4018
   42CHL1  H15A 3053   0.103   2.505   9.352  1.6269 -1.5776  0.1305
   42CHL1  H15B 3054   0.091   2.681   9.393  0.2730 -0.2135  2.4541
   42CHL1   C16 3055   0.240   2.627   9.227  0.5203  0.2061 -0.2828
   42CHL1  H16A 3056   0.190   2.556   9.157  1.0558 -1.1456  0.6590
   42CHL1  H16B 3057   0.221   2.734   9.207 -0.0410 -0.0374 -1.1413
   42CHL1   C17 3058   0.394   2.599   9.259 -0.5564  0.0310 -0.2667
   42CHL1   H17 3059   0.434   2.700   9.283  0.2612 -0.0882 -1.0728
   42CHL1   C13 3060   0.390   2.518   9.395 -0.6902  0.7006 -0.4072
   42CHL1   C18 3061   0.360   2.373   9.384 -0.4377  0.0181  0.1528
   42CHL1  H18A 3062   0.333   2.313   9.474  0.3542 -2.8611 -1.4113
   42CHL1  H18B 3063   0.282   2.354   9.307  1.3551 -1.5016 -1.3932
   42CHL1  H18C 3064   0.439   2.316   9.332 -1.2591 -0.6354 -0.4051
   42CHL1   C12 3065   0.520   2.533   9.485 -0.2365  0.4348 -0.2698
   42CHL1  H12A 3066   0.604   2.475   9.442  1.0548  1.7833  0.3773
   42CHL1  H12B 3067   0.547   2.640   9.490  0.2385  0.3321 -0.5975
   42CHL1   C11 3068   0.507   2.480   9.628  0.2364  0.2092 -0.5645
   42CHL1  H11A 3069   0.518   2.369   9.628 -1.6385 -0.0157 -0.0446
   42CHL1  H11B 3070   0.585   2.507   9.702  0.4937 -0.8773 -0.4182
   42CHL1    C9 3071   0.376   2.533   9.704  0.2826  0.3257  0.1058
   42CHL1    H9 3072   0.409   2.639   9.710  0.1950  0.4589 -1.3960
   42CHL1   C10 3073   0.346   2.484   9.849  0.1171 -0.0530  0.3959
   42CHL1   C19 3074   0.337   2.333   9.847  0.4077 -0.1876  0.4292
   42CHL1  H19A 3075   0.339   2.287   9.948  3.7001 -0.2606  0.4637
   42CHL1  H19B 3076   0.248   2.295   9.793  0.6552 -0.1634 -0.0020
   42CHL1  H19C 3077   0.425   2.282   9.801 -1.7125 -2.6665 -1.1292
   42CHL1    C1 3078   0.453   2.540   9.947  0.7194 -0.8960 -0.5283
   42CHL1   H1A 3079   0.551   2.494   9.923  0.9717 -0.9731  0.6188
   42CHL1   H1B 3080   0.458   2.650   9.933  0.7932 -0.6560  1.2123
   42CHL1    C2 3081   0.419   2.523  10.102 -0.1889  0.5161 -0.7664
   42CHL1   H2A 3082   0.501   2.570  10.161  0.1560 -2.0242  0.9557
   42CHL1   H2B 3083   0.425   2.414  10.125  1.0051  0.6330 -0.4264
   42CHL1   C20 3084   0.466   2.545   9.134 -0.3305  0.6199 -0.4581
   42CHL1   H20 3085   0.429   2.441   9.126  0.5223 -0.1378  3.4039
   42CHL1   C21 3086   0.621   2.551   9.143  0.6470 -0.4246 -0.2306
   42CHL1  H21A 3087   0.671   2.498   9.226  0.7867  0.7492  0.4655
   42CHL1  H21B 3088   0.665   2.653   9.148  1.7860 -0.9350  0.6056
   42CHL1  H21C 3089   0.677   2.503   9.060  2.4164  1.6182 -0.3207
   42CHL1   C22 3090   0.426   2.611   9.003  0.4988 -0.4139 -0.5560
   42CHL1  H22A 3091   0.319   2.588   8.983  0.7754 -1.1807 -1.2130
   42CHL1  H22B 3092   0.431   2.721   9.018 -2.3130 -0.0787 -1.5291
   42CHL1   C23 3093   0.494   2.552   8.877 -0.1197  0.0856 -0.3903
   42CHL1  H23A 3094   0.602   2.576   8.885 -0.3349  0.9931 -0.0467
   42CHL1  H23B 3095   0.472   2.443   8.875 -0.0542  0.0397  0.7625
   42CHL1   C24 3096   0.433   2.611   8.757 -0.2825 -0.1758  0.6296
   42CHL1  H24A 3097   0.322   2.613   8.757 -0.4333 -1.3531 -2.6368
   42CHL1  H24B 3098   0.475   2.714   8.745  0.0107 -0.3385  0.2042
   42CHL1   C25 3099   0.452   2.521   8.628 -1.1848  0.1532 -0.1622
   42CHL1   H25 3100   0.396   2.427   8.649 -2.0899  0.7717  0.2849
   42CHL1   C26 3101   0.382   2.581   8.502 -0.0091  0.2671 -0.4225
   42CHL1  H26A 3102   0.271   2.588   8.515 -0.4524  0.4319 -3.5559
   42CHL1  H26B 3103   0.423   2.681   8.477  1.5342 -0.0325  0.7726
   42CHL1  H26C 3104   0.398   2.520   8.411 -0.5084  1.0867 -1.0715
   42CHL1   C27 3105   0.598   2.489   8.605 -0.1270 -0.0544 -0.1697
   42CHL1  H27A 3106   0.650   2.584   8.582 -1.1910  0.7223  0.5764
   42CHL1  H27B 3107   0.621   2.423   8.518  2.4720  0.3187  0.1506
   42CHL1  H27C 3108   0.654   2.427   8.678  2.3604  0.6969 -1.3270
   43CHL1    C3 3109   0.195   4.675   6.793 -0.1017  0.8844 -0.1661
   43CHL1    H3 3110   0.266   4.591   6.806  0.9527  1.7746  0.0149
   43CHL1    O3 3111   0.175   4.707   6.653  0.0337  0.3167 -0.3075
   43CHL1   H3' 3112   0.183   4.623   6.607 -2.0813 -0.2523  0.2709
   43CHL1    C4 3113   0.061   4.654   6.863  0.0689  0.4451 -0.0131
   43CHL1   H4A 3114  -0.003   4.740   6.833 -0.2929  0.2219  0.1110
   43CHL1   H4B 3115   0.014   4.562   6.822 -0.5561  1.2548 -1.1822
   43CHL1    C5 3116   0.063   4.655   7.014  0.4021 -0.1052 -0.2760
   43CHL1    C6 3117  -0.017   4.567   7.077  0.4856  0.6886 -0.8417
   43CHL1    H6 3118  -0.082   4.494   7.026 -1.3244  1.4034  0.3565
   43CHL1    C7 3119  -0.038   4.573   7.229  0.0592 -0.4783  0.2450
   43CHL1   H7A 3120  -0.145   4.562   7.257 -0.1530  3.2825  1.4880
   43CHL1   H7B 3121   0.010   4.479   7.263  0.2602 -0.1151  0.9864
   43CHL1    C8 3122   0.028   4.705   7.294  0.2063 -0.2262  0.2060
   43CHL1    H8 3123  -0.040   4.792   7.277  1.3533  0.4463 -1.0733
   43CHL1   C14 3124   0.040   4.688   7.444  0.8435  0.4621 -0.1175
   43CHL1   H14 3125   0.104   4.599   7.456  1.8612  1.3186  1.0117
   43CHL1   C15 3126  -0.091   4.663   7.523 -0.2677  0.0306  0.4709
   43CHL1  H15A 3127  -0.158   4.731   7.466  0.9589 -1.3016 -2.8541
   43CHL1  H15B 3128  -0.115   4.556   7.513  2.8934 -0.6516 -1.1812
   43CHL1   C16 3129  -0.050   4.700   7.667  0.5030  0.2067 -0.2069
   43CHL1  H16A 3130  -0.125   4.778   7.694 -0.0957 -0.7987  1.1655
   43CHL1  H16B 3131  -0.057   4.610   7.732 -0.9393  0.7422  0.4185
   43CHL1   C17 3132   0.098   4.750   7.665 -0.8429  0.1669  0.3513
   43CHL1   H17 3133   0.160   4.658   7.662 -0.9953  0.0799 -0.4775
   43CHL1   C13 3134   0.115   4.801   7.515 -0.3277 -0.0793 -0.7422
   43CHL1   C18 3135   0.039   4.935   7.496 -0.0751  0.7703 -0.5510
   43CHL1  H18A 3136   0.018   4.955   7.388 -1.2549  0.7375 -0.3421
   43CHL1  H18B 3137  -0.063   4.932   7.538 -0.0309  0.1814 -0.4774
   43CHL1  H18C 3138   0.089   5.025   7.538 -0.3127  0.4409  0.4572
   43CHL1   C12 3139   0.253   4.800   7.457  0.1587  0.2476  0.2745
   43CHL1  H12A 3140   0.328   4.868   7.503 -0.6583  0.2344  1.6667
   43CHL1  H12B 3141   0.305   4.704   7.475 -2.2048 -1.0103  0.7588
   43CHL1   C11 3142   0.246   4.831   7.308  0.1525 -0.4487 -0.1274
   43CHL1  H11A 3143   0.226   4.939   7.288  3.2773  0.6560  1.9477
   43CHL1  H11B 3144   0.350   4.828   7.271  0.6289 -0.8303  1.2102
   43CHL1    C9 3145   0.164   4.726   7.227  0.6253  0.1830 -0.1158
   43CHL1    H9 3146   0.222   4.632   7.242 -0.5647 -0.3525  1.3591
   43CHL1   C10 3147   0.152   4.760   7.077 -0.2021 -0.1748 -0.4446
   43CHL1   C19 3148   0.077   4.891   7.058  0.1331  0.0658 -0.0274
   43CHL1  H19A 3149  -0.026   4.888   7.100 -0.4896  2.2841 -1.2544
   43CHL1  H19B 3150   0.143   4.966   7.107  0.7850  0.3943 -1.3755
   43CHL1  H19C 3151   0.070   4.919   6.951  0.4118  0.0189 -0.0587
   43CHL1    C1 3152   0.298   4.772   7.004 -1.2265  0.7666  0.5246
   43CHL1   H1A 3153   0.361   4.859   7.035  0.6654  0.5066 -2.2083
   43CHL1   H1B 3154   0.359   4.684   7.032 -1.3162  0.2295 -0.8935
   43CHL1    C2 3155   0.288   4.785   6.850  0.2690  0.0771 -0.0013
   43CHL1   H2A 3156   0.389   4.773   6.804  0.2546  2.6320 -0.8716
   43CHL1   H2B 3157   0.250   4.883   6.815  0.3751  0.2259  0.2910
   43CHL1   C20 3158   0.135   4.839   7.775  0.5072 -0.1310 -0.7811
   43CHL1   H20 3159   0.090   4.939   7.762 -0.5321 -0.3968  0.5307
   43CHL1   C21 3160   0.289   4.851   7.789  0.4447  0.1523  0.4249
   43CHL1  H21A 3161   0.326   4.860   7.893 -0.7856 -1.2749  1.0305
   43CHL1  H21B 3162   0.326   4.943   7.738  2.8906  0.1550  2.0134
   43CHL1  H21C 3163   0.343   4.765   7.743  1.1455  1.0987 -0.5781
   43CHL1   C22 3164   0.082   4.780   7.904 -0.1999  0.5220 -0.3109
   43CHL1  H22A 3165  -0.020   4.738   7.889  0.7596 -1.5339 -1.5336
   43CHL1  H22B 3166   0.143   4.689   7.920 -1.8898 -0.7042 -0.6447
   43CHL1   C23 3167   0.079   4.874   8.023 -1.0443 -0.1823 -0.1597
   43CHL1  H23A 3168   0.171   4.936   8.025 -1.7942  1.2075 -2.9670
   43CHL1  H23B 3169   0.005   4.956   8.011 -0.5757  0.7822  2.6852
   43CHL1   C24 3170   0.056   4.804   8.154  0.5836 -0.3587 -0.2489
   43CHL1  H24A 3171  -0.032   4.737   8.144 -0.9485  1.3075  1.1611
   43CHL1  H24B 3172   0.144   4.738   8.147  0.2548 -0.8381  0.1198
   43CHL1   C25 3173   0.037   4.892   8.285 -1.0021  0.0243 -0.3830
   43CHL1   H25 3174  -0.018   4.824   8.353 -2.7067  1.3129 -0.4104
   43CHL1   C26 3175   0.181   4.924   8.346  0.2342 -0.6524 -0.5233
   43CHL1  H26A 3176   0.157   4.979   8.439  0.3110 -1.3941 -0.0570
   43CHL1  H26B 3177   0.234   4.828   8.360  1.6475  0.1922  0.1657
   43CHL1  H26C 3178   0.247   4.984   8.279  1.1071 -0.8336  0.1652
   43CHL1   C27 3179  -0.051   5.016   8.273 -0.7327  0.6277  0.3500
   43CHL1  H27A 3180   0.015   5.091   8.225 -0.5252 -0.0570 -0.4504
   43CHL1  H27B 3181  -0.146   5.004   8.217 -0.6348  0.5773  0.1948
   43CHL1  H27C 3182  -0.085   5.069   8.365  0.3135  2.2170 -0.1279
   44CHL1    C3 3183   0.410   3.593   7.230  1.1174  0.0414  0.0930
   44CHL1    H3 3184   0.460   3.509   7.284 -1.0097 -1.3823 -0.0383
   44CHL1    O3 3185   0.443   3.591   7.094  0.2649 -0.2180  0.1284
   44CHL1   H3' 3186   0.423   3.680   7.064 -0.1728 -0.6962 -1.0351
   44CHL1    C4 3187   0.258   3.577   7.231 -0.0407  0.1746 -0.2740
   44CHL1   H4A 3188   0.209   3.653   7.166  0.9905  1.3046  0.2176
   44CHL1   H4B 3189   0.224   3.485   7.179  0.1942 -0.9882  1.5140
   44CHL1    C5 3190   0.202   3.588   7.371 -0.2252 -0.2795 -0.4471
   44CHL1    C6 3191   0.130   3.486   7.421  0.2273  0.3082 -0.4479
   44CHL1    H6 3192   0.105   3.403   7.353 -0.5096  1.1304 -1.2039
   44CHL1    C7 3193   0.068   3.489   7.562  0.0807 -0.7724 -0.1600
   44CHL1   H7A 3194  -0.038   3.454   7.567 -0.7219  1.5714  0.6563
   44CHL1   H7B 3195   0.120   3.420   7.631 -0.9326 -1.5509 -0.1406
   44CHL1    C8 3196   0.080   3.634   7.631  0.2364  0.2436  0.1879
   44CHL1    H8 3197   0.003   3.702   7.589  0.6762  0.0225 -1.0114
   44CHL1   C14 3198   0.060   3.613   7.786  0.0546 -0.1007  0.1521
   44CHL1   H14 3199   0.150   3.555   7.815  0.5734  0.1435 -0.9108
   44CHL1   C15 3200  -0.065   3.537   7.837 -0.3919 -0.4194 -0.7974
   44CHL1  H15A 3201  -0.158   3.571   7.786 -0.9895 -2.2470 -1.0146
   44CHL1  H15B 3202  -0.065   3.425   7.836 -1.6134 -0.4606  0.9371
   44CHL1   C16 3203  -0.080   3.592   7.976  0.4934  0.4070 -0.3782
   44CHL1  H16A 3204  -0.179   3.644   7.979 -1.1353 -2.5254  0.8586
   44CHL1  H16B 3205  -0.073   3.514   8.054 -3.1215 -0.2924 -0.5608
   44CHL1   C17 3206   0.034   3.703   8.003 -0.2470  0.1024  0.1084
   44CHL1   H17 3207   0.116   3.643   8.047 -0.4190 -0.2224 -0.0113
   44CHL1   C13 3208   0.073   3.750   7.863 -0.1843  0.2569  0.3998
   44CHL1   C18 3209  -0.029   3.844   7.812  0.5512 -0.6599 -0.4378
   44CHL1  H18A 3210   0.003   3.877   7.711  3.4242 -0.5056  0.4472
   44CHL1  H18B 3211  -0.119   3.779   7.809 -0.7330  0.9560  1.2006
   44CHL1  H18C 3212  -0.049   3.940   7.863  1.2256 -0.8066  0.1166
   44CHL1   C12 3213   0.219   3.804   7.846 -0.3847 -0.3642 -1.0521
   44CHL1  H12A 3214   0.242   3.903   7.891  2.6122 -0.4613 -2.1552
   44CHL1  H12B 3215   0.286   3.727   7.888 -1.3289  0.1832  1.6312
   44CHL1   C11 3216   0.256   3.812   7.699 -0.8580 -0.1148  0.1034
   44CHL1  H11A 3217   0.206   3.897   7.648 -0.9415 -1.3674 -2.0313
   44CHL1  H11B 3218   0.364   3.839   7.690 -0.7387 -0.3545  0.7445
   44CHL1    C9 3219   0.222   3.690   7.606  0.0968  0.1350  0.4408
   44CHL1    H9 3220   0.297   3.613   7.636  0.5410 -0.3678 -1.8108
   44CHL1   C10 3221   0.246   3.715   7.458  0.3583 -0.2349  0.3527
   44CHL1   C19 3222   0.178   3.845   7.404  0.2389 -1.0284 -0.3320
   44CHL1  H19A 3223   0.209   3.946   7.437 -1.9297  0.5052 -2.5604
   44CHL1  H19B 3224   0.162   3.846   7.294  0.0602 -1.1509 -0.3094
   44CHL1  H19C 3225   0.068   3.836   7.419  0.1538 -2.1960 -1.4664
   44CHL1    C1 3226   0.399   3.731   7.438 -0.8611 -0.0543  0.5267
   44CHL1   H1A 3227   0.433   3.827   7.483  0.9831  0.6651 -2.1742
   44CHL1   H1B 3228   0.457   3.645   7.477 -1.4878 -0.1424  1.2853
   44CHL1    C2 3229   0.455   3.721   7.296 -0.4184 -0.6549 -0.0499
   44CHL1   H2A 3230   0.564   3.737   7.281 -0.9932  1.8233 -2.4391
   44CHL1   H2B 3231   0.415   3.811   7.245  2.7346 -0.1854 -1.9425
   44CHL1   C20 3232  -0.015   3.804   8.111 -0.4353  0.0468  0.1881
   44CHL1   H20 3233  -0.103   3.853   8.065 -0.2390  0.6191  0.4205
   44CHL1   C21 3234   0.091   3.913   8.150  0.2789  0.3916  0.0444
   44CHL1  H21A 3235   0.047   3.997   8.207 -2.4436 -0.3851 -0.7560
   44CHL1  H21B 3236   0.118   3.955   8.050 -0.1642 -1.3934 -0.8801
   44CHL1  H21C 3237   0.179   3.863   8.196 -1.0296 -0.6368  1.5160
   44CHL1   C22 3238  -0.072   3.737   8.242 -0.3419  0.4999  0.6258
   44CHL1  H22A 3239  -0.164   3.684   8.212 -0.8378  0.3172  2.3514
   44CHL1  H22B 3240  -0.004   3.655   8.274  0.0015 -0.1258 -1.5336
   44CHL1   C23 3241  -0.113   3.837   8.355 -0.2779  0.0831  0.0946
   44CHL1  H23A 3242  -0.033   3.911   8.375 -2.3316  2.2422  0.7840
   44CHL1  H23B 3243  -0.211   3.887   8.342 -0.2403  0.3166  0.6969
   44CHL1   C24 3244  -0.137   3.744   8.474  0.1978 -0.6940 -0.3374
   44CHL1  H24A 3245  -0.183   3.647   8.444  0.6693 -1.2629  0.7299
   44CHL1  H24B 3246  -0.032   3.719   8.497  0.1728 -1.0080 -0.5570
   44CHL1   C25 3247  -0.207   3.808   8.588 -0.3273  0.1070 -0.6938
   44CHL1   H25 3248  -0.297   3.861   8.551  0.4574  0.1282 -2.6628
   44CHL1   C26 3249  -0.251   3.697   8.692 -1.0412 -0.2694 -0.2994
   44CHL1  H26A 3250  -0.157   3.658   8.737 -2.2875 -0.2908  2.4564
   44CHL1  H26B 3251  -0.322   3.730   8.771 -1.6015 -1.8362 -0.1138
   44CHL1  H26C 3252  -0.305   3.617   8.638 -0.7894  0.2644 -1.3618
   44CHL1   C27 3253  -0.107   3.898   8.662 -0.6060  0.3305  0.2428
   44CHL1  H27A 3254  -0.007   3.855   8.682 -0.3207  0.2717 -1.2462
   44CHL1  H27B 3255  -0.089   3.983   8.593 -0.2164  1.0314  1.1909
   44CHL1  H27C 3256  -0.155   3.940   8.753 -2.3653 -1.7037  0.3571
   45CHL1    C3 3257   2.767   1.520   6.747  0.2057  0.4961 -0.1620
   45CHL1    H3 3258   2.774   1.628   6.772 -1.3725  0.1938  1.9202
   45CHL1    O3 3259   2.775   1.496   6.613 -0.4937  0.2743 -0.2914
   45CHL1   H3' 3260   2.815   1.409   6.611  1.9142  1.3005 -0.3717
   45CHL1    C4 3261   2.873   1.442   6.826  0.1622 -0.0501 -0.2001
   45CHL1   H4A 3262   2.864   1.336   6.795  1.3788  0.3925 -2.2327
   45CHL1   H4B 3263   2.973   1.470   6.786  0.1320  0.1855 -0.1183
   45CHL1    C5 3264   2.862   1.463   6.974 -0.4440  0.6790 -0.6779
   45CHL1    C6 3265   2.969   1.517   7.046  0.6354  0.8961 -0.2205
   45CHL1    H6 3266   3.061   1.537   6.989  0.8339  1.2864  0.2374
   45CHL1    C7 3267   2.982   1.552   7.187 -0.0174 -0.3464 -0.1453
   45CHL1   H7A 3268   3.067   1.499   7.234 -0.5848 -0.5237  0.6887
   45CHL1   H7B 3269   2.994   1.661   7.203 -1.5453  0.0953 -1.6866
   45CHL1    C8 3270   2.857   1.488   7.268  0.5458 -0.1561  0.6685
   45CHL1    H8 3271   2.884   1.384   7.296  0.0246 -0.0995  1.4049
   45CHL1   C14 3272   2.842   1.561   7.399  0.0707  0.5527  0.3109
   45CHL1   H14 3273   2.818   1.668   7.381  1.2139  1.0840  1.7271
   45CHL1   C15 3274   2.973   1.570   7.483  0.4372  1.0328 -0.0831
   45CHL1  H15A 3275   3.015   1.468   7.486 -2.8737 -0.4503  1.2574
   45CHL1  H15B 3276   3.057   1.637   7.456  2.2059 -1.8049 -2.1910
   45CHL1   C16 3277   2.917   1.607   7.626  0.2440 -0.1470  0.0281
   45CHL1  H16A 3278   2.969   1.543   7.701 -2.1168  0.3866  2.2459
   45CHL1  H16B 3279   2.939   1.716   7.631 -2.3206  0.5240 -1.6905
   45CHL1   C17 3280   2.759   1.594   7.626  0.0505 -0.3996 -1.0120
   45CHL1   H17 3281   2.717   1.693   7.597 -1.3495 -0.5494  0.3701
   45CHL1   C13 3282   2.735   1.509   7.501  0.0948 -0.1052 -0.3276
   45CHL1   C18 3283   2.762   1.363   7.538  0.1172 -0.6712  0.0926
   45CHL1  H18A 3284   2.681   1.330   7.605 -0.4848 -1.7566 -1.1197
   45CHL1  H18B 3285   2.760   1.291   7.453 -1.2852  0.6936 -1.0973
   45CHL1  H18C 3286   2.848   1.349   7.606  0.8208  1.3409 -0.3020
   45CHL1   C12 3287   2.597   1.521   7.429  0.4232  0.2457  0.5142
   45CHL1  H12A 3288   2.524   1.452   7.477 -0.3408 -1.6241 -2.9793
   45CHL1  H12B 3289   2.558   1.624   7.428 -3.3436 -0.9761  2.5291
   45CHL1   C11 3290   2.609   1.457   7.284 -0.2299 -0.5508 -0.3502
   45CHL1  H11A 3291   2.626   1.349   7.297  4.0701  0.1799  1.6403
   45CHL1  H11B 3292   2.510   1.467   7.234 -1.3052 -1.3901  1.5218
   45CHL1    C9 3293   2.722   1.502   7.192 -0.9471  0.1162 -0.4536
   45CHL1    H9 3294   2.722   1.612   7.174  0.1097  0.4800  1.5293
   45CHL1   C10 3295   2.725   1.437   7.047  0.1837  0.6238  0.4186
   45CHL1   C19 3296   2.700   1.286   7.051 -0.3302 -0.0792 -0.2143
   45CHL1  H19A 3297   2.705   1.239   6.951 -0.2495 -1.3369  0.3661
   45CHL1  H19B 3298   2.775   1.237   7.117  0.4932  0.4054 -0.7554
   45CHL1  H19C 3299   2.598   1.265   7.089 -0.0436 -0.8135  0.1687
   45CHL1    C1 3300   2.620   1.510   6.957 -0.5106  0.1884  1.0035
   45CHL1   H1A 3301   2.521   1.487   7.002 -0.1583 -1.7938  0.8603
   45CHL1   H1B 3302   2.636   1.619   6.969 -1.0650  0.5010 -0.9080
   45CHL1    C2 3303   2.627   1.479   6.803  1.2924 -0.6644 -0.3927
   45CHL1   H2A 3304   2.544   1.539   6.759 -1.7747 -3.8726  0.4795
   45CHL1   H2B 3305   2.613   1.368   6.800 -0.7584 -0.5314  1.6708
   45CHL1   C20 3306   2.710   1.566   7.765 -0.2497 -0.5556 -0.1599
   45CHL1   H20 3307   2.754   1.468   7.796  1.2249  0.2137  0.2544
   45CHL1   C21 3308   2.562   1.542   7.759 -0.1086 -0.3390 -0.6055
   45CHL1  H21A 3309   2.500   1.619   7.708  0.1649 -0.8657 -1.7633
   45CHL1  H21B 3310   2.526   1.536   7.864  2.0408 -0.4734  0.1655
   45CHL1  H21C 3311   2.545   1.446   7.707  2.4299 -1.0219 -0.2989
   45CHL1   C22 3312   2.747   1.677   7.871 -0.7371  0.2618  0.4043
   45CHL1  H22A 3313   2.855   1.701   7.871 -0.6878  0.0899  1.3939
   45CHL1  H22B 3314   2.702   1.773   7.839  1.4193  1.3899  0.5960
   45CHL1   C23 3315   2.740   1.631   8.016 -0.1895 -0.3986 -0.5036
   45CHL1  H23A 3316   2.631   1.624   8.039 -0.0088 -0.5018  0.3555
   45CHL1  H23B 3317   2.789   1.532   8.029 -2.9731 -2.0206 -1.2461
   45CHL1   C24 3318   2.802   1.740   8.110  0.6733 -0.4092 -0.2490
   45CHL1  H24A 3319   2.906   1.764   8.081  0.2982  0.6169 -0.8009
   45CHL1  H24B 3320   2.751   1.836   8.087  1.4399  0.0137 -0.2185
   45CHL1   C25 3321   2.800   1.711   8.260  0.8176  0.1023  0.5863
   45CHL1   H25 3322   2.695   1.729   8.291  0.4536 -0.1803 -0.4264
   45CHL1   C26 3323   2.829   1.569   8.290 -0.2450 -0.5377  0.1663
   45CHL1  H26A 3324   2.843   1.542   8.397 -0.0409  1.1447  0.6088
   45CHL1  H26B 3325   2.744   1.511   8.249 -0.7000  0.0745  0.2188
   45CHL1  H26C 3326   2.920   1.539   8.233  1.1162  3.4471 -0.1357
   45CHL1   C27 3327   2.891   1.811   8.330 -0.3307 -0.0680  0.6702
   45CHL1  H27A 3328   2.868   1.918   8.312  1.3672  0.1805 -0.1799
   45CHL1  H27B 3329   2.886   1.796   8.441 -0.9738  2.8162  1.0996
   45CHL1  H27C 3330   2.998   1.798   8.304 -0.3132  0.3794  0.5226
   46CHL1    C3 3331   0.388   2.180   7.033  0.0883  0.2739  0.2266
   46CHL1    H3 3332   0.295   2.152   7.087 -0.5414  2.9368  0.6516
   46CHL1    O3 3333   0.355   2.230   6.907  0.6664  0.1235  0.8522
   46CHL1   H3' 3334   0.314   2.156   6.861 -0.2201 -0.6378  2.7377
   46CHL1    C4 3335   0.456   2.298   7.113 -0.1274  0.3377 -0.5574
   46CHL1   H4A 3336   0.538   2.335   7.049  1.8921  0.5102  1.9891
   46CHL1   H4B 3337   0.379   2.379   7.107  0.1666  1.0138  2.8638
   46CHL1    C5 3338   0.494   2.250   7.253 -0.4906 -0.4727 -0.0174
   46CHL1    C6 3339   0.439   2.319   7.358 -0.1368  0.3402  0.4571
   46CHL1    H6 3340   0.381   2.411   7.349 -0.0447  0.2120 -1.9956
   46CHL1    C7 3341   0.452   2.274   7.499  0.4253 -0.1738  0.1281
   46CHL1   H7A 3342   0.486   2.362   7.557  0.2113  0.8314 -1.2166
   46CHL1   H7B 3343   0.353   2.259   7.547  0.8960  0.8718  1.4687
   46CHL1    C8 3344   0.555   2.166   7.518  0.2125  0.8448  0.2025
   46CHL1    H8 3345   0.650   2.223   7.510 -0.3752  1.7077 -0.9070
   46CHL1   C14 3346   0.563   2.098   7.657 -0.2180  0.4873 -0.3413
   46CHL1   H14 3347   0.460   2.058   7.663  0.1463 -0.7042 -1.5806
   46CHL1   C15 3348   0.559   2.185   7.784  0.3174 -0.0780  0.3790
   46CHL1  H15A 3349   0.641   2.259   7.795  0.6458 -0.5891  1.5237
   46CHL1  H15B 3350   0.464   2.240   7.798 -0.7617 -1.5353 -0.8429
   46CHL1   C16 3351   0.592   2.084   7.896 -0.0856 -0.0681 -0.0965
   46CHL1  H16A 3352   0.664   2.136   7.963  1.5195 -2.0084 -0.2317
   46CHL1  H16B 3353   0.503   2.047   7.951 -0.6191  1.8110  0.3773
   46CHL1   C17 3354   0.657   1.964   7.828 -0.6149  0.2266  0.3214
   46CHL1   H17 3355   0.585   1.879   7.819  1.4145 -1.4145 -1.5210
   46CHL1   C13 3356   0.676   1.996   7.681 -0.4376  0.0972  0.3047
   46CHL1   C18 3357   0.810   2.067   7.661 -0.2932 -0.0824  0.2656
   46CHL1  H18A 3358   0.817   2.118   7.562 -1.5178  1.6037  1.0057
   46CHL1  H18B 3359   0.821   2.149   7.734  0.5252  0.4177 -0.3953
   46CHL1  H18C 3360   0.898   1.999   7.668 -0.5419 -0.4287  0.1061
   46CHL1   C12 3361   0.656   1.885   7.572  0.0030  0.3611 -0.2715
   46CHL1  H12A 3362   0.746   1.819   7.581 -0.4144 -0.1119  0.4978
   46CHL1  H12B 3363   0.559   1.837   7.594 -1.9353  2.8609 -2.7324
   46CHL1   C11 3364   0.659   1.942   7.432 -0.2554  0.8271  0.0218
   46CHL1  H11A 3365   0.762   1.970   7.405 -0.4252  0.3983 -1.1143
   46CHL1  H11B 3366   0.635   1.858   7.363  1.3745  0.0956  0.2885
   46CHL1    C9 3367   0.558   2.056   7.407 -0.2147  0.1267  0.0231
   46CHL1    H9 3368   0.459   2.006   7.416 -0.4303  0.9270  3.0465
   46CHL1   C10 3369   0.559   2.113   7.261  0.0045  0.5537  0.2510
   46CHL1   C19 3370   0.704   2.141   7.223  0.6185 -0.5263 -0.1391
   46CHL1  H19A 3371   0.710   2.226   7.152 -1.0190  0.6381  1.0565
   46CHL1  H19B 3372   0.753   2.175   7.316 -1.1283  1.8114  0.0148
   46CHL1  H19C 3373   0.751   2.057   7.167  2.6317  0.6047 -0.2158
   46CHL1    C1 3374   0.484   2.012   7.167 -0.1462  0.6298  0.7346
   46CHL1   H1A 3375   0.543   1.919   7.156  0.0324  0.8513 -0.2744
   46CHL1   H1B 3376   0.387   1.977   7.206  0.2300 -1.1952  0.1007
   46CHL1    C2 3377   0.465   2.054   7.019  0.0476 -0.0480 -0.3152
   46CHL1   H2A 3378   0.399   1.976   6.975 -1.7595  1.6946 -0.8446
   46CHL1   H2B 3379   0.554   2.069   6.955  1.3164 -1.0191  1.1471
   46CHL1   C20 3380   0.779   1.899   7.897  0.6401  0.3031  0.5389
   46CHL1   H20 3381   0.871   1.953   7.868  0.3505  0.1801 -0.6704
   46CHL1   C21 3382   0.792   1.750   7.850  0.1787  1.4457  0.4324
   46CHL1  H21A 3383   0.815   1.745   7.742  1.2621  2.8075  0.5762
   46CHL1  H21B 3384   0.697   1.692   7.854  0.9043 -0.0788 -2.0448
   46CHL1  H21C 3385   0.870   1.701   7.912 -1.9971 -0.1509  2.0853
   46CHL1   C22 3386   0.775   1.899   8.053  0.6201  0.0458  0.0091
   46CHL1  H22A 3387   0.761   2.000   8.096  2.3186  0.2954  0.0293
   46CHL1  H22B 3388   0.682   1.844   8.080  1.4715 -1.0862  0.7624
   46CHL1   C23 3389   0.904   1.858   8.125  0.5271 -0.0870  0.0211
   46CHL1  H23A 3390   0.886   1.869   8.234 -0.3551 -1.4803  0.0386
   46CHL1  H23B 3391   0.938   1.753   8.114  1.9895  0.0515  2.3850
   46CHL1   C24 3392   1.022   1.941   8.095  0.6695 -0.0250  0.3895
   46CHL1  H24A 3393   1.047   1.926   7.988 -1.0747 -0.7318  0.0297
   46CHL1  H24B 3394   0.999   2.049   8.095 -0.9783 -0.3335 -0.1463
   46CHL1   C25 3395   1.143   1.914   8.177 -0.1597  0.0732  0.0558
   46CHL1   H25 3396   1.120   1.916   8.285 -2.6339 -0.7468 -0.4076
   46CHL1   C26 3397   1.228   1.791   8.122 -0.0034 -0.4549  0.2615
   46CHL1  H26A 3398   1.183   1.698   8.163 -3.0039  1.4810  1.7394
   46CHL1  H26B 3399   1.230   1.795   8.011  3.6651 -0.5870  0.1932
   46CHL1  H26C 3400   1.333   1.796   8.157 -0.0062 -1.3732  0.4135
   46CHL1   C27 3401   1.245   2.033   8.177  0.5575 -0.2574  0.8319
   46CHL1  H27A 3402   1.296   2.046   8.079 -1.7577  1.0167 -0.2795
   46CHL1  H27B 3403   1.198   2.132   8.196  0.2803  0.3318 -2.4292
   46CHL1  H27C 3404   1.312   2.012   8.263  0.4310 -1.2571  0.7007
   47CHL1    C3 3405   6.641   2.647   6.736 -0.4396  0.2260  0.8708
   47CHL1    H3 3406   6.737   2.700   6.752  0.0463 -0.2727 -0.2930
   47CHL1    O3 3407   6.605   2.660   6.599  0.0404  0.2951  0.1677
   47CHL1   H3' 3408   6.667   2.719   6.555  2.6258 -0.8700  1.9884
   47CHL1    C4 3409   6.655   2.506   6.781  0.0912  0.8119 -0.5559
   47CHL1   H4A 3410   6.573   2.443   6.741  1.1372 -0.3816 -0.8816
   47CHL1   H4B 3411   6.745   2.462   6.733  0.4035  0.2202  0.5422
   47CHL1    C5 3412   6.648   2.482   6.931 -0.4113 -0.0101  0.6151
   47CHL1    C6 3413   6.736   2.399   6.991  0.2501 -0.8405  0.4059
   47CHL1    H6 3414   6.815   2.347   6.934  1.6436  1.9331 -0.3924
   47CHL1    C7 3415   6.744   2.370   7.133 -0.1985 -0.0023 -0.3450
   47CHL1   H7A 3416   6.750   2.260   7.148  1.0004  0.1831  0.6898
   47CHL1   H7B 3417   6.839   2.404   7.180 -0.5057 -0.2178  0.4482
   47CHL1    C8 3418   6.624   2.417   7.213 -0.2222  0.2748  0.8890
   47CHL1    H8 3419   6.537   2.350   7.197 -0.2208  0.6087 -0.7674
   47CHL1   C14 3420   6.643   2.424   7.369  0.2894 -0.4800  0.3803
   47CHL1   H14 3421   6.725   2.498   7.386  1.1752 -1.6377  1.3344
   47CHL1   C15 3422   6.691   2.291   7.436 -0.2689  0.0654 -0.5716
   47CHL1  H15A 3423   6.640   2.201   7.394 -0.6057  0.4177 -0.9332
   47CHL1  H15B 3424   6.800   2.278   7.422 -0.2272  1.0444 -1.2453
   47CHL1   C16 3425   6.658   2.319   7.582 -1.2159  0.0131  0.2138
   47CHL1  H16A 3426   6.613   2.227   7.625 -1.4453  1.1591  2.5760
   47CHL1  H16B 3427   6.750   2.334   7.643  0.1565 -1.2132 -1.4273
   47CHL1   C17 3428   6.568   2.443   7.592 -0.4833  0.4943 -0.1755
   47CHL1   H17 3429   6.641   2.522   7.619 -0.3981  0.7522 -1.1542
   47CHL1   C13 3430   6.515   2.466   7.447  0.3357  0.4924 -0.8787
   47CHL1   C18 3431   6.391   2.371   7.418 -0.6396  0.3381 -0.4801
   47CHL1  H18A 3432   6.370   2.354   7.310  1.2767 -0.7667 -0.7299
   47CHL1  H18B 3433   6.422   2.272   7.456 -2.0588  0.3928  0.8766
   47CHL1  H18C 3434   6.302   2.400   7.477 -2.4594 -2.8896 -1.4199
   47CHL1   C12 3435   6.489   2.610   7.409 -0.3978  0.1502 -0.7968
   47CHL1  H12A 3436   6.399   2.652   7.459  0.7117  2.1955 -0.4226
   47CHL1  H12B 3437   6.576   2.671   7.443 -1.5514  1.9418 -0.9396
   47CHL1   C11 3438   6.463   2.625   7.259  0.2444 -0.0762  0.3828
   47CHL1  H11A 3439   6.368   2.569   7.241 -1.2211  1.3524  3.0556
   47CHL1  H11B 3440   6.442   2.732   7.237 -0.1484  0.2024  2.0141
   47CHL1    C9 3441   6.570   2.558   7.173  0.8440 -0.3085  0.6128
   47CHL1    H9 3442   6.662   2.617   7.194 -1.1900  3.4073  0.0344
   47CHL1   C10 3443   6.543   2.556   7.009 -0.4291 -0.0121  0.2317
   47CHL1   C19 3444   6.399   2.495   6.985  0.0086 -0.4691  0.6664
   47CHL1  H19A 3445   6.377   2.472   6.879  0.0662  2.8846 -0.1828
   47CHL1  H19B 3446   6.374   2.409   7.051  0.0351 -1.9075 -1.1399
   47CHL1  H19C 3447   6.328   2.577   7.007 -1.0166 -1.0213 -0.5022
   47CHL1    C1 3448   6.547   2.706   6.962  0.3666 -0.3370  0.2576
   47CHL1   H1A 3449   6.467   2.758   7.018  0.8863 -0.6209  1.3062
   47CHL1   H1B 3450   6.646   2.749   6.991 -0.2136  2.4068 -1.4924
   47CHL1    C2 3451   6.527   2.711   6.812  0.1110 -0.3600  0.2604
   47CHL1   H2A 3452   6.525   2.817   6.781  1.1314 -0.3857  0.0847
   47CHL1   H2B 3453   6.433   2.665   6.772  0.4696 -0.6974 -0.2081
   47CHL1   C20 3454   6.461   2.424   7.705  0.5142  0.9069 -0.1066
   47CHL1   H20 3455   6.370   2.370   7.670 -0.0648  1.5255  0.4409
   47CHL1   C21 3456   6.403   2.565   7.749  0.2287 -0.0317  0.3131
   47CHL1  H21A 3457   6.293   2.575   7.758 -0.0219 -0.1935 -1.9112
   47CHL1  H21B 3458   6.442   2.638   7.674  0.3904 -0.4963 -0.0604
   47CHL1  H21C 3459   6.438   2.599   7.849 -1.4431 -0.3130  1.0119
   47CHL1   C22 3460   6.509   2.351   7.838 -0.3567  1.0255  0.4414
   47CHL1  H22A 3461   6.530   2.245   7.813 -0.5720  0.9494  0.5741
   47CHL1  H22B 3462   6.599   2.407   7.873  1.4922 -1.3762 -0.2111
   47CHL1   C23 3463   6.405   2.348   7.952  0.2828 -0.1761  0.5164
   47CHL1  H23A 3464   6.440   2.288   8.039  0.6171  2.4534  2.2995
   47CHL1  H23B 3465   6.381   2.444   8.001  1.0274  0.0199  0.4939
   47CHL1   C24 3466   6.269   2.291   7.904 -0.1468 -0.1584  0.8724
   47CHL1  H24A 3467   6.224   2.366   7.836 -0.9972 -0.4336  1.1196
   47CHL1  H24B 3468   6.272   2.188   7.862 -0.4896  0.1155  0.1678
   47CHL1   C25 3469   6.164   2.292   8.018 -0.7941  0.1364  0.1253
   47CHL1   H25 3470   6.160   2.396   8.056  1.0988  0.8336 -1.3727
   47CHL1   C26 3471   6.027   2.257   7.974 -0.2131  0.1121 -0.4256
   47CHL1  H26A 3472   5.956   2.280   8.057 -0.2514 -0.8323 -0.1916
   47CHL1  H26B 3473   5.994   2.307   7.881 -1.6871  0.8050  0.4260
   47CHL1  H26C 3474   6.009   2.151   7.949 -0.1530  0.1580 -0.6632
   47CHL1   C27 3475   6.202   2.207   8.138  0.2581 -0.6246  0.3374
   47CHL1  H27A 3476   6.113   2.156   8.182 -0.1149  0.8942  1.4249
   47CHL1  H27B 3477   6.272   2.131   8.097 -0.8529 -1.4836 -0.0243
   47CHL1  H27C 3478   6.250   2.276   8.209 -0.4239  2.4728 -1.9857
   48CHL1    C3 3479   5.263   4.873   6.674  0.3650 -0.1058 -0.4965
   48CHL1    H3 3480   5.196   4.956   6.706  1.3450  0.3619  0.4052
   48CHL1    O3 3481   5.258   4.855   6.532  0.1162  0.3426  0.0170
   48CHL1   H3' 3482   5.187   4.793   6.515  2.6049 -2.7101 -0.0626
   48CHL1    C4 3483   5.413   4.894   6.715  0.2793 -0.6340 -0.2936
   48CHL1   H4A 3484   5.460   4.796   6.696 -0.4369 -1.7851  3.2485
   48CHL1   H4B 3485   5.446   4.980   6.652  1.2800 -0.8840 -0.1132
   48CHL1    C5 3486   5.424   4.918   6.864  0.1549 -0.2286 -0.0451
   48CHL1    C6 3487   5.475   5.032   6.921  0.0284  0.0327  0.2849
   48CHL1    H6 3488   5.506   5.110   6.850 -1.1789  0.1710 -0.1189
   48CHL1    C7 3489   5.492   5.062   7.063  0.6011 -0.3106 -0.2686
   48CHL1   H7A 3490   5.589   5.115   7.078  0.6088 -0.8971  2.1818
   48CHL1   H7B 3491   5.407   5.128   7.093  1.3889 -0.5434  2.7864
   48CHL1    C8 3492   5.478   4.931   7.148  0.6952 -0.1605 -0.4096
   48CHL1    H8 3493   5.566   4.865   7.133 -0.9009 -2.7120  0.8461
   48CHL1   C14 3494   5.468   4.974   7.294  0.8181  0.2389 -0.2466
   48CHL1   H14 3495   5.378   5.038   7.306 -0.6028 -1.6111 -0.4752
   48CHL1   C15 3496   5.576   5.059   7.364 -0.4005  0.3719  0.1880
   48CHL1  H15A 3497   5.671   5.021   7.321 -1.4587 -0.2985 -1.6824
   48CHL1  H15B 3498   5.561   5.169   7.352 -0.8405  0.4956  1.7404
   48CHL1   C16 3499   5.558   5.021   7.510 -0.2851  0.2830  0.3676
   48CHL1  H16A 3500   5.642   4.972   7.564 -0.6693 -0.8576 -0.0296
   48CHL1  H16B 3501   5.545   5.111   7.574  0.8042  0.2417  0.6692
   48CHL1   C17 3502   5.440   4.918   7.521 -0.0469  0.3642 -0.1725
   48CHL1   H17 3503   5.344   4.974   7.530  0.5086  1.5569 -1.3655
   48CHL1   C13 3504   5.443   4.854   7.385  0.4864 -0.1160 -0.8544
   48CHL1   C18 3505   5.565   4.754   7.386 -0.4557 -0.1369  0.0470
   48CHL1  H18A 3506   5.658   4.800   7.424 -1.2082  0.8107  0.7703
   48CHL1  H18B 3507   5.545   4.660   7.442 -0.6313  0.9751  1.9463
   48CHL1  H18C 3508   5.595   4.733   7.281 -0.3699 -0.2355  0.0904
   48CHL1   C12 3509   5.314   4.777   7.348 -0.8223 -0.1744  0.0645
   48CHL1  H12A 3510   5.307   4.681   7.404 -0.2128 -0.9354 -1.1125
   48CHL1  H12B 3511   5.231   4.845   7.377 -0.4863 -0.6609  2.3594
   48CHL1   C11 3512   5.312   4.733   7.202 -0.1665 -0.1022 -0.2039
   48CHL1  H11A 3513   5.393   4.661   7.177  0.4677  1.0995 -1.8172
   48CHL1  H11B 3514   5.214   4.685   7.180 -1.0990  0.6953  1.9929
   48CHL1    C9 3515   5.353   4.849   7.105  0.6013  0.3182  0.5068
   48CHL1    H9 3516   5.276   4.929   7.107 -0.7016 -0.8382 -1.0458
   48CHL1   C10 3517   5.369   4.807   6.957  0.2682  0.3555  0.8976
   48CHL1   C19 3518   5.473   4.694   6.945  0.2880 -0.0366 -0.1431
   48CHL1  H19A 3519   5.576   4.709   6.984  0.1793 -2.5371  1.3346
   48CHL1  H19B 3520   5.442   4.600   6.996  0.6247  0.1351  0.3842
   48CHL1  H19C 3521   5.476   4.652   6.842  1.3989 -1.4567  0.4176
   48CHL1    C1 3522   5.234   4.765   6.904 -0.1705 -0.2947  0.4240
   48CHL1   H1A 3523   5.191   4.670   6.944  0.1238 -0.6596 -0.1288
   48CHL1   H1B 3524   5.162   4.846   6.930  0.8733  1.0352 -0.6795
   48CHL1    C2 3525   5.225   4.743   6.749 -0.1361 -0.0091 -0.1385
   48CHL1   H2A 3526   5.121   4.723   6.716  0.5687  0.2040 -2.7744
   48CHL1   H2B 3527   5.294   4.658   6.729  1.3780  0.4620  2.6346
   48CHL1   C20 3528   5.443   4.833   7.655  0.2389 -0.1842  0.3024
   48CHL1   H20 3529   5.522   4.756   7.645  0.3930 -0.0107  0.1961
   48CHL1   C21 3530   5.305   4.769   7.680  0.6864  0.4798 -0.6457
   48CHL1  H21A 3531   5.305   4.709   7.774 -1.1168  1.5796  0.0989
   48CHL1  H21B 3532   5.269   4.695   7.606 -1.1653  0.5746  0.1195
   48CHL1  H21C 3533   5.228   4.849   7.685  0.5876  0.8175 -4.8246
   48CHL1   C22 3534   5.468   4.925   7.780 -0.3042 -0.2386 -0.5990
   48CHL1  H22A 3535   5.572   4.965   7.770 -1.3365  2.2648 -2.3472
   48CHL1  H22B 3536   5.400   5.012   7.769 -1.0248 -0.9548 -2.2170
   48CHL1   C23 3537   5.459   4.865   7.923  1.1984 -0.4464 -0.0988
   48CHL1  H23A 3538   5.355   4.834   7.945  0.8339  0.3464 -0.6748
   48CHL1  H23B 3539   5.522   4.775   7.938  0.0987 -1.2253 -0.0309
   48CHL1   C24 3540   5.505   4.970   8.034 -0.4031 -0.2278 -0.6266
   48CHL1  H24A 3541   5.610   4.998   8.009 -0.1645 -0.9632 -0.4596
   48CHL1  H24B 3542   5.447   5.063   8.018 -1.6004 -0.3896  2.2406
   48CHL1   C25 3543   5.492   4.917   8.178  0.0235 -0.3424 -0.1601
   48CHL1   H25 3544   5.541   4.817   8.179 -1.6191 -1.1740 -0.3579
   48CHL1   C26 3545   5.573   5.003   8.283  0.4545  0.4226  0.2523
   48CHL1  H26A 3546   5.658   5.062   8.243 -2.5293  3.6923 -1.7762
   48CHL1  H26B 3547   5.500   5.078   8.319  0.3923  1.0072 -1.0420
   48CHL1  H26C 3548   5.619   4.938   8.361  2.4514 -0.5622 -1.6531
   48CHL1   C27 3549   5.346   4.890   8.227 -0.0842 -0.4544  0.6318
   48CHL1  H27A 3550   5.292   4.985   8.242  0.7860  0.2104 -0.3369
   48CHL1  H27B 3551   5.306   4.821   8.149  2.2655  0.6170 -1.6947
   48CHL1  H27C 3552   5.352   4.834   8.323  5.1088 -1.3533  0.0702
   49CHL1    C3 3553   3.783   5.684   6.964  0.3217  0.6647 -0.0841
   49CHL1    H3 3554   3.880   5.634   6.945  0.3794  1.4126 -2.0638
   49CHL1    O3 3555   3.728   5.741   6.844  0.2721  0.2701 -0.3619
   49CHL1   H3' 3556   3.637   5.711   6.836 -0.0598  0.4696  1.9286
   49CHL1    C4 3557   3.678   5.596   7.029 -1.0469 -0.1434 -0.0899
   49CHL1   H4A 3558   3.586   5.657   7.028 -0.4860  0.7198 -0.8852
   49CHL1   H4B 3559   3.652   5.522   6.950 -0.7936  0.3710 -0.6617
   49CHL1    C5 3560   3.715   5.551   7.171  0.0332  0.0351 -0.1084
   49CHL1    C6 3561   3.698   5.422   7.215 -0.6824 -0.1133  0.8131
   49CHL1    H6 3562   3.664   5.338   7.153  0.7237 -0.9552  1.1415
   49CHL1    C7 3563   3.716   5.388   7.364  1.0252  0.3377 -0.5844
   49CHL1   H7A 3564   3.637   5.319   7.401 -0.5440  2.5320  0.3934
   49CHL1   H7B 3565   3.811   5.330   7.367  0.7822 -0.2134 -2.1962
   49CHL1    C8 3566   3.715   5.508   7.466 -0.2333 -0.1884 -0.3014
   49CHL1    H8 3567   3.609   5.538   7.483 -0.3403 -0.6393 -0.1609
   49CHL1   C14 3568   3.760   5.476   7.606 -0.7275 -0.0108 -0.2908
   49CHL1   H14 3569   3.867   5.448   7.612 -0.6379  0.5410  1.2590
   49CHL1   C15 3570   3.690   5.357   7.683  0.0347 -0.4834  0.3565
   49CHL1  H15A 3571   3.582   5.365   7.656  1.1926 -0.0184 -5.2996
   49CHL1  H15B 3572   3.722   5.262   7.635  0.3125 -0.5737  0.7207
   49CHL1   C16 3573   3.703   5.392   7.833 -0.4744  0.2959  0.1342
   49CHL1  H16A 3574   3.604   5.405   7.882 -0.7650 -0.8212 -0.1161
   49CHL1  H16B 3575   3.759   5.313   7.888 -0.3957  0.5690  0.4491
   49CHL1   C17 3576   3.778   5.531   7.839  0.6255 -0.8370 -0.1421
   49CHL1   H17 3577   3.884   5.503   7.820  1.6602  0.5090  2.9556
   49CHL1   C13 3578   3.749   5.596   7.701  0.2821  0.3152 -0.1112
   49CHL1   C18 3579   3.610   5.660   7.705 -0.1554  0.6008  0.2632
   49CHL1  H18A 3580   3.531   5.592   7.742  1.0079 -0.1699  1.4415
   49CHL1  H18B 3581   3.634   5.742   7.777  2.6333 -0.1413  0.2903
   49CHL1  H18C 3582   3.576   5.691   7.604  1.7069 -0.0726 -0.6162
   49CHL1   C12 3583   3.854   5.698   7.654  0.1234  0.4183 -0.2121
   49CHL1  H12A 3584   3.854   5.783   7.725  0.1897 -0.2804  0.6446
   49CHL1  H12B 3585   3.955   5.651   7.655  0.1663  0.5092 -0.2199
   49CHL1   C11 3586   3.830   5.742   7.515  0.2597 -0.5477  0.1859
   49CHL1  H11A 3587   3.743   5.811   7.523 -1.9309 -2.9457 -1.4423
   49CHL1  H11B 3588   3.916   5.806   7.485  1.5199 -1.7630  1.0831
   49CHL1    C9 3589   3.800   5.625   7.412  0.8326  0.1378 -0.0917
   49CHL1    H9 3590   3.896   5.581   7.379  0.0960 -1.0255 -0.7319
   49CHL1   C10 3591   3.751   5.664   7.270  0.4024 -0.2789  0.2021
   49CHL1   C19 3592   3.615   5.746   7.284 -0.1755 -0.2046  0.0993
   49CHL1  H19A 3593   3.627   5.841   7.342  0.3798  1.1675 -2.1629
   49CHL1  H19B 3594   3.571   5.784   7.190  1.0044  0.7357 -0.0928
   49CHL1  H19C 3595   3.543   5.689   7.347  0.5402  0.7632  1.8848
   49CHL1    C1 3596   3.859   5.755   7.202  0.0421  0.1252  0.4416
   49CHL1   H1A 3597   3.868   5.849   7.261 -0.8938  1.0033 -0.7755
   49CHL1   H1B 3598   3.951   5.693   7.197 -0.6975 -1.0238  0.7369
   49CHL1    C2 3599   3.818   5.803   7.061  0.0661 -0.0659  0.1165
   49CHL1   H2A 3600   3.887   5.878   7.017 -0.5934 -0.6843 -2.1323
   49CHL1   H2B 3601   3.726   5.866   7.064  0.4240  0.4882 -0.3849
   49CHL1   C20 3602   3.764   5.596   7.984 -0.5609 -0.1753  1.0305
   49CHL1   H20 3603   3.662   5.636   8.003  1.2669  3.8688  3.8076
   49CHL1   C21 3604   3.859   5.723   7.980 -0.1502  0.2353 -0.7314
   49CHL1  H21A 3605   3.956   5.699   7.932  0.3296  0.5752  0.0432
   49CHL1  H21B 3606   3.864   5.765   8.083  0.8620 -0.4901 -0.4624
   49CHL1  H21C 3607   3.811   5.804   7.922 -1.9368  0.5976  1.1450
   49CHL1   C22 3608   3.810   5.491   8.088 -0.1824 -0.9766 -0.3060
   49CHL1  H22A 3609   3.738   5.406   8.095  0.2577 -1.2528  1.3383
   49CHL1  H22B 3610   3.912   5.460   8.057  0.3765  0.6061 -0.1400
   49CHL1   C23 3611   3.813   5.532   8.234 -0.1357 -0.5049  0.2055
   49CHL1  H23A 3612   3.876   5.624   8.240 -0.6478 -0.1821  0.6709
   49CHL1  H23B 3613   3.712   5.563   8.266  0.1719  2.4341 -1.2525
   49CHL1   C24 3614   3.870   5.426   8.326  0.2523 -0.5957 -0.2511
   49CHL1  H24A 3615   3.827   5.325   8.309  0.8715 -1.5333  3.0267
   49CHL1  H24B 3616   3.976   5.408   8.297  0.9617  0.3561  1.5705
   49CHL1   C25 3617   3.850   5.448   8.476 -0.1827 -0.0112 -0.4755
   49CHL1   H25 3618   3.743   5.441   8.504 -0.4741 -0.0347 -1.5770
   49CHL1   C26 3619   3.921   5.332   8.554 -0.0070  0.1182 -0.1196
   49CHL1  H26A 3620   3.914   5.350   8.663 -0.5438  0.3233 -0.1828
   49CHL1  H26B 3621   3.874   5.235   8.526 -1.8590  0.9462 -0.0858
   49CHL1  H26C 3622   4.028   5.330   8.526  0.1787  2.4598  0.2201
   49CHL1   C27 3623   3.894   5.587   8.524 -0.1804 -0.1364  0.1995
   49CHL1  H27A 3624   3.845   5.671   8.470 -0.3360 -0.2203  0.2093
   49CHL1  H27B 3625   3.867   5.601   8.631 -1.0170  1.6027 -0.2074
   49CHL1  H27C 3626   4.002   5.608   8.510  0.0316 -1.0026  0.4946
   50CHL1    C3 3627   3.721   1.870   6.714  0.0923 -0.3817  0.4414
   50CHL1    H3 3628   3.647   1.953   6.726  0.2848  0.3349 -2.4236
   50CHL1    O3 3629   3.713   1.833   6.579 -0.1283  0.2291 -0.4698
   50CHL1   H3' 3630   3.795   1.790   6.555 -1.3118 -0.9839 -2.7612
   50CHL1    C4 3631   3.856   1.931   6.753  0.5116 -0.0385  0.2286
   50CHL1   H4A 3632   3.926   1.847   6.732  1.2671 -0.0422  2.4542
   50CHL1   H4B 3633   3.881   2.011   6.681  2.8744 -1.6198 -0.8499
   50CHL1    C5 3634   3.861   1.968   6.903 -0.2071  0.9751  0.0049
   50CHL1    C6 3635   3.881   2.098   6.933  0.0332  0.4774  0.4813
   50CHL1    H6 3636   3.878   2.175   6.854 -0.5888 -0.0519 -0.0234
   50CHL1    C7 3637   3.877   2.153   7.073  0.1520 -0.3546 -0.1188
   50CHL1   H7A 3638   3.945   2.242   7.079  0.0839 -0.2577 -0.7704
   50CHL1   H7B 3639   3.779   2.203   7.085  0.6290  0.2896  1.3863
   50CHL1    C8 3640   3.898   2.042   7.181 -0.4147 -0.9161  0.5963
   50CHL1    H8 3641   4.005   2.011   7.178 -0.3686 -1.0051  2.2588
   50CHL1   C14 3642   3.868   2.098   7.318 -0.5922 -0.1172  0.0236
   50CHL1   H14 3643   3.760   2.124   7.322 -0.8509 -0.7567 -1.9681
   50CHL1   C15 3644   3.949   2.217   7.373 -0.6501 -0.1625  0.5603
   50CHL1  H15A 3645   4.055   2.194   7.350 -0.4396  0.9271  0.3769
   50CHL1  H15B 3646   3.925   2.314   7.324 -3.7830 -1.6257 -1.0956
   50CHL1   C16 3647   3.904   2.225   7.517 -0.3012 -0.2544  0.2425
   50CHL1  H16A 3648   3.991   2.249   7.582 -0.8053  0.6389  0.6059
   50CHL1  H16B 3649   3.831   2.308   7.519 -0.4746 -0.3922  2.2810
   50CHL1   C17 3650   3.846   2.083   7.554 -1.0706  0.2606 -0.5902
   50CHL1   H17 3651   3.735   2.085   7.548 -1.2359 -1.7724  0.9056
   50CHL1   C13 3652   3.883   1.993   7.430  0.5580 -0.2218 -0.3810
   50CHL1   C18 3653   4.028   1.942   7.453  0.6316 -0.3929  0.0465
   50CHL1  H18A 3654   4.074   1.902   7.360 -2.0676  0.8201 -1.9377
   50CHL1  H18B 3655   4.088   2.018   7.507 -0.5494 -1.4904  3.1331
   50CHL1  H18C 3656   4.026   1.851   7.517  0.4980  0.9396  2.0177
   50CHL1   C12 3657   3.783   1.878   7.401  0.0687  0.1453  0.3457
   50CHL1  H12A 3658   3.789   1.802   7.482  3.7983  1.5468  1.5876
   50CHL1  H12B 3659   3.679   1.918   7.397  0.7384  2.0322 -3.7575
   50CHL1   C11 3660   3.821   1.817   7.260  0.3241 -0.8646 -0.4321
   50CHL1  H11A 3661   3.913   1.754   7.260  0.6026 -0.4912  1.2749
   50CHL1  H11B 3662   3.737   1.750   7.231 -2.2438  1.5883  0.9281
   50CHL1    C9 3663   3.816   1.920   7.146  0.2201 -0.2462  0.4394
   50CHL1    H9 3664   3.713   1.960   7.155  0.5712  1.0772 -1.0486
   50CHL1   C10 3665   3.831   1.860   7.004 -0.0227  0.3319 -0.0354
   50CHL1   C19 3666   3.950   1.767   7.001 -0.0533 -0.0267  0.2732
   50CHL1  H19A 3667   3.945   1.683   7.074 -1.5099  2.2421  2.9693
   50CHL1  H19B 3668   3.949   1.730   6.896 -0.2569 -1.3327  0.7108
   50CHL1  H19C 3669   4.046   1.820   7.017  0.0935  0.0774 -0.9074
   50CHL1    C1 3670   3.691   1.789   6.952  0.3484  0.4678  0.1807
   50CHL1   H1A 3671   3.684   1.689   7.001 -1.8937 -0.3685 -1.6314
   50CHL1   H1B 3672   3.606   1.853   6.984  0.9043  0.9087  0.8034
   50CHL1    C2 3673   3.674   1.759   6.802  0.3071 -0.6558  0.3154
   50CHL1   H2A 3674   3.573   1.728   6.769 -0.1203  0.7232  0.2930
   50CHL1   H2B 3675   3.740   1.671   6.783 -0.7436 -2.2434  3.2687
   50CHL1   C20 3676   3.886   2.035   7.696  0.4580  0.8194  0.9865
   50CHL1   H20 3677   3.997   2.032   7.703  0.6263  1.4987 -0.9433
   50CHL1   C21 3678   3.831   1.893   7.713 -0.7334  0.0451 -0.1552
   50CHL1  H21A 3679   3.807   1.876   7.820  1.1789  0.0561  0.3199
   50CHL1  H21B 3680   3.901   1.816   7.673  1.5881  1.0663  1.6696
   50CHL1  H21C 3681   3.730   1.889   7.667 -0.3802  0.8078 -1.0201
   50CHL1   C22 3682   3.837   2.139   7.804 -0.8936  0.1832  0.1109
   50CHL1  H22A 3683   3.873   2.086   7.895  0.1009 -2.2209 -1.5942
   50CHL1  H22B 3684   3.895   2.234   7.799  0.0771 -0.3633  0.8201
   50CHL1   C23 3685   3.683   2.162   7.806  0.3994 -0.4253  0.3267
   50CHL1  H23A 3686   3.662   2.218   7.712  2.0646 -1.1669 -0.5424
   50CHL1  H23B 3687   3.620   2.072   7.817 -0.1592 -0.1421 -0.4153
   50CHL1   C24 3688   3.652   2.251   7.936 -0.0249 -0.2240  0.7811
   50CHL1  H24A 3689   3.716   2.341   7.929 -2.2926  1.4211 -0.0551
   50CHL1  H24B 3690   3.549   2.287   7.914  0.7207  2.0513  0.7270
   50CHL1   C25 3691   3.660   2.169   8.065  0.0393 -0.5747  0.2214
   50CHL1   H25 3692   3.769   2.150   8.064  0.7267  2.8030 -0.5640
   50CHL1   C26 3693   3.630   2.249   8.193  0.3095 -0.4919 -0.2522
   50CHL1  H26A 3694   3.519   2.257   8.194  0.3324 -0.1319  0.6913
   50CHL1  H26B 3695   3.681   2.204   8.281  0.6338  2.2428  1.0953
   50CHL1  H26C 3696   3.662   2.355   8.185  1.1133 -0.7266 -0.1788
   50CHL1   C27 3697   3.587   2.033   8.073 -0.3057 -0.0434 -0.1546
   50CHL1  H27A 3698   3.612   1.983   8.168 -0.6421 -1.0988 -0.6059
   50CHL1  H27B 3699   3.477   2.051   8.080 -0.3410  0.8114 -2.1410
   50CHL1  H27C 3700   3.601   1.956   7.994 -1.5992 -0.3171 -0.1486
   51CHL1    C3 3701   5.439   0.041   6.801  0.0392  0.6080  0.5964
   51CHL1    H3 3702   5.369  -0.044   6.818  0.8844 -1.2143 -3.7814
   51CHL1    O3 3703   5.476   0.038   6.662  0.1901  0.2450 -0.0503
   51CHL1   H3' 3704   5.509   0.126   6.639 -1.2364  0.2825 -2.2805
   51CHL1    C4 3705   5.374   0.177   6.844 -0.4228 -0.8400 -0.1510
   51CHL1   H4A 3706   5.452   0.248   6.810 -0.7650  1.6822  3.7194
   51CHL1   H4B 3707   5.283   0.206   6.788 -0.0863  1.1250  0.2463
   51CHL1    C5 3708   5.359   0.195   6.995  0.0242  0.8860  0.0947
   51CHL1    C6 3709   5.239   0.227   7.033  0.1872 -0.8471 -0.3713
   51CHL1    H6 3710   5.154   0.235   6.964  0.2811 -0.7268 -0.4729
   51CHL1    C7 3711   5.207   0.241   7.182  0.3696 -0.8764 -0.1556
   51CHL1   H7A 3712   5.154   0.337   7.201  0.3612 -0.7460 -0.8099
   51CHL1   H7B 3713   5.143   0.154   7.208 -0.1113 -0.4245  0.1992
   51CHL1    C8 3714   5.331   0.240   7.279 -0.1839  0.0868 -0.2418
   51CHL1    H8 3715   5.364   0.345   7.286 -2.0613  0.7149 -0.2347
   51CHL1   C14 3716   5.277   0.199   7.420 -0.1839  0.2779 -0.3421
   51CHL1   H14 3717   5.235   0.097   7.413  0.2527 -0.0475  1.4759
   51CHL1   C15 3718   5.172   0.290   7.479 -0.4487 -0.6020 -0.1713
   51CHL1  H15A 3719   5.201   0.394   7.454 -2.1998 -0.2303 -0.8027
   51CHL1  H15B 3720   5.067   0.273   7.445 -0.7567 -4.1514  2.0193
   51CHL1   C16 3721   5.181   0.267   7.630 -0.2056 -0.0125 -0.0091
   51CHL1  H16A 3722   5.205   0.361   7.683 -1.1836 -0.2399  0.8755
   51CHL1  H16B 3723   5.082   0.230   7.665 -0.1060  0.3235  0.6368
   51CHL1   C17 3724   5.303   0.166   7.651  0.9251 -0.2401  0.3015
   51CHL1   H17 3725   5.259   0.065   7.643 -0.7529  0.4654  0.0742
   51CHL1   C13 3726   5.387   0.189   7.522 -0.4364  0.0053  0.0005
   51CHL1   C18 3727   5.453   0.339   7.524 -0.3547 -0.4057 -0.4175
   51CHL1  H18A 3728   5.542   0.323   7.588 -0.1018  0.4334 -0.5477
   51CHL1  H18B 3729   5.491   0.371   7.424  0.4516  2.4709  0.7186
   51CHL1  H18C 3730   5.388   0.424   7.553 -1.6492 -2.0760  1.8433
   51CHL1   C12 3731   5.489   0.084   7.480 -0.1590 -0.1985 -0.0756
   51CHL1  H12A 3732   5.570   0.081   7.556 -0.7534 -2.3686  0.5533
   51CHL1  H12B 3733   5.432  -0.012   7.480  1.1221 -0.9848  0.4065
   51CHL1   C11 3734   5.546   0.096   7.332 -0.0148  0.0804 -0.7432
   51CHL1  H11A 3735   5.619   0.180   7.329  0.4124 -0.2828 -0.5628
   51CHL1  H11B 3736   5.597   0.000   7.308 -0.9169 -0.7733  0.6398
   51CHL1    C9 3737   5.434   0.132   7.227  0.1408  0.2183  0.2242
   51CHL1    H9 3738   5.377   0.037   7.238  1.2969 -0.6551 -0.9889
   51CHL1   C10 3739   5.478   0.147   7.077 -0.0890 -0.2571  0.0153
   51CHL1   C19 3740   5.581   0.259   7.063  0.2903  0.5177 -0.1974
   51CHL1  H19A 3741   5.662   0.241   7.138  0.3019 -2.0705 -0.7108
   51CHL1  H19B 3742   5.637   0.244   6.968  1.6113 -1.6799  0.8373
   51CHL1  H19C 3743   5.544   0.360   7.090  0.8913  0.1418  2.1834
   51CHL1    C1 3744   5.532   0.009   7.026 -0.4799 -0.4156 -0.2012
   51CHL1   H1A 3745   5.630  -0.005   7.076 -0.5203  1.4834  0.5107
   51CHL1   H1B 3746   5.462  -0.071   7.056  0.7202 -0.8441  1.6590
   51CHL1    C2 3747   5.562   0.002   6.877  0.0127  0.3497 -0.7836
   51CHL1   H2A 3748   5.595  -0.103   6.859  0.3452  0.4600 -0.8344
   51CHL1   H2B 3749   5.641   0.074   6.846  1.0999 -0.4773 -0.0408
   51CHL1   C20 3750   5.364   0.179   7.789 -0.3388 -0.5421 -0.5543
   51CHL1   H20 3751   5.407   0.281   7.802  1.0834 -1.1925  0.0572
   51CHL1   C21 3752   5.486   0.076   7.793  0.3954  0.3485  0.4481
   51CHL1  H21A 3753   5.458  -0.012   7.731 -0.4316  1.2082 -0.4325
   51CHL1  H21B 3754   5.510   0.044   7.897 -2.6704 -1.4616  0.7157
   51CHL1  H21C 3755   5.578   0.116   7.745  1.0597 -2.5970 -0.9596
   51CHL1   C22 3756   5.261   0.160   7.903  0.6280 -0.2691  0.2082
   51CHL1  H22A 3757   5.191   0.244   7.888  0.1662 -0.5332  0.8305
   51CHL1  H22B 3758   5.208   0.062   7.901 -0.4930  0.2486  1.9512
   51CHL1   C23 3759   5.308   0.184   8.050  0.1152  0.1039 -0.5313
   51CHL1  H23A 3760   5.407   0.133   8.061  0.3705  0.9066  1.2131
   51CHL1  H23B 3761   5.314   0.295   8.056 -0.8972  0.1915 -0.9752
   51CHL1   C24 3762   5.193   0.152   8.151 -0.1934  0.6729 -0.2522
   51CHL1  H24A 3763   5.111   0.226   8.141  0.0551  0.9422 -0.2818
   51CHL1  H24B 3764   5.159   0.048   8.127 -2.0127  0.7030  1.8514
   51CHL1   C25 3765   5.240   0.148   8.293  0.3111 -0.2726  0.0790
   51CHL1   H25 3766   5.325   0.076   8.300  1.0711  0.5636 -0.3254
   51CHL1   C26 3767   5.285   0.283   8.343 -0.1441 -0.4420 -0.3182
   51CHL1  H26A 3768   5.279   0.287   8.453  0.5966 -1.6238 -0.2212
   51CHL1  H26B 3769   5.391   0.298   8.310 -0.4771 -0.3137 -1.3887
   51CHL1  H26C 3770   5.216   0.359   8.300  1.8326  1.1558 -0.8409
   51CHL1   C27 3771   5.127   0.107   8.384 -0.2060 -0.5688  0.1020
   51CHL1  H27A 3772   5.116  -0.001   8.362 -1.5358 -1.0157  2.5823
   51CHL1  H27B 3773   5.172   0.111   8.486 -0.0568 -0.4651  0.0319
   51CHL1  H27C 3774   5.045   0.179   8.364  0.3309 -0.4227 -1.7823
   52CHL1    C3 3775   5.039   1.162   6.812  0.4698  0.0142  0.8368
   52CHL1    H3 3776   5.095   1.215   6.892  3.1257 -0.8587 -0.3297
   52CHL1    O3 3777   5.076   1.226   6.696  0.3672  0.1941 -0.0433
   52CHL1   H3' 3778   5.000   1.214   6.638 -0.0544 -0.7646  0.6694
   52CHL1    C4 3779   5.090   1.020   6.812 -0.1343  0.2770 -0.0434
   52CHL1   H4A 3780   5.051   0.950   6.735  0.4782 -0.9428  0.7132
   52CHL1   H4B 3781   5.197   1.027   6.785  0.0560 -0.3463  0.5210
   52CHL1    C5 3782   5.064   0.964   6.946  0.2781  0.6690 -0.9500
   52CHL1    C6 3783   5.165   0.912   7.019  0.2445 -0.2563 -0.5095
   52CHL1    H6 3784   5.267   0.904   6.980 -0.2574 -3.3613 -1.5125
   52CHL1    C7 3785   5.145   0.838   7.153  0.3521  0.3990 -0.0009
   52CHL1   H7A 3786   5.191   0.738   7.155 -0.9192 -0.1932  1.4780
   52CHL1   H7B 3787   5.204   0.884   7.235  1.1816 -0.8470  0.1207
   52CHL1    C8 3788   4.994   0.822   7.195 -0.1808  0.2293  0.0286
   52CHL1    H8 3789   4.959   0.730   7.142 -0.8434 -1.3379  2.9799
   52CHL1   C14 3790   4.989   0.800   7.344  0.7077  0.0399  0.0780
   52CHL1   H14 3791   5.013   0.899   7.387  1.2551  1.1485 -2.5814
   52CHL1   C15 3792   5.082   0.698   7.417 -0.1939 -0.4089 -0.3609
   52CHL1  H15A 3793   5.095   0.612   7.348 -3.2677 -1.0557 -0.2752
   52CHL1  H15B 3794   5.177   0.749   7.444  0.3504 -1.2765 -0.5844
   52CHL1   C16 3795   5.012   0.659   7.549  0.9348 -0.0819  0.1135
   52CHL1  H16A 3796   4.996   0.549   7.547  0.4608 -0.0290  0.6962
   52CHL1  H16B 3797   5.066   0.693   7.640 -0.0222  1.2184  0.2149
   52CHL1   C17 3798   4.873   0.737   7.543 -0.3803 -0.2577  0.2561
   52CHL1   H17 3799   4.893   0.836   7.589 -1.2905 -0.3299  0.8145
   52CHL1   C13 3800   4.845   0.764   7.399  1.0695 -0.2706  1.0675
   52CHL1   C18 3801   4.797   0.636   7.335 -0.0558  0.7946 -0.0909
   52CHL1  H18A 3802   4.858   0.556   7.382 -1.9234  0.3394  1.7135
   52CHL1  H18B 3803   4.696   0.599   7.364 -0.5458  2.2410  0.1264
   52CHL1  H18C 3804   4.804   0.638   7.224 -0.6267  2.2493 -0.1158
   52CHL1   C12 3805   4.763   0.889   7.363  0.3556  0.6102  0.4417
   52CHL1  H12A 3806   4.656   0.862   7.379  0.5567 -1.1805 -0.9185
   52CHL1  H12B 3807   4.777   0.972   7.435 -0.4647  1.2438 -0.1078
   52CHL1   C11 3808   4.773   0.920   7.213  1.0697 -0.3144  0.0134
   52CHL1  H11A 3809   4.714   0.840   7.163  2.6499 -0.9160 -0.9607
   52CHL1  H11B 3810   4.710   1.008   7.186  0.1028 -1.1887 -0.6634
   52CHL1    C9 3811   4.911   0.937   7.148 -0.1136  0.4400 -0.3122
   52CHL1    H9 3812   4.946   1.029   7.200  0.4764  0.3975 -0.6324
   52CHL1   C10 3813   4.922   0.967   6.996 -1.0027 -0.2477  0.3466
   52CHL1   C19 3814   4.828   0.860   6.923 -0.6416 -0.2269 -0.4030
   52CHL1  H19A 3815   4.871   0.761   6.951 -2.8817 -1.3469 -0.7133
   52CHL1  H19B 3816   4.727   0.871   6.966 -0.1417 -0.0451  0.7604
   52CHL1  H19C 3817   4.826   0.877   6.813  3.2164  2.0259 -0.2893
   52CHL1    C1 3818   4.860   1.109   6.973 -0.2131 -0.2933  0.0645
   52CHL1   H1A 3819   4.751   1.109   6.999 -0.5298  2.3542 -0.9524
   52CHL1   H1B 3820   4.911   1.175   7.046  0.1761 -1.5915  1.0162
   52CHL1    C2 3821   4.890   1.172   6.835  0.5198 -0.0957  0.2815
   52CHL1   H2A 3822   4.858   1.278   6.838  0.0841 -0.2352  0.6896
   52CHL1   H2B 3823   4.829   1.130   6.752 -0.5285 -1.3683  1.6537
   52CHL1   C20 3824   4.775   0.662   7.628  0.2646  0.0699  0.4863
   52CHL1   H20 3825   4.750   0.564   7.582 -1.4683  0.6544  0.1366
   52CHL1   C21 3826   4.643   0.737   7.638 -0.3922 -0.1006  0.0439
   52CHL1  H21A 3827   4.597   0.775   7.545 -0.2913  0.8892  0.3874
   52CHL1  H21B 3828   4.668   0.831   7.692  0.6986 -0.8175  0.8297
   52CHL1  H21C 3829   4.566   0.675   7.690 -1.1929 -0.2050 -1.2222
   52CHL1   C22 3830   4.828   0.623   7.763  0.8426 -0.6999 -0.9053
   52CHL1  H22A 3831   4.751   0.584   7.832  1.2016 -0.0581 -0.1196
   52CHL1  H22B 3832   4.914   0.553   7.758  0.5773 -1.0030 -1.2596
   52CHL1   C23 3833   4.893   0.743   7.843  0.4496  0.1894  0.7236
   52CHL1  H23A 3834   4.977   0.794   7.790  0.2160  0.7100  0.8499
   52CHL1  H23B 3835   4.820   0.824   7.861  1.0044  0.9978 -0.5090
   52CHL1   C24 3836   4.947   0.712   7.981 -0.3143  0.0379 -0.0371
   52CHL1  H24A 3837   5.008   0.798   8.017  1.8488 -0.1803 -2.8627
   52CHL1  H24B 3838   4.858   0.695   8.046  0.2198 -0.7550  0.5073
   52CHL1   C25 3839   5.053   0.601   7.997  0.4694  0.7119 -0.1549
   52CHL1   H25 3840   5.002   0.508   7.964  0.0379  1.1153 -0.6438
   52CHL1   C26 3841   5.176   0.611   7.902  0.1695  0.3794 -0.1477
   52CHL1  H26A 3842   5.158   0.590   7.795  1.5288 -2.1706  0.0517
   52CHL1  H26B 3843   5.224   0.711   7.917  2.2155 -0.6936  0.8789
   52CHL1  H26C 3844   5.250   0.535   7.935  0.0788 -0.4853 -1.8539
   52CHL1   C27 3845   5.100   0.579   8.140  0.4581  0.0010 -0.2912
   52CHL1  H27A 3846   5.153   0.667   8.182  1.1433 -1.0372  1.1328
   52CHL1  H27B 3847   5.009   0.554   8.200  0.3371 -1.7678 -1.1347
   52CHL1  H27C 3848   5.170   0.493   8.152  0.7122  0.2382 -0.0625
   53CHL1    C3 3849   2.123   5.304   7.085  0.2616 -0.1552 -0.1917
   53CHL1    H3 3850   2.196   5.383   7.114  1.4743 -1.1769 -0.3216
   53CHL1    O3 3851   2.142   5.260   6.949 -0.9461  0.5949  0.0375
   53CHL1   H3' 3852   2.063   5.214   6.919  0.0459 -1.9564  1.0636
   53CHL1    C4 3853   2.147   5.185   7.179 -0.4949  0.9240 -0.5865
   53CHL1   H4A 3854   2.076   5.101   7.162 -0.3207  0.7713 -0.5650
   53CHL1   H4B 3855   2.243   5.133   7.161 -0.3688  1.0679 -0.3268
   53CHL1    C5 3856   2.137   5.216   7.320 -0.3304  0.6135  0.7663
   53CHL1    C6 3857   2.238   5.208   7.403 -0.2329  0.1313  0.6108
   53CHL1    H6 3858   2.340   5.175   7.378  0.4198  0.0127  3.0885
   53CHL1    C7 3859   2.226   5.249   7.548  0.5934  0.1030 -0.7453
   53CHL1   H7A 3860   2.268   5.170   7.614  0.6079 -1.1573 -2.2163
   53CHL1   H7B 3861   2.289   5.340   7.560 -0.3039  0.7088 -0.5264
   53CHL1    C8 3862   2.081   5.276   7.600  0.1306 -0.1175  0.2113
   53CHL1    H8 3863   2.046   5.177   7.638  1.8773  0.2238  2.9367
   53CHL1   C14 3864   2.088   5.371   7.719  0.8031  0.7447 -0.4777
   53CHL1   H14 3865   2.120   5.467   7.674  0.8187 -0.6197 -3.6784
   53CHL1   C15 3866   2.185   5.341   7.835  0.6594  0.3040 -0.4777
   53CHL1  H15A 3867   2.193   5.234   7.864  0.6829  0.6942  0.9817
   53CHL1  H15B 3868   2.288   5.368   7.800  0.4484  0.9883 -0.5877
   53CHL1   C16 3869   2.121   5.425   7.944  0.6444  0.4169  0.0331
   53CHL1  H16A 3870   2.111   5.363   8.036 -0.9290  0.1463 -0.2812
   53CHL1  H16B 3871   2.190   5.509   7.965 -1.6269  1.9978  1.7671
   53CHL1   C17 3872   1.981   5.476   7.901  0.2917 -0.1459 -0.1919
   53CHL1   H17 3873   2.014   5.575   7.864 -0.1320 -0.9548 -2.9841
   53CHL1   C13 3874   1.950   5.393   7.780  0.3255  0.1905 -0.4833
   53CHL1   C18 3875   1.886   5.254   7.825 -0.2995  0.2667  0.0504
   53CHL1  H18A 3876   1.861   5.195   7.734  1.0269 -1.0074  0.4821
   53CHL1  H18B 3877   1.955   5.184   7.876 -3.1687 -1.6904  1.4445
   53CHL1  H18C 3878   1.798   5.273   7.889  0.1528  2.2359  0.1546
   53CHL1   C12 3879   1.863   5.464   7.664 -0.0012 -0.3909 -0.0961
   53CHL1  H12A 3880   1.759   5.477   7.700 -0.1361  0.2063 -0.6723
   53CHL1  H12B 3881   1.899   5.566   7.636 -1.2450 -0.0649 -0.5760
   53CHL1   C11 3882   1.857   5.375   7.541 -0.2846 -0.0706  0.4389
   53CHL1  H11A 3883   1.790   5.288   7.560  2.0115 -1.7593  1.2227
   53CHL1  H11B 3884   1.808   5.439   7.465  1.7971  0.1165 -0.8284
   53CHL1    C9 3885   1.995   5.340   7.493  0.7755 -0.4163  0.0889
   53CHL1    H9 3886   2.042   5.439   7.475 -1.9644  0.6038 -2.1934
   53CHL1   C10 3887   1.999   5.275   7.359  0.0905  0.5618 -0.0664
   53CHL1   C19 3888   1.897   5.160   7.353 -0.1745 -0.1852  0.4411
   53CHL1  H19A 3889   1.901   5.110   7.254 -0.9564  2.3065 -0.9255
   53CHL1  H19B 3890   1.916   5.085   7.433  0.2532  1.6775  2.1661
   53CHL1  H19C 3891   1.792   5.192   7.368 -0.6311 -1.1497 -0.5482
   53CHL1    C1 3892   1.948   5.374   7.252  0.0638 -0.9834 -0.5897
   53CHL1   H1A 3893   1.839   5.394   7.263  0.0588  1.9098 -4.0642
   53CHL1   H1B 3894   2.008   5.467   7.268  0.1088 -1.2445  0.9406
   53CHL1    C2 3895   1.974   5.331   7.100  0.0425  0.0195 -0.3884
   53CHL1   H2A 3896   1.940   5.402   7.023 -0.5370 -2.2265 -2.3207
   53CHL1   H2B 3897   1.915   5.242   7.069 -1.4323  0.1690  1.7609
   53CHL1   C20 3898   1.881   5.494   8.015  1.0718 -0.8447 -0.3924
   53CHL1   H20 3899   1.847   5.395   8.053  0.3172 -0.6836 -0.6363
   53CHL1   C21 3900   1.744   5.548   7.968 -0.2153 -0.3116  0.2198
   53CHL1  H21A 3901   1.755   5.644   7.912 -1.6001  0.2431  0.8498
   53CHL1  H21B 3902   1.679   5.552   8.057 -0.4994 -4.3490  0.3780
   53CHL1  H21C 3903   1.690   5.472   7.907 -0.8164  2.7832 -3.5813
   53CHL1   C22 3904   1.946   5.569   8.135 -0.0223  1.0276  0.5394
   53CHL1  H22A 3905   2.022   5.509   8.190 -0.5057  1.1090  1.3022
   53CHL1  H22B 3906   1.987   5.658   8.083 -0.8518  1.0181 -0.1579
   53CHL1   C23 3907   1.854   5.618   8.243 -0.1418 -0.0395  0.3561
   53CHL1  H23A 3908   1.785   5.698   8.210  0.9686  0.5677 -0.5566
   53CHL1  H23B 3909   1.791   5.540   8.292 -0.1665  1.8048  3.5259
   53CHL1   C24 3910   1.936   5.683   8.354 -0.2409  0.2040  0.5211
   53CHL1  H24A 3911   2.003   5.605   8.396  0.5940  0.5718 -0.1029
   53CHL1  H24B 3912   2.008   5.755   8.310 -0.3477  0.4900  0.8099
   53CHL1   C25 3913   1.859   5.763   8.462 -0.4060 -0.0161  0.2204
   53CHL1   H25 3914   1.794   5.826   8.399  1.3324  0.0694 -1.5785
   53CHL1   C26 3915   1.777   5.682   8.560 -0.4972  0.1524  0.3723
   53CHL1  H26A 3916   1.704   5.746   8.615 -1.9390 -1.5353  0.4988
   53CHL1  H26B 3917   1.726   5.601   8.504 -1.3218  1.8287 -1.4011
   53CHL1  H26C 3918   1.844   5.639   8.637  3.3804  3.2395 -0.9203
   53CHL1   C27 3919   1.952   5.855   8.543  0.1245 -0.8741 -0.0891
   53CHL1  H27A 3920   1.893   5.919   8.613  0.9363 -1.5099  1.1981
   53CHL1  H27B 3921   2.014   5.787   8.604 -2.0866 -2.3435  0.6343
   53CHL1  H27C 3922   2.013   5.924   8.480  0.0221 -0.2681  0.4620
   54CHL1    C3 3923   3.250   1.388   6.695 -0.1945 -0.3252 -0.4079
   54CHL1    H3 3924   3.150   1.399   6.740 -0.8134  1.1094 -2.0054
   54CHL1    O3 3925   3.232   1.381   6.556  0.4776  0.2021  0.7707
   54CHL1   H3' 3926   3.199   1.465   6.523  0.8681 -0.3946 -1.2583
   54CHL1    C4 3927   3.330   1.505   6.733 -0.6829  0.6478 -0.6202
   54CHL1   H4A 3928   3.424   1.495   6.675 -0.4704  2.8014 -0.7049
   54CHL1   H4B 3929   3.280   1.593   6.689 -1.7102  0.2099 -0.3661
   54CHL1    C5 3930   3.345   1.520   6.882 -0.6954  0.5819  0.1417
   54CHL1    C6 3931   3.315   1.634   6.952  1.1285 -0.1480  0.5497
   54CHL1    H6 3932   3.257   1.712   6.902 -0.5544 -0.4805  1.9155
   54CHL1    C7 3933   3.343   1.658   7.098 -0.2103 -0.0925  0.8465
   54CHL1   H7A 3934   3.389   1.759   7.100 -0.3067 -0.0004 -0.4978
   54CHL1   H7B 3935   3.249   1.661   7.157 -0.7997 -0.5119 -0.0479
   54CHL1    C8 3936   3.431   1.548   7.152  0.5662  0.0681  0.1293
   54CHL1    H8 3937   3.538   1.564   7.125  0.4635  0.2165 -0.1984
   54CHL1   C14 3938   3.411   1.547   7.306  0.3278  0.1092  0.3877
   54CHL1   H14 3939   3.306   1.513   7.318  0.3434 -0.7947 -1.5496
   54CHL1   C15 3940   3.446   1.681   7.366 -0.4306 -0.6697  0.0254
   54CHL1  H15A 3941   3.528   1.741   7.320 -1.6926  0.9966 -0.1879
   54CHL1  H15B 3942   3.362   1.753   7.361  1.5489  2.1108  3.0259
   54CHL1   C16 3943   3.485   1.654   7.511 -0.2680 -0.1226  0.3723
   54CHL1  H16A 3944   3.589   1.690   7.525  0.1149 -0.1276 -1.9556
   54CHL1  H16B 3945   3.416   1.698   7.585 -2.9365  1.4699 -2.7685
   54CHL1   C17 3946   3.476   1.493   7.525  0.0332  0.1140  0.5892
   54CHL1   H17 3947   3.371   1.461   7.544  0.6968 -2.4896  0.1712
   54CHL1   C13 3948   3.496   1.444   7.377  0.5140 -0.5738  0.0788
   54CHL1   C18 3949   3.648   1.469   7.338 -0.1206  0.1669  0.0673
   54CHL1  H18A 3950   3.690   1.563   7.380  1.2878 -0.2091 -0.4178
   54CHL1  H18B 3951   3.704   1.391   7.394 -1.9621 -0.0722  1.6865
   54CHL1  H18C 3952   3.677   1.468   7.231  0.3245 -2.1221  0.1676
   54CHL1   C12 3953   3.448   1.302   7.340  0.0021 -0.2665 -0.2838
   54CHL1  H12A 3954   3.499   1.218   7.392  2.4319  1.2997  0.0520
   54CHL1  H12B 3955   3.341   1.295   7.371 -0.5032  0.6956 -1.7377
   54CHL1   C11 3956   3.450   1.284   7.185 -0.3272  0.0169 -0.3871
   54CHL1  H11A 3957   3.560   1.297   7.168 -0.5224 -0.1815 -1.9674
   54CHL1  H11B 3958   3.421   1.183   7.149  0.2295 -0.6234  0.9098
   54CHL1    C9 3959   3.386   1.403   7.105 -0.0020 -0.2543 -0.1248
   54CHL1    H9 3960   3.278   1.395   7.127 -0.1723  1.2659 -0.2656
   54CHL1   C10 3961   3.408   1.389   6.951 -0.0886 -0.7705 -0.8567
   54CHL1   C19 3962   3.560   1.368   6.923  0.3568 -0.0052  0.3711
   54CHL1  H19A 3963   3.593   1.267   6.957  1.4284  0.1470 -0.2009
   54CHL1  H19B 3964   3.572   1.376   6.813  2.3446 -0.3309  0.5387
   54CHL1  H19C 3965   3.613   1.447   6.979 -2.6409  0.4482  2.8443
   54CHL1    C1 3966   3.315   1.269   6.896 -0.2868  1.0379  0.1264
   54CHL1   H1A 3967   3.344   1.166   6.924 -0.4493  0.9608  0.0061
   54CHL1   H1B 3968   3.209   1.294   6.916 -0.4971  0.1929  0.0921
   54CHL1    C2 3969   3.316   1.265   6.744 -0.0313 -0.1108  0.2886
   54CHL1   H2A 3970   3.259   1.176   6.708  0.9555  0.5558 -3.2761
   54CHL1   H2B 3971   3.418   1.239   6.707  0.6808  0.0324  2.0529
   54CHL1   C20 3972   3.562   1.430   7.633 -0.1555 -0.5009 -0.0769
   54CHL1   H20 3973   3.668   1.428   7.598 -0.6216  0.9135 -1.6859
   54CHL1   C21 3974   3.540   1.272   7.660  0.2924 -0.2814  0.4691
   54CHL1  H21A 3975   3.588   1.212   7.579 -2.6002 -0.1884 -1.4669
   54CHL1  H21B 3976   3.431   1.253   7.650  0.0475  1.9385 -3.5446
   54CHL1  H21C 3977   3.561   1.237   7.763  2.0159  0.3218  0.3590
   54CHL1   C22 3978   3.546   1.501   7.766  0.3008  0.4156  0.0125
   54CHL1  H22A 3979   3.623   1.448   7.828 -1.3478  0.9114  2.6510
   54CHL1  H22B 3980   3.568   1.609   7.773 -0.6199  0.5527  1.1760
   54CHL1   C23 3981   3.406   1.488   7.836  0.1949  0.0875 -0.0718
   54CHL1  H23A 3982   3.327   1.512   7.762  1.5717 -1.4135 -2.1446
   54CHL1  H23B 3983   3.388   1.383   7.866  1.1710 -0.4108 -1.1565
   54CHL1   C24 3984   3.411   1.570   7.956  0.6805 -0.3621 -0.1226
   54CHL1  H24A 3985   3.487   1.522   8.021  3.0113 -0.1792 -2.5353
   54CHL1  H24B 3986   3.435   1.674   7.924  0.3018  0.0162  0.7710
   54CHL1   C25 3987   3.279   1.572   8.039  1.0349 -1.0431  0.2927
   54CHL1   H25 3988   3.262   1.466   8.066  0.9175 -1.1100 -0.0383
   54CHL1   C26 3989   3.300   1.655   8.165  0.4670  0.4335 -0.4494
   54CHL1  H26A 3990   3.197   1.665   8.207  0.3924 -0.3000 -0.4459
   54CHL1  H26B 3991   3.374   1.604   8.230  0.0306 -1.6168 -1.4922
   54CHL1  H26C 3992   3.343   1.755   8.144 -1.8883  1.0130 -3.0699
   54CHL1   C27 3993   3.152   1.622   7.959  0.3190 -0.2202  0.0238
   54CHL1  H27A 3994   3.130   1.590   7.855 -1.4901  2.8818 -0.6847
   54CHL1  H27B 3995   3.058   1.626   8.018  0.8799 -0.8543  0.9939
   54CHL1  H27C 3996   3.167   1.728   7.929  2.0568 -0.5446 -0.3460
   55CHL1    C3 3997   1.803   1.251   7.002  0.2264 -0.0137 -0.2107
   55CHL1    H3 3998   1.905   1.286   7.028  0.0964 -0.7613  1.4570
   55CHL1    O3 3999   1.788   1.220   6.869  0.5359  0.0318  0.6684
   55CHL1   H3' 4000   1.694   1.229   6.854  0.7897  1.2937 -0.2779
   55CHL1    C4 4001   1.771   1.123   7.090  0.2659  0.6487  0.0501
   55CHL1   H4A 4002   1.678   1.071   7.061 -0.1791  0.8824  1.0121
   55CHL1   H4B 4003   1.854   1.055   7.060  1.1896  1.2530  1.1592
   55CHL1    C5 4004   1.777   1.152   7.235  0.6986  0.6082  0.4221
   55CHL1    C6 4005   1.863   1.088   7.320  0.1025 -0.1927 -0.1435
   55CHL1    H6 4006   1.931   1.016   7.272  1.9497  1.7456 -0.6360
   55CHL1    C7 4007   1.879   1.111   7.466 -0.2111  0.2795  0.3848
   55CHL1   H7A 4008   1.899   1.017   7.521 -0.3506  1.0550  1.8172
   55CHL1   H7B 4009   1.958   1.185   7.492  1.6906 -1.5987  0.2182
   55CHL1    C8 4010   1.755   1.186   7.521 -0.3629 -0.0685 -0.4978
   55CHL1    H8 4011   1.663   1.125   7.530  1.1114 -2.1703  1.5002
   55CHL1   C14 4012   1.783   1.231   7.656 -0.2329  0.1284 -0.0598
   55CHL1   H14 4013   1.876   1.291   7.654 -0.0645 -0.1496 -1.4581
   55CHL1   C15 4014   1.813   1.131   7.766  0.2384 -0.6181 -0.1643
   55CHL1  H15A 4015   1.731   1.056   7.771  0.2860 -0.6047  1.1363
   55CHL1  H15B 4016   1.910   1.077   7.760  0.6717  0.0098  0.8870
   55CHL1   C16 4017   1.834   1.222   7.887 -0.5314 -0.2075  0.0840
   55CHL1  H16A 4018   1.815   1.163   7.980  0.8382  2.5209  2.2514
   55CHL1  H16B 4019   1.939   1.258   7.890 -0.6924  0.4634 -1.4187
   55CHL1   C17 4020   1.755   1.353   7.863  0.3263 -0.1055 -0.6508
   55CHL1   H17 4021   1.835   1.429   7.848  0.9200  0.5840  4.3244
   55CHL1   C13 4022   1.685   1.328   7.715 -0.1973 -0.3932 -0.2295
   55CHL1   C18 4023   1.544   1.261   7.734  0.5136  0.2016  0.1063
   55CHL1  H18A 4024   1.502   1.197   7.654  1.8545 -2.1097  1.1566
   55CHL1  H18B 4025   1.564   1.182   7.810  3.4866  0.5490 -0.1699
   55CHL1  H18C 4026   1.468   1.333   7.771 -0.9391 -0.6882 -1.0602
   55CHL1   C12 4027   1.677   1.453   7.630  0.3726 -0.0462  0.3511
   55CHL1  H12A 4028   1.604   1.525   7.672  0.1059  1.2051 -2.0608
   55CHL1  H12B 4029   1.774   1.504   7.609 -0.8791  2.2807 -0.1999
   55CHL1   C11 4030   1.626   1.415   7.489  0.0705  0.1379 -0.2245
   55CHL1  H11A 4031   1.524   1.373   7.505  0.7569 -1.4548  0.1025
   55CHL1  H11B 4032   1.622   1.505   7.423  0.6184 -0.1567 -0.6656
   55CHL1    C9 4033   1.723   1.306   7.428 -0.0128 -1.1465 -0.0669
   55CHL1    H9 4034   1.823   1.352   7.410  0.5189 -1.5029  1.8007
   55CHL1   C10 4035   1.683   1.265   7.281 -0.6330 -0.0017  0.0764
   55CHL1   C19 4036   1.539   1.220   7.285  0.0143 -0.4034 -0.1105
   55CHL1  H19A 4037   1.461   1.294   7.315  0.1269 -0.1371 -0.4645
   55CHL1  H19B 4038   1.506   1.187   7.184 -2.3355 -0.2857  0.5625
   55CHL1  H19C 4039   1.526   1.142   7.362  3.9064 -0.6555  0.4790
   55CHL1    C1 4040   1.692   1.390   7.185  0.0837  0.1026  0.3826
   55CHL1   H1A 4041   1.628   1.478   7.210  1.1760  0.9790  0.1847
   55CHL1   H1B 4042   1.794   1.424   7.213 -0.8110  2.1189  1.4088
   55CHL1    C2 4043   1.695   1.361   7.031 -0.9989  0.4292  0.1084
   55CHL1   H2A 4044   1.715   1.451   6.970 -0.2864 -0.7845 -1.5074
   55CHL1   H2B 4045   1.598   1.323   6.993  0.9036 -1.4204 -3.3139
   55CHL1   C20 4046   1.681   1.384   7.993  0.3272 -0.3417 -0.7846
   55CHL1   H20 4047   1.600   1.309   8.003 -0.5869  0.3981 -2.2765
   55CHL1   C21 4048   1.625   1.529   7.971  0.2029 -0.5346 -0.3393
   55CHL1  H21A 4049   1.707   1.598   7.940  2.8654 -2.4921  1.8113
   55CHL1  H21B 4050   1.582   1.563   8.068 -1.2812 -0.2820 -1.0560
   55CHL1  H21C 4051   1.542   1.534   7.898  0.9901  3.9666 -1.2330
   55CHL1   C22 4052   1.763   1.376   8.127  0.4660 -0.2929  0.6581
   55CHL1  H22A 4053   1.801   1.272   8.139 -1.8833 -1.5929 -2.1824
   55CHL1  H22B 4054   1.847   1.446   8.110  1.0285 -1.1174 -0.0518
   55CHL1   C23 4055   1.686   1.415   8.257  0.7910 -0.4374  0.3826
   55CHL1  H23A 4056   1.766   1.420   8.333  1.4044 -0.7101 -0.2399
   55CHL1  H23B 4057   1.662   1.523   8.244  1.0503 -0.4936 -0.5753
   55CHL1   C24 4058   1.569   1.316   8.274  0.6277 -0.1665  0.6373
   55CHL1  H24A 4059   1.489   1.328   8.199  0.2839  0.3076  1.0759
   55CHL1  H24B 4060   1.611   1.213   8.269  1.1526  0.1112 -1.8622
   55CHL1   C25 4061   1.489   1.320   8.407 -0.3733  0.4009 -0.3319
   55CHL1   H25 4062   1.391   1.268   8.398  0.5895 -1.4831 -0.4754
   55CHL1   C26 4063   1.576   1.267   8.514 -0.1666 -0.6751 -0.1188
   55CHL1  H26A 4064   1.526   1.278   8.612  1.0569 -1.1051  0.5732
   55CHL1  H26B 4065   1.601   1.160   8.495 -0.0346 -0.7222  0.3082
   55CHL1  H26C 4066   1.671   1.324   8.509 -1.3395  1.2520 -2.4790
   55CHL1   C27 4067   1.462   1.470   8.449 -1.1405  0.3994 -0.2596
   55CHL1  H27A 4068   1.400   1.525   8.375  0.4805 -1.2097 -2.9417
   55CHL1  H27B 4069   1.413   1.467   8.549 -0.0796 -0.8404  0.2537
   55CHL1  H27C 4070   1.559   1.519   8.469 -1.2801  0.6423 -0.1653
   56CHL1    C3 4071   4.185   6.313   7.067  0.4445  0.2986  0.1794
   56CHL1    H3 4072   4.275   6.249   7.054 -0.1558 -0.1854 -2.1144
   56CHL1    O3 4073   4.133   6.340   6.936 -0.2575 -0.1925 -0.1404
   56CHL1   H3' 4074   4.099   6.254   6.908  1.0903 -0.5523 -0.7881
   56CHL1    C4 4075   4.064   6.252   7.137  0.1526  0.3791  0.4308
   56CHL1   H4A 4076   3.980   6.323   7.121 -1.4458 -1.4606  0.2677
   56CHL1   H4B 4077   4.040   6.161   7.078  2.4540  1.8022 -3.0320
   56CHL1    C5 4078   4.083   6.234   7.286  0.1783 -0.2940  0.4505
   56CHL1    C6 4079   4.059   6.113   7.331  0.1548  0.0647  0.5776
   56CHL1    H6 4080   4.027   6.032   7.264 -0.7359  0.9390 -0.0970
   56CHL1    C7 4081   4.079   6.069   7.471 -0.5473 -0.2534  0.7737
   56CHL1   H7A 4082   3.998   5.999   7.500 -1.4368 -0.0079 -0.9959
   56CHL1   H7B 4083   4.178   6.018   7.469  1.0043  2.5620  1.0860
   56CHL1    C8 4084   4.079   6.190   7.563 -0.0785 -0.2752 -0.0019
   56CHL1    H8 4085   3.977   6.234   7.553 -0.6475 -1.7567 -1.2054
   56CHL1   C14 4086   4.114   6.148   7.702 -0.6610 -0.2252 -0.1845
   56CHL1   H14 4087   4.210   6.095   7.690 -1.3717 -1.7147  0.4602
   56CHL1   C15 4088   4.034   6.039   7.771  0.1485  0.5944 -0.6042
   56CHL1  H15A 4089   3.929   6.075   7.759 -0.2582 -0.9260 -1.8491
   56CHL1  H15B 4090   4.037   5.934   7.736 -2.3009 -0.5017  2.0614
   56CHL1   C16 4091   4.060   6.058   7.919 -1.0612  0.0303 -0.2895
   56CHL1  H16A 4092   3.966   6.047   7.976 -0.2252 -0.7785  1.0032
   56CHL1  H16B 4093   4.120   5.970   7.953 -0.3071  0.4509 -0.4944
   56CHL1   C17 4094   4.144   6.187   7.941 -0.0425 -0.0700  0.7705
   56CHL1   H17 4095   4.247   6.147   7.948  0.1330  0.5806  2.3529
   56CHL1   C13 4096   4.129   6.264   7.802 -0.4899  0.3463  0.8197
   56CHL1   C18 4097   3.998   6.346   7.807 -0.4939 -1.1436 -0.1788
   56CHL1  H18A 4098   3.965   6.371   7.704  3.4151  2.7539 -0.7866
   56CHL1  H18B 4099   3.910   6.300   7.856 -1.9270  1.4659 -0.1246
   56CHL1  H18C 4100   4.023   6.450   7.838  2.6168 -0.8930 -2.9947
   56CHL1   C12 4101   4.253   6.345   7.754 -0.0605  0.2626  0.6308
   56CHL1  H12A 4102   4.264   6.435   7.818  2.8155  0.1222  0.4745
   56CHL1  H12B 4103   4.338   6.273   7.763 -1.4906 -1.3788  1.6360
   56CHL1   C11 4104   4.227   6.404   7.615 -0.3196  0.7466  0.0786
   56CHL1  H11A 4105   4.145   6.479   7.622  0.8208  1.8669  2.9343
   56CHL1  H11B 4106   4.319   6.460   7.586 -1.7924  2.9178 -0.6455
   56CHL1    C9 4107   4.182   6.296   7.511 -0.5362  0.3782  1.0531
   56CHL1    H9 4108   4.274   6.239   7.488  0.0795  1.8190 -0.1824
   56CHL1   C10 4109   4.144   6.348   7.367 -0.0252  0.4117  0.1808
   56CHL1   C19 4110   4.032   6.455   7.383  0.2179 -0.3042  0.1159
   56CHL1  H19A 4111   4.066   6.541   7.445  0.7761  0.2018 -0.8657
   56CHL1  H19B 4112   4.017   6.509   7.287  4.0003  2.7866  0.9936
   56CHL1  H19C 4113   3.939   6.420   7.433  0.3199  1.8670  1.9785
   56CHL1    C1 4114   4.259   6.410   7.289  0.1860  0.2389 -0.5446
   56CHL1   H1A 4115   4.296   6.499   7.345 -0.5806 -0.1553  0.6261
   56CHL1   H1B 4116   4.342   6.336   7.285  0.9522  0.9433  1.2922
   56CHL1    C2 4117   4.230   6.445   7.142  0.1352 -0.0561 -0.5028
   56CHL1   H2A 4118   4.327   6.483   7.103 -0.1323 -0.4438 -1.5816
   56CHL1   H2B 4119   4.162   6.531   7.130  1.8726  1.2638 -1.3375
   56CHL1   C20 4120   4.107   6.262   8.074 -0.5975  0.5841  0.2549
   56CHL1   H20 4121   4.003   6.300   8.063 -0.9770 -0.6207 -0.5497
   56CHL1   C21 4122   4.204   6.379   8.092  0.2984 -0.6248 -0.1061
   56CHL1  H21A 4123   4.309   6.347   8.106  0.6993 -0.0925 -1.7871
   56CHL1  H21B 4124   4.183   6.438   8.184  1.2734  0.3331 -0.4861
   56CHL1  H21C 4125   4.207   6.455   8.011 -0.5860  0.3686  0.7634
   56CHL1   C22 4126   4.118   6.165   8.203 -0.8306 -0.2502  0.8653
   56CHL1  H22A 4127   4.071   6.068   8.178 -1.6046  0.6972 -1.7229
   56CHL1  H22B 4128   4.226   6.139   8.209 -0.0008  1.0202 -3.9359
   56CHL1   C23 4129   4.084   6.236   8.336  0.2701  0.5129 -0.2008
   56CHL1  H23A 4130   4.153   6.321   8.352 -0.8557  1.3017  0.6141
   56CHL1  H23B 4131   3.983   6.282   8.335  1.2583  2.8272  0.3488
   56CHL1   C24 4132   4.103   6.137   8.446  0.1317  0.4931 -0.2383
   56CHL1  H24A 4133   4.050   6.048   8.406 -1.9172  0.9538  1.2685
   56CHL1  H24B 4134   4.204   6.094   8.467  0.2005  1.1389  0.8467
   56CHL1   C25 4135   4.035   6.179   8.581  0.6015  0.0003  0.0894
   56CHL1   H25 4136   3.933   6.216   8.557  0.5749  0.5007  0.9291
   56CHL1   C26 4137   4.035   6.061   8.687 -0.8219  0.1636 -0.4821
   56CHL1  H26A 4138   3.980   6.096   8.777  1.2941  2.4575  0.0145
   56CHL1  H26B 4139   4.137   6.033   8.718 -1.0788  0.4586  0.6969
   56CHL1  H26C 4140   3.982   5.977   8.637 -0.8952 -0.3905  0.4987
   56CHL1   C27 4141   4.095   6.300   8.639 -0.2151  0.2685  0.1114
   56CHL1  H27A 4142   4.034   6.346   8.720 -2.7927 -1.5505 -0.6694
   56CHL1  H27B 4143   4.198   6.273   8.673 -0.0809  1.9239  1.1508
   56CHL1  H27C 4144   4.101   6.375   8.557 -1.8882  0.1061 -0.1980
   57SAPC     N 4145   1.888   3.866  10.781  0.3118 -0.0240 -0.0461
   57SAPC   C12 4146   1.895   4.016  10.720  0.8653  0.5608 -0.1680
   57SAPC  H12A 4147   1.806   4.069  10.750 -1.0866 -0.9394 -2.7968
   57SAPC  H12B 4148   1.891   4.014  10.612  4.2124  0.7378 -0.3811
   57SAPC   C13 4149   1.899   3.874  10.928 -0.1246 -0.1206  0.6666
   57SAPC  H13A 4150   1.896   3.785  10.990 -0.6575  0.8134  2.0339
   57SAPC  H13B 4151   1.993   3.921  10.952 -0.1855 -0.1405  0.9487
   57SAPC  H13C 4152   1.836   3.951  10.970  2.5611  1.9173  1.2389
   57SAPC   C14 4153   1.750   3.808  10.745 -0.6212 -0.0612  0.3675
   57SAPC  H14A 4154   1.733   3.812  10.638  0.5598 -0.4804  0.1462
   57SAPC  H14B 4155   1.750   3.701  10.761  1.5691  0.0367  1.5032
   57SAPC  H14C 4156   1.677   3.867  10.797  1.5182  2.0895  1.1094
   57SAPC   C15 4157   1.993   3.783  10.717  0.1734 -0.2821  0.2836
   57SAPC  H15A 4158   1.971   3.751  10.616 -0.0821  3.3010 -0.9507
   57SAPC  H15B 4159   2.089   3.834  10.713 -0.0736  0.1167 -1.0448
   57SAPC  H15C 4160   2.013   3.697  10.778 -0.7597 -0.0839  0.8843
   57SAPC   C11 4161   2.024   4.092  10.756  0.1611 -0.3298 -0.9042
   57SAPC  H11A 4162   2.034   4.172  10.680 -1.8345 -0.2618 -1.1513
   57SAPC  H11B 4163   2.100   4.015  10.730 -2.1212 -2.6704 -1.1212
   57SAPC     P 4164   1.928   4.256  10.937  0.0188  0.2791 -0.1832
   57SAPC   O13 4165   1.790   4.208  10.958 -0.7139  0.1997  0.4928
   57SAPC   O14 4166   1.991   4.335  11.042  0.5324 -0.1496 -0.0846
   57SAPC   O12 4167   2.028   4.133  10.894 -0.2269 -0.1571 -0.3073
   57SAPC   O11 4168   1.926   4.345  10.808  0.0219 -0.4391 -0.3528
   57SAPC    C1 4169   1.889   4.479  10.808  0.0507 -0.4810 -0.4315
   57SAPC    HA 4170   1.816   4.504  10.887  1.7495 -1.4446  1.5399
   57SAPC    HB 4171   1.980   4.535  10.838  0.4911 -1.7658  0.7340
   57SAPC    C2 4172   1.835   4.513  10.663  0.4795  0.1269 -0.1406
   57SAPC    HS 4173   1.781   4.610  10.673 -1.7365 -1.0256 -0.4623
   57SAPC   O21 4174   1.749   4.414  10.617 -0.5438 -0.1076  0.7681
   57SAPC   C21 4175   1.645   4.387  10.691 -0.5747  0.8005  0.3904
   57SAPC   O22 4176   1.604   4.455  10.783  0.6931 -0.0640  0.1809
   57SAPC   C22 4177   1.565   4.272  10.636  0.5159  0.0764  0.3204
   57SAPC   H2R 4178   1.613   4.182  10.680 -2.5500  0.1137  4.3062
   57SAPC   H2S 4179   1.462   4.278  10.678  0.8308 -0.5108  1.1872
   57SAPC    C3 4180   1.953   4.524  10.565  0.6009 -0.1562  0.6510
   57SAPC    HX 4181   2.018   4.433  10.562 -0.2196 -0.7367 -0.9458
   57SAPC    HY 4182   2.021   4.600  10.609  1.4461  0.5342 -1.6919
   57SAPC   O31 4183   1.902   4.561  10.436 -0.0536 -0.0025 -0.3130
   57SAPC   C31 4184   1.985   4.542  10.338 -0.0746  0.3148 -0.1863
   57SAPC   O32 4185   2.099   4.496  10.335  0.2342 -0.3129 -0.3928
   57SAPC   C32 4186   1.916   4.608  10.214 -0.8705  0.1588 -0.1227
   57SAPC   H2X 4187   1.981   4.696  10.194  1.5277 -1.6269 -0.7871
   57SAPC   H2Y 4188   1.807   4.620  10.230 -0.5484 -0.7206  3.6730
   57SAPC   C23 4189   1.558   4.273  10.478 -0.1061  0.0939  0.4912
   57SAPC   H3R 4190   1.664   4.290  10.450  0.6387  1.9730  3.8683
   57SAPC   H3S 4191   1.492   4.348  10.428  0.2072 -0.2497 -0.4465
   57SAPC   C24 4192   1.532   4.133  10.425 -0.3216  0.8780  0.1219
   57SAPC   H4R 4193   1.428   4.107  10.453 -0.7596  2.8282  0.4027
   57SAPC   H4S 4194   1.592   4.054  10.477 -0.3621 -1.5152 -3.1392
   57SAPC   C25 4195   1.529   4.130  10.273 -0.3029  0.1115 -0.0611
   57SAPC   H5R 4196   1.627   4.113  10.226 -1.0688  0.3134 -1.8096
   57SAPC   C26 4197   1.421   4.138  10.198 -0.6169  0.3039  0.4188
   57SAPC   H6R 4198   1.434   4.129  10.089  1.8491  0.6747  0.6382
   57SAPC   C27 4199   1.273   4.154  10.228 -0.0449 -0.4313 -0.3721
   57SAPC   H7R 4200   1.233   4.238  10.167 -0.9191 -0.3097  0.3403
   57SAPC   H7S 4201   1.259   4.186  10.334  1.2212  2.3944 -0.9422
   57SAPC   C28 4202   1.180   4.042  10.187 -0.1721  0.2037  0.2707
   57SAPC   H8R 4203   1.156   3.969  10.266  1.0538 -0.5041  0.0113
   57SAPC   C29 4204   1.132   4.016  10.065 -0.0619  0.4332  0.4012
   57SAPC   H9R 4205   1.052   3.940  10.064  0.6998 -0.4171  1.6497
   57SAPC  C210 4206   1.153   4.089   9.938  0.8144 -0.7062 -0.4833
   57SAPC  H10R 4207   1.236   4.162   9.949 -1.0305  1.1970  2.1841
   57SAPC  H10S 4208   1.061   4.149   9.921 -0.3636 -1.5785  2.2000
   57SAPC  C211 4209   1.165   3.999   9.821  0.1018 -0.8401 -0.5574
   57SAPC  H11R 4210   1.135   3.896   9.845 -2.2832 -0.4162 -1.4611
   57SAPC  C212 4211   1.181   4.025   9.692 -0.4340 -0.0213 -0.4345
   57SAPC  H12R 4212   1.200   3.942   9.622 -1.0119 -0.6672  0.1585
   57SAPC  C213 4213   1.213   4.156   9.628 -0.1420 -0.0626  0.2402
   57SAPC  H13R 4214   1.223   4.224   9.715 -3.2417 -1.2090  1.6616
   57SAPC  H13S 4215   1.123   4.199   9.578 -0.4749 -1.1538 -0.1181
   57SAPC  C214 4216   1.328   4.158   9.535 -0.3081 -0.3226  0.2773
   57SAPC  H14R 4217   1.410   4.093   9.569  0.0907 -1.2071 -2.1589
   57SAPC  C215 4218   1.335   4.223   9.416  0.1774  0.2882  0.2103
   57SAPC  H15R 4219   1.420   4.224   9.346 -0.1440  0.9470 -0.1883
   57SAPC  C216 4220   1.226   4.289   9.338  0.2047 -0.3009 -0.4913
   57SAPC  H16R 4221   1.271   4.374   9.283  1.8356 -0.3094  0.7673
   57SAPC  H16S 4222   1.148   4.322   9.410 -0.4012 -3.5231  0.5017
   57SAPC  C217 4223   1.151   4.193   9.242 -0.3310  0.1250  0.0039
   57SAPC  H17R 4224   1.078   4.257   9.189 -0.0358 -0.4417 -1.1243
   57SAPC  H17S 4225   1.093   4.126   9.308  1.6697  1.2707  3.1706
   57SAPC  C218 4226   1.241   4.123   9.140 -0.3976  0.0924 -0.0915
   57SAPC  H18R 4227   1.311   4.061   9.200  0.4241  0.5879 -0.5177
   57SAPC  H18S 4228   1.312   4.197   9.098 -1.7554  2.0816  0.9469
   57SAPC  C219 4229   1.170   4.033   9.040  0.2622 -0.0275  0.1250
   57SAPC  H19R 4230   1.098   4.097   8.984 -1.7009 -0.6458  1.7908
   57SAPC  H19S 4231   1.105   3.961   9.095 -0.3213  0.3395 -0.0743
   57SAPC  C220 4232   1.269   3.957   8.964 -0.0670  0.0450  0.2101
   57SAPC  H20R 4233   1.322   4.021   8.891 -1.4061 -0.7291 -1.5130
   57SAPC  H20S 4234   1.228   3.868   8.912 -0.4014 -0.2422  0.9426
   57SAPC  H20T 4235   1.356   3.929   9.028 -0.7318 -1.3856  0.5363
   57SAPC   C33 4236   1.936   4.520  10.083  0.0951 -0.2032 -0.3342
   57SAPC   H3X 4237   2.038   4.477  10.076 -0.6304 -2.6215  2.2150
   57SAPC   H3Y 4238   1.915   4.590   9.999 -0.0560  0.1744  0.0198
   57SAPC   C34 4239   1.832   4.412  10.070 -0.6457  1.0667  0.4235
   57SAPC   H4X 4240   1.728   4.448  10.089 -0.5618  1.0806  0.8575
   57SAPC   H4Y 4241   1.859   4.322  10.130  0.3257 -1.8628 -3.9600
   57SAPC   C35 4242   1.824   4.360   9.924 -0.2470 -0.2382  0.1778
   57SAPC   H5X 4243   1.919   4.310   9.896 -1.5294 -1.8990 -1.5064
   57SAPC   H5Y 4244   1.826   4.450   9.858  2.3642 -1.1578 -1.1415
   57SAPC   C36 4245   1.697   4.271   9.886 -0.4024 -0.3716 -0.5279
   57SAPC   H6X 4246   1.612   4.330   9.928  0.0111 -0.5122  0.5262
   57SAPC   H6Y 4247   1.713   4.167   9.919  1.3676 -0.2970 -1.0395
   57SAPC   C37 4248   1.665   4.274   9.729  0.4429  0.4499  0.2199
   57SAPC   H7X 4249   1.652   4.376   9.687  3.7911  0.7968 -0.2503
   57SAPC   H7Y 4250   1.569   4.218   9.726  0.9643 -0.4170 -0.8074
   57SAPC   C38 4251   1.768   4.209   9.634  0.9578  0.1816  1.0083
   57SAPC   H8X 4252   1.775   4.103   9.664  3.2650 -0.2333 -0.7879
   57SAPC   H8Y 4253   1.871   4.247   9.652  1.4460 -0.5083 -0.2391
   57SAPC   C39 4254   1.725   4.211   9.485  0.3143 -0.6296 -0.5422
   57SAPC   H9X 4255   1.627   4.158   9.478 -0.2775 -0.1700  2.6351
   57SAPC   H9Y 4256   1.796   4.148   9.427 -2.5547 -1.4669 -3.4751
   57SAPC  C310 4257   1.704   4.356   9.435  0.0030  0.9188 -0.3491
   57SAPC  H10X 4258   1.790   4.417   9.470 -1.5853  1.9317  2.0493
   57SAPC  H10Y 4259   1.618   4.395   9.494 -1.7174 -0.8581 -1.5674
   57SAPC  C311 4260   1.668   4.381   9.290  0.2832 -0.1063 -0.5461
   57SAPC  H11X 4261   1.674   4.490   9.269  1.3127 -0.3692 -1.8276
   57SAPC  H11Y 4262   1.560   4.361   9.279 -0.4603  2.0687  1.9011
   57SAPC  C312 4263   1.742   4.297   9.187 -0.7008 -0.1876 -0.5478
   57SAPC  H12X 4264   1.706   4.193   9.197  0.9336 -0.6148  1.5179
   57SAPC  H12Y 4265   1.849   4.295   9.218 -1.2283 -2.0167  1.4045
   57SAPC  C313 4266   1.720   4.345   9.048  0.7140 -0.3412 -0.1705
   57SAPC  H13X 4267   1.784   4.289   8.977 -0.2106 -2.5384  0.6179
   57SAPC  H13Y 4268   1.751   4.452   9.050 -0.7974  0.1653 -1.5476
   57SAPC  C314 4269   1.579   4.328   8.991 -0.1066  0.5303  0.0829
   57SAPC  H14X 4270   1.508   4.382   9.057  0.7940  1.0982  0.6043
   57SAPC  H14Y 4271   1.556   4.219   8.989  2.4037 -0.0724  0.8623
   57SAPC  C315 4272   1.558   4.392   8.847 -0.2159  0.2061  0.4127
   57SAPC  H15X 4273   1.636   4.345   8.783  0.7383  2.6769 -0.3946
   57SAPC  H15Y 4274   1.594   4.497   8.851  0.3355  0.0928 -0.9365
   57SAPC  C316 4275   1.416   4.382   8.773  0.3618  0.7500  0.1129
   57SAPC  H16X 4276   1.347   4.449   8.830 -0.3812  1.6728 -1.7939
   57SAPC  H16Y 4277   1.380   4.277   8.780  0.2569  0.7536 -0.3572
   57SAPC  C317 4278   1.427   4.396   8.617 -0.5611 -0.9620 -0.2712
   57SAPC  H17X 4279   1.322   4.375   8.590 -1.0685  1.2240 -0.1182
   57SAPC  H17Y 4280   1.498   4.320   8.577  0.1277  0.5480 -2.0334
   57SAPC  C318 4281   1.470   4.537   8.565 -0.3227  0.4958 -0.1424
   57SAPC  H18X 4282   1.480   4.547   8.455  2.0806  1.3828  0.0936
   57SAPC  H18Y 4283   1.568   4.548   8.616 -0.2367 -1.2900  0.1405
   57SAPC  H18Z 4284   1.404   4.621   8.597  1.0446  1.9101 -0.9567
   58SAPC     N 4285   4.465   2.421  10.927  0.0272  0.0100 -0.6444
   58SAPC   C12 4286   4.490   2.528  10.823  0.0183  0.1382 -0.2287
   58SAPC  H12A 4287   4.595   2.536  10.797 -0.1735 -0.3291 -1.1888
   58SAPC  H12B 4288   4.477   2.623  10.873 -1.6090 -1.6250  2.9565
   58SAPC   C13 4289   4.558   2.450  11.040 -0.4566 -0.0255  0.0648
   58SAPC  H13A 4290   4.548   2.378  11.120  1.7046 -0.5097 -0.0163
   58SAPC  H13B 4291   4.657   2.446  10.997 -1.0214 -1.5521 -1.1649
   58SAPC  H13C 4292   4.546   2.546  11.087 -0.8928  0.1300 -0.3554
   58SAPC   C14 4293   4.319   2.433  10.962 -0.0195  0.5806 -0.1350
   58SAPC  H14A 4294   4.260   2.421  10.872 -0.1482 -0.4219  0.0755
   58SAPC  H14B 4295   4.290   2.372  11.046 -2.2823  1.4412 -0.2250
   58SAPC  H14C 4296   4.303   2.534  10.996  0.1062  0.2932  0.8019
   58SAPC   C15 4297   4.495   2.289  10.875  0.3816  0.5667 -0.6184
   58SAPC  H15A 4298   4.426   2.262  10.796  0.7294 -0.1666 -0.6835
   58SAPC  H15B 4299   4.595   2.275  10.838  1.3396  3.2769  0.7591
   58SAPC  H15C 4300   4.484   2.212  10.951  1.4684  0.5426 -0.4799
   58SAPC   C11 4301   4.413   2.536  10.689  0.4536  0.0322  0.0884
   58SAPC  H11A 4302   4.404   2.431  10.655  1.1678 -0.0964  0.2894
   58SAPC  H11B 4303   4.460   2.579  10.598  2.1529 -2.0175 -0.0692
   58SAPC     P 4304   4.259   2.738  10.720 -0.1684  0.3697  0.1819
   58SAPC   O13 4305   4.143   2.744  10.815 -0.2389 -0.1935  0.9507
   58SAPC   O14 4306   4.388   2.807  10.754  0.0806 -0.0068  0.5348
   58SAPC   O12 4307   4.287   2.586  10.714 -0.3661 -0.0129 -0.2167
   58SAPC   O11 4308   4.218   2.777  10.575  0.4143  0.4499  0.1759
   58SAPC    C1 4309   4.129   2.688  10.489 -0.7971 -0.0441  0.3307
   58SAPC    HA 4310   4.098   2.604  10.554 -1.4509  0.9157  1.2825
   58SAPC    HB 4311   4.033   2.740  10.469 -0.9791 -0.6705 -0.5176
   58SAPC    C2 4312   4.205   2.638  10.369  0.4428  0.1382 -0.4797
   58SAPC    HS 4313   4.289   2.577  10.407 -1.3035 -0.4225  2.8196
   58SAPC   O21 4314   4.237   2.759  10.306  0.1537  0.2817  0.1179
   58SAPC   C21 4315   4.358   2.765  10.257  0.4261  0.1339 -0.6865
   58SAPC   O22 4316   4.447   2.685  10.273 -0.0748 -0.0305 -0.6082
   58SAPC   C22 4317   4.380   2.887  10.177 -0.5348 -0.1528  0.3006
   58SAPC   H2R 4318   4.371   2.979  10.239 -0.4380 -1.1517  1.8583
   58SAPC   H2S 4319   4.482   2.875  10.136 -1.9992 -1.4026 -3.4546
   58SAPC    C3 4320   4.110   2.548  10.281 -0.0778 -0.7781 -1.3359
   58SAPC    HX 4321   4.027   2.615  10.254 -0.5738 -1.9689 -2.9423
   58SAPC    HY 4322   4.070   2.466  10.344  1.8206 -0.0667  0.9372
   58SAPC   O31 4323   4.176   2.496  10.163  0.1803 -0.4149  0.2066
   58SAPC   C31 4324   4.091   2.415  10.092  0.4128 -0.0580  0.2010
   58SAPC   O32 4325   3.972   2.405  10.119 -0.1596  0.6246  0.7546
   58SAPC   C32 4326   4.154   2.328   9.988 -0.3318 -0.0713 -0.3136
   58SAPC   H2X 4327   4.176   2.234  10.042  0.7715  1.7830  2.6910
   58SAPC   H2Y 4328   4.260   2.362   9.977 -0.8216  1.2442 -1.2647
   58SAPC   C23 4329   4.280   2.896  10.053 -0.3964  0.3124  0.3275
   58SAPC   H3R 4330   4.289   3.001  10.018 -0.1503  0.1654 -0.0568
   58SAPC   H3S 4331   4.176   2.872  10.085 -0.5437 -0.9515 -0.9733
   58SAPC   C24 4332   4.334   2.805   9.943 -0.3135  0.4938  0.2098
   58SAPC   H4R 4333   4.360   2.704   9.981  0.6661 -0.2637 -2.2652
   58SAPC   H4S 4334   4.431   2.848   9.909  0.5034 -1.3912  0.0310
   58SAPC   C25 4335   4.238   2.788   9.828  0.2652 -0.1655 -0.4195
   58SAPC   H5R 4336   4.155   2.719   9.849  0.3393 -0.2680 -0.4628
   58SAPC   C26 4337   4.255   2.831   9.703 -0.2518 -0.0229 -0.1570
   58SAPC   H6R 4338   4.176   2.796   9.635 -0.6883  0.7735 -0.0709
   58SAPC   C27 4339   4.366   2.900   9.630 -0.4041 -0.4786  0.2295
   58SAPC   H7R 4340   4.419   2.828   9.564 -1.3069 -0.6947 -0.2804
   58SAPC   H7S 4341   4.451   2.914   9.701  0.1854 -0.3312 -0.4907
   58SAPC   C28 4342   4.330   3.034   9.566  0.1777  0.4565  0.4756
   58SAPC   H8R 4343   4.254   3.092   9.621  1.3170  1.4037  1.0833
   58SAPC   C29 4344   4.361   3.080   9.447 -0.2331 -1.0287  1.0343
   58SAPC   H9R 4345   4.320   3.178   9.418  0.9055  0.1773  3.2677
   58SAPC  C210 4346   4.437   3.007   9.343  0.1143 -0.0210  0.0846
   58SAPC  H10R 4347   4.502   2.922   9.371  2.5470  2.2759  1.8929
   58SAPC  H10S 4348   4.510   3.083   9.309 -0.8887  0.3293 -1.4082
   58SAPC  C211 4349   4.354   2.965   9.230  0.0661  0.2437 -0.5726
   58SAPC  H11R 4350   4.274   2.896   9.261 -0.8897  1.3217 -0.5812
   58SAPC  C212 4351   4.374   2.985   9.099  0.1023  0.2403  0.2464
   58SAPC  H12R 4352   4.312   2.935   9.023  0.4345  0.9128 -0.4687
   58SAPC  C213 4353   4.480   3.057   9.028  0.0216  0.3617 -0.1947
   58SAPC  H13R 4354   4.476   3.001   8.933 -2.5818  0.0890  0.0042
   58SAPC  H13S 4355   4.575   3.047   9.085 -0.6885  0.8930  1.1458
   58SAPC  C214 4356   4.450   3.207   9.020  0.8292  0.0600 -0.3260
   58SAPC  H14R 4357   4.431   3.235   9.124  0.1453 -0.4349 -0.3064
   58SAPC  C215 4358   4.419   3.285   8.913  0.4569  0.0666  0.0381
   58SAPC  H15R 4359   4.387   3.387   8.937 -0.9940 -0.4494  0.4440
   58SAPC  C216 4360   4.426   3.249   8.768  0.8474 -0.7731  0.8271
   58SAPC  H16R 4361   4.332   3.195   8.744  0.3660 -0.2006  1.3780
   58SAPC  H16S 4362   4.500   3.168   8.753 -0.7317 -2.1847  0.2274
   58SAPC  C217 4363   4.451   3.381   8.690  0.0137  0.4224 -0.0370
   58SAPC  H17R 4364   4.545   3.428   8.724  0.6440 -0.9003  0.1009
   58SAPC  H17S 4365   4.357   3.433   8.718 -1.9788 -3.3743  0.9753
   58SAPC  C218 4366   4.462   3.370   8.537  0.7898 -0.5124 -0.3390
   58SAPC  H18R 4367   4.469   3.476   8.503 -1.1452 -0.4379 -0.6237
   58SAPC  H18S 4368   4.365   3.340   8.494  1.5925  2.9883 -5.5116
   58SAPC  C219 4369   4.577   3.286   8.487 -0.6948  0.4062  0.1226
   58SAPC  H19R 4370   4.575   3.182   8.528  1.4037  0.0156 -0.6274
   58SAPC  H19S 4371   4.664   3.335   8.537 -0.5872  1.4523 -1.0497
   58SAPC  C220 4372   4.598   3.283   8.336 -0.4627  0.1840 -0.3863
   58SAPC  H20R 4373   4.685   3.221   8.306  0.5162  2.6421 -3.1535
   58SAPC  H20S 4374   4.589   3.383   8.289 -1.1916 -0.6656 -2.1139
   58SAPC  H20T 4375   4.510   3.225   8.300 -0.0304  0.2224 -1.5288
   58SAPC   C33 4376   4.078   2.314   9.858 -0.5091 -0.5255 -0.0563
   58SAPC   H3X 4377   3.973   2.297   9.890 -0.6569  1.5699  0.7433
   58SAPC   H3Y 4378   4.125   2.230   9.802  2.5422  0.0271  1.5003
   58SAPC   C34 4379   4.090   2.446   9.776 -0.2756 -0.6605  0.0069
   58SAPC   H4X 4380   4.200   2.461   9.783 -0.2278 -0.8513 -0.2824
   58SAPC   H4Y 4381   4.033   2.534   9.810  1.4844  0.7071 -0.4333
   58SAPC   C35 4382   4.035   2.416   9.632 -0.8893  0.9444  0.3510
   58SAPC   H5X 4383   3.958   2.495   9.614 -1.3150  0.0941 -1.9978
   58SAPC   H5Y 4384   3.995   2.312   9.626 -1.3520  0.9260  2.8668
   58SAPC   C36 4385   4.141   2.447   9.528 -0.9173  0.3936  0.6543
   58SAPC   H6X 4386   4.183   2.357   9.479 -0.5214  2.7590 -3.9003
   58SAPC   H6Y 4387   4.222   2.511   9.567  1.7211 -2.4772  0.2222
   58SAPC   C37 4388   4.082   2.512   9.408 -0.4300 -0.0088 -0.5253
   58SAPC   H7X 4389   4.047   2.616   9.423 -0.5981  0.3239 -2.8284
   58SAPC   H7Y 4390   3.989   2.458   9.378 -0.1790  0.6132 -2.5536
   58SAPC   C38 4391   4.164   2.501   9.281 -0.9127 -0.8060  0.3738
   58SAPC   H8X 4392   4.182   2.394   9.260 -0.4028 -0.4307 -1.2695
   58SAPC   H8Y 4393   4.255   2.564   9.299 -2.6139  1.6843  0.7734
   58SAPC   C39 4394   4.103   2.558   9.153 -0.6105 -0.5950  0.0516
   58SAPC   H9X 4395   4.079   2.666   9.158 -2.1957 -0.8804 -0.7816
   58SAPC   H9Y 4396   4.007   2.506   9.135 -0.1178 -0.7309 -2.5984
   58SAPC  C310 4397   4.187   2.525   9.022  0.6597  0.4727 -0.5761
   58SAPC  H10X 4398   4.195   2.415   9.013  2.9221  0.4883  0.4242
   58SAPC  H10Y 4399   4.286   2.567   9.051 -0.3650  0.5740  3.3642
   58SAPC  C311 4400   4.149   2.590   8.891 -0.2440  0.1151 -0.4298
   58SAPC  H11X 4401   4.043   2.560   8.877 -1.5545  2.0089  3.7473
   58SAPC  H11Y 4402   4.216   2.539   8.819 -0.4903 -1.1459  0.2103
   58SAPC  C312 4403   4.153   2.745   8.894 -0.3381  0.4432  0.3820
   58SAPC  H12X 4404   4.250   2.757   8.945 -0.5338  1.0153  0.6259
   58SAPC  H12Y 4405   4.076   2.795   8.957 -0.6078 -0.2727  0.6345
   58SAPC  C313 4406   4.157   2.809   8.757  0.1790 -0.4376 -0.2616
   58SAPC  H13X 4407   4.077   2.766   8.692  1.9173 -0.7392 -2.3217
   58SAPC  H13Y 4408   4.255   2.773   8.720 -0.1856 -2.1137  0.3236
   58SAPC  C314 4409   4.141   2.967   8.758 -1.0367  0.3616 -0.3259
   58SAPC  H14X 4410   4.233   3.003   8.810 -1.1281  0.9245 -0.5435
   58SAPC  H14Y 4411   4.047   3.000   8.807 -2.2319 -2.9792 -0.0872
   58SAPC  C315 4412   4.148   3.028   8.617  0.5917 -0.8296  0.6442
   58SAPC  H15X 4413   4.228   2.992   8.549  1.7554  1.4994  0.6543
   58SAPC  H15Y 4414   4.173   3.136   8.627  1.7586 -1.0418  0.1805
   58SAPC  C316 4415   4.006   3.026   8.554  0.5593 -0.0134  0.4633
   58SAPC  H16X 4416   3.929   3.048   8.631 -2.6126  2.4040 -3.0243
   58SAPC  H16Y 4417   3.979   2.926   8.514 -0.0450  1.0035 -1.8651
   58SAPC  C317 4418   3.968   3.133   8.447  0.4947  0.1278  0.0649
   58SAPC  H17X 4419   3.972   3.237   8.485  1.3288  0.0881  0.1028
   58SAPC  H17Y 4420   3.868   3.117   8.403  0.4638  0.8263 -0.1279
   58SAPC  C318 4421   4.058   3.105   8.327  0.4173  0.0160 -0.9579
   58SAPC  H18X 4422   4.158   3.148   8.348  0.6518 -1.6412  1.8549
   58SAPC  H18Y 4423   4.026   3.153   8.232 -0.4269 -0.3220 -0.8489
   58SAPC  H18Z 4424   4.075   2.997   8.305 -1.8072 -1.0678  2.0311
   59SAPC     N 4425   6.199   2.998  10.548  0.4232  0.3218 -0.2849
   59SAPC   C12 4426   6.104   2.937  10.644  0.4386  0.5788 -0.0967
   59SAPC  H12A 4427   6.166   2.892  10.720  1.5575  1.5021 -0.4388
   59SAPC  H12B 4428   6.057   2.856  10.590  1.9615  0.5182 -1.3970
   59SAPC   C13 4429   6.125   3.055  10.429 -0.2601 -0.0485 -0.6894
   59SAPC  H13A 4430   6.105   2.978  10.355  2.9198 -0.1598 -1.5836
   59SAPC  H13B 4431   6.034   3.100  10.463 -1.1416 -0.6766 -2.1054
   59SAPC  H13C 4432   6.186   3.133  10.387 -1.4441 -0.0131 -2.4717
   59SAPC   C14 4433   6.259   3.114  10.629  0.0809  0.8116  0.1928
   59SAPC  H14A 4434   6.298   3.075  10.722 -2.9091 -2.7394  0.1819
   59SAPC  H14B 4435   6.333   3.165  10.569  1.0529 -0.2795  0.4336
   59SAPC  H14C 4436   6.181   3.186  10.649  1.4192  2.5563 -0.5608
   59SAPC   C15 4437   6.310   2.913  10.499  0.0032  0.5854 -0.1836
   59SAPC  H15A 4438   6.368   2.961  10.421 -0.2841 -1.5796 -1.8462
   59SAPC  H15B 4439   6.379   2.888  10.578 -0.0689  1.7685  0.2746
   59SAPC  H15C 4440   6.282   2.816  10.460  2.1407  0.4844 -1.6626
   59SAPC   C11 4441   5.998   3.028  10.713  0.4874 -0.4238  0.3645
   59SAPC  H11A 4442   6.039   3.124  10.752  1.7173  0.2440 -2.3563
   59SAPC  H11B 4443   5.966   2.967  10.801 -1.3418 -1.8680 -1.2170
   59SAPC     P 4444   5.789   2.944  10.577  0.0169  0.0656 -0.2895
   59SAPC   O13 4445   5.836   2.806  10.571 -0.1796  0.5117  0.4898
   59SAPC   O14 4446   5.664   2.959  10.658  0.2364  0.0041 -0.1135
   59SAPC   O12 4447   5.887   3.049  10.627 -0.1577  0.0956 -0.8903
   59SAPC   O11 4448   5.758   2.998  10.432 -0.1428 -0.0306 -0.2143
   59SAPC    C1 4449   5.674   2.939  10.337  0.9463 -0.4555  0.3734
   59SAPC    HA 4450   5.594   2.876  10.381  0.9662 -0.6003  0.2062
   59SAPC    HB 4451   5.635   3.019  10.270  1.8150 -0.5590 -0.2760
   59SAPC    C2 4452   5.757   2.841  10.244 -0.0557 -0.5693 -0.2694
   59SAPC    HS 4453   5.807   2.768  10.311  1.1826 -0.3049 -0.8688
   59SAPC   O21 4454   5.852   2.925  10.170 -0.5200  0.5364 -0.1336
   59SAPC   C21 4455   5.953   2.856  10.131 -0.6298  0.4240 -0.0793
   59SAPC   O22 4456   5.978   2.736  10.147  0.4140  0.4543  0.4000
   59SAPC   C22 4457   6.032   2.950  10.042  0.1260 -0.0901 -0.9146
   59SAPC   H2R 4458   5.972   3.039  10.013  1.4358  0.3149 -2.5345
   59SAPC   H2S 4459   6.110   2.984  10.113 -0.5101 -2.4711  1.0973
   59SAPC    C3 4460   5.661   2.760  10.147  0.7906  0.3963  0.0730
   59SAPC    HX 4461   5.601   2.688  10.207 -0.2440  3.1000  2.4986
   59SAPC    HY 4462   5.720   2.698  10.076  0.9971  1.8208 -1.0399
   59SAPC   O31 4463   5.571   2.851  10.072 -0.3709  0.2305  0.3635
   59SAPC   C31 4464   5.457   2.812  10.041  0.6083 -0.0070  0.2589
   59SAPC   O32 4465   5.404   2.708  10.073  0.3944  0.0629 -0.2175
   59SAPC   C32 4466   5.379   2.929   9.970 -0.0318  0.2628 -0.9692
   59SAPC   H2X 4467   5.445   3.015   9.946 -1.1968  0.9066 -1.9393
   59SAPC   H2Y 4468   5.318   2.968  10.054  1.0999  1.7439 -0.7970
   59SAPC   C23 4469   6.089   2.891   9.910 -0.5777  0.3224 -1.5474
   59SAPC   H3R 4470   6.096   2.781   9.923 -1.4034  0.4897  0.7503
   59SAPC   H3S 4471   6.188   2.938   9.891 -0.6741  1.5089  0.5670
   59SAPC   C24 4472   6.002   2.931   9.796  0.0043  0.1183  0.1432
   59SAPC   H4R 4473   6.062   2.909   9.705  0.7510  0.6088  0.5089
   59SAPC   H4S 4474   5.985   3.041   9.793 -0.3525  0.1614  2.3731
   59SAPC   C25 4475   5.868   2.856   9.794  0.3444 -1.2955 -0.5807
   59SAPC   H5R 4476   5.816   2.833   9.889  1.2097 -1.3404 -0.1000
   59SAPC   C26 4477   5.806   2.817   9.679 -0.1624  0.4025 -0.6014
   59SAPC   H6R 4478   5.710   2.764   9.679 -0.6746  1.3009 -0.7738
   59SAPC   C27 4479   5.854   2.830   9.530  0.5552  0.6655 -0.0893
   59SAPC   H7R 4480   5.870   2.732   9.480  0.1993 -0.1589  1.3642
   59SAPC   H7S 4481   5.944   2.896   9.525  2.6440 -2.0530 -0.4273
   59SAPC   C28 4482   5.747   2.899   9.444 -0.2215  0.1644  0.0163
   59SAPC   H8R 4483   5.686   2.972   9.500  0.1636  1.2969 -0.9990
   59SAPC   C29 4484   5.734   2.897   9.316 -0.0786  0.0811  0.3995
   59SAPC   H9R 4485   5.638   2.930   9.274  1.0309  3.1706  0.0329
   59SAPC  C210 4486   5.820   2.812   9.223 -0.4030  0.0034  0.7395
   59SAPC  H10R 4487   5.904   2.767   9.281  0.1373  2.1748  1.7230
   59SAPC  H10S 4488   5.869   2.871   9.142 -2.2828 -0.0083 -0.4636
   59SAPC  C211 4489   5.724   2.704   9.175 -0.0964 -1.1093 -0.1005
   59SAPC  H11R 4490   5.678   2.636   9.248 -1.4131 -0.3572 -0.1969
   59SAPC  C212 4491   5.684   2.689   9.048  0.3484 -0.0877 -0.2042
   59SAPC  H12R 4492   5.637   2.594   9.019 -0.1014 -0.2002  0.8453
   59SAPC  C213 4493   5.737   2.760   8.926 -0.2951 -0.6240 -0.1764
   59SAPC  H13R 4494   5.744   2.869   8.950  1.6179 -0.1576 -2.4439
   59SAPC  H13S 4495   5.665   2.756   8.841  2.2788 -0.7988 -2.4772
   59SAPC  C214 4496   5.864   2.700   8.871  0.5469 -0.1923  0.8789
   59SAPC  H14R 4497   5.894   2.595   8.883  0.4524 -0.0413  2.7264
   59SAPC  C215 4498   5.951   2.778   8.802 -0.6633  0.2167 -0.4960
   59SAPC  H15R 4499   6.042   2.725   8.773 -0.9508 -0.2507 -0.5490
   59SAPC  C216 4500   5.943   2.931   8.781  0.1242  0.2749 -0.0240
   59SAPC  H16R 4501   6.046   2.971   8.774  1.0219 -1.4242  2.1802
   59SAPC  H16S 4502   5.900   2.984   8.868 -0.7006  0.9824 -0.8453
   59SAPC  C217 4503   5.867   2.971   8.663  0.3645 -0.3711  0.0109
   59SAPC  H17R 4504   5.849   3.079   8.680  2.3628  0.5279 -2.8744
   59SAPC  H17S 4505   5.771   2.915   8.659  0.3531 -0.3452 -0.0882
   59SAPC  C218 4506   5.951   2.952   8.528 -0.3489  0.3919  0.6559
   59SAPC  H18R 4507   5.953   2.844   8.503  0.0492  0.6021 -0.2446
   59SAPC  H18S 4508   6.054   2.990   8.549  0.2890 -0.4452 -0.8238
   59SAPC  C219 4509   5.884   3.024   8.414  0.0539  0.4033 -0.4638
   59SAPC  H19R 4510   5.948   3.009   8.325 -0.4081  0.1015 -0.7519
   59SAPC  H19S 4511   5.880   3.135   8.418  2.3560  0.6534 -2.6531
   59SAPC  C220 4512   5.753   2.969   8.370  0.9916  0.3299  0.5920
   59SAPC  H20R 4513   5.724   2.871   8.414  0.5303 -0.3117 -1.0919
   59SAPC  H20S 4514   5.742   2.968   8.260  1.5808 -0.0482  0.5364
   59SAPC  H20T 4515   5.674   3.038   8.407  0.2472 -1.0149  1.6045
   59SAPC   C33 4516   5.297   2.891   9.852  0.1482  0.6391  0.5312
   59SAPC   H3X 4517   5.209   2.955   9.832 -0.0811  0.5762  1.2934
   59SAPC   H3Y 4518   5.252   2.789   9.849  0.7638  0.2874 -4.3823
   59SAPC   C34 4519   5.375   2.908   9.722  0.5857 -0.5446 -0.6506
   59SAPC   H4X 4520   5.442   2.823   9.700  0.6861 -0.1438 -1.9967
   59SAPC   H4Y 4521   5.434   2.999   9.747 -0.2455  0.2422 -1.4494
   59SAPC   C35 4522   5.278   2.945   9.609  0.1421 -0.7855  0.2071
   59SAPC   H5X 4523   5.203   3.022   9.634  0.8007  0.5202 -1.6261
   59SAPC   H5Y 4524   5.221   2.855   9.578  0.6739 -1.0327 -0.0617
   59SAPC   C36 4525   5.356   2.986   9.488  0.1412 -0.1388  0.1527
   59SAPC   H6X 4526   5.462   2.951   9.497  0.0500 -1.0777 -1.8747
   59SAPC   H6Y 4527   5.373   3.095   9.485  1.4899 -0.3146  0.4674
   59SAPC   C37 4528   5.305   2.924   9.361  0.5959  0.0882  0.4549
   59SAPC   H7X 4529   5.195   2.922   9.366  0.5535  0.3435 -0.2205
   59SAPC   H7Y 4530   5.329   2.816   9.347 -0.2170  0.1351 -1.7869
   59SAPC   C38 4531   5.326   3.007   9.233  0.4184  0.4336 -0.1402
   59SAPC   H8X 4532   5.422   3.059   9.253  0.4989  0.2627 -0.0776
   59SAPC   H8Y 4533   5.247   3.084   9.223  1.5379  1.4455 -1.5970
   59SAPC   C39 4534   5.343   2.920   9.109  0.5101 -0.2227  0.7787
   59SAPC   H9X 4535   5.251   2.860   9.090 -0.2862  0.2630  2.8356
   59SAPC   H9Y 4536   5.421   2.845   9.135  0.6518 -0.6675 -0.8111
   59SAPC  C310 4537   5.377   3.010   8.988  0.2919 -0.0106  0.4166
   59SAPC  H10X 4538   5.486   3.025   8.995  0.3724 -0.1059 -0.5148
   59SAPC  H10Y 4539   5.324   3.107   8.998  0.1297  0.1473 -1.5960
   59SAPC  C311 4540   5.352   2.943   8.852  0.4142  0.6105 -0.5533
   59SAPC  H11X 4541   5.242   2.928   8.850  0.3714  0.8956 -0.3962
   59SAPC  H11Y 4542   5.396   2.842   8.863  1.7207  1.1743 -0.3454
   59SAPC  C312 4543   5.404   3.021   8.734 -0.1610 -0.4862  0.0995
   59SAPC  H12X 4544   5.511   3.050   8.745 -0.5173  1.7938 -1.6289
   59SAPC  H12Y 4545   5.362   3.123   8.722  2.9261  0.7501 -1.2106
   59SAPC  C313 4546   5.394   2.947   8.600 -0.0082  0.8539 -0.3126
   59SAPC  H13X 4547   5.300   2.887   8.604 -0.5329  1.5867 -1.2085
   59SAPC  H13Y 4548   5.476   2.873   8.589  0.0769  1.0172 -0.8151
   59SAPC  C314 4549   5.394   3.047   8.488  0.3764  0.2508  0.1975
   59SAPC  H14X 4550   5.479   3.118   8.500  0.0412  0.7107 -0.1390
   59SAPC  H14Y 4551   5.308   3.116   8.496  0.6774  0.5270  1.2254
   59SAPC  C315 4552   5.393   2.955   8.374 -0.0479  0.2238  1.3206
   59SAPC  H15X 4553   5.313   2.877   8.383 -1.3247  0.8818 -2.4334
   59SAPC  H15Y 4554   5.483   2.890   8.368  0.8313  1.3163  2.3295
   59SAPC  C316 4555   5.365   3.030   8.245 -0.0293 -0.6328  0.4319
   59SAPC  H16X 4556   5.461   3.074   8.211  1.1131 -1.3152  2.6225
   59SAPC  H16Y 4557   5.284   3.104   8.266 -1.5137 -1.6555 -1.3427
   59SAPC  C317 4558   5.329   2.935   8.133 -0.0746 -0.2394 -0.0960
   59SAPC  H17X 4559   5.258   2.860   8.174  0.9781 -0.6742  0.9852
   59SAPC  H17Y 4560   5.419   2.881   8.096 -1.0752 -0.4725 -2.3609
   59SAPC  C318 4561   5.269   3.005   8.011 -0.3010  1.0531 -0.6246
   59SAPC  H18X 4562   5.173   3.052   8.038 -0.3710  1.1970 -1.1079
   59SAPC  H18Y 4563   5.266   2.937   7.923  1.0281  0.4543 -0.2382
   59SAPC  H18Z 4564   5.340   3.085   7.980 -2.2307  2.2622 -2.1763
   60SAPC     N 4565   1.936   1.099  10.739  0.3586 -0.3569 -0.3264
   60SAPC   C12 4566   1.968   1.243  10.693  0.1105 -0.3262  0.1495
   60SAPC  H12A 4567   2.059   1.234  10.635 -0.7814 -1.0554 -1.2144
   60SAPC  H12B 4568   1.996   1.307  10.775  0.1254 -1.5069  1.0771
   60SAPC   C13 4569   2.053   1.040  10.815 -0.6081 -0.0888 -0.3987
   60SAPC  H13A 4570   2.074   1.096  10.905  0.9797  1.0952 -1.4794
   60SAPC  H13B 4571   2.029   0.944  10.859  1.9798 -0.7095 -0.1738
   60SAPC  H13C 4572   2.146   1.030  10.761 -0.8433  1.3671 -1.1014
   60SAPC   C14 4573   1.813   1.099  10.829 -0.6060 -0.2319  0.6308
   60SAPC  H14A 4574   1.786   1.004  10.873 -0.8406 -0.6775 -0.4420
   60SAPC  H14B 4575   1.831   1.165  10.913  1.4771 -0.0116  0.0387
   60SAPC  H14C 4576   1.728   1.123  10.767 -1.2425  3.6801  2.6861
   60SAPC   C15 4577   1.910   1.010  10.626  1.1579 -0.3342 -0.0359
   60SAPC  H15A 4578   1.901   0.905  10.648  0.1608 -0.8448 -2.4752
   60SAPC  H15B 4579   1.824   1.037  10.567 -1.0304 -2.5974  1.9514
   60SAPC  H15C 4580   1.997   1.017  10.562  2.4410 -1.7939  1.4562
   60SAPC   C11 4581   1.856   1.310  10.608 -0.6677 -0.2340 -0.1181
   60SAPC  H11A 4582   1.817   1.244  10.528 -1.4350 -1.1226  0.9532
   60SAPC  H11B 4583   1.908   1.400  10.569  1.4125  0.6057  4.0243
   60SAPC     P 4584   1.706   1.493  10.722 -0.3377 -0.3905 -0.3269
   60SAPC   O13 4585   1.560   1.511  10.738 -0.2372 -0.1270 -0.6554
   60SAPC   O14 4586   1.785   1.534  10.838  0.2643  0.2849  0.1555
   60SAPC   O12 4587   1.746   1.339  10.700  0.0784  0.3426  0.2999
   60SAPC   O11 4588   1.754   1.574  10.600  0.0138  0.8322 -0.1424
   60SAPC    C1 4589   1.662   1.605  10.498 -0.3679 -0.3027  0.1037
   60SAPC    HA 4590   1.557   1.597  10.534 -0.9039  0.1085 -1.2937
   60SAPC    HB 4591   1.674   1.712  10.472  0.7149 -0.2392  0.8231
   60SAPC    C2 4592   1.661   1.503  10.386  0.2011 -0.5918  0.0796
   60SAPC    HS 4593   1.679   1.399  10.420 -3.7355 -1.9343 -1.3673
   60SAPC   O21 4594   1.772   1.544  10.295  0.5884  0.2548 -0.0082
   60SAPC   C21 4595   1.808   1.446  10.210 -0.5178  0.8741 -0.4909
   60SAPC   O22 4596   1.767   1.330  10.212 -0.0124 -0.2201  0.4187
   60SAPC   C22 4597   1.913   1.494  10.101 -0.1147 -0.0773  0.0228
   60SAPC   H2R 4598   1.946   1.596  10.130  0.5575 -0.7798  1.8814
   60SAPC   H2S 4599   2.001   1.430  10.122 -0.7583 -1.0442 -0.1753
   60SAPC    C3 4600   1.529   1.511  10.308  0.0422  1.2914  0.3242
   60SAPC    HX 4601   1.448   1.467  10.371  1.5462 -0.6559  0.9989
   60SAPC    HY 4602   1.529   1.435  10.226 -0.9144  0.5025  1.0246
   60SAPC   O31 4603   1.497   1.645  10.258 -0.5295  0.6360 -0.3277
   60SAPC   C31 4604   1.426   1.660  10.147  0.2123  0.0223  0.4645
   60SAPC   O32 4605   1.403   1.579  10.061 -0.0475  0.5865 -0.1326
   60SAPC   C32 4606   1.382   1.801  10.124 -0.2889 -0.6930 -1.0954
   60SAPC   H2X 4607   1.450   1.878  10.166  1.3606 -1.0850 -2.8849
   60SAPC   H2Y 4608   1.289   1.815  10.182 -0.7160 -0.2854 -1.8649
   60SAPC   C23 4609   1.847   1.485   9.956 -0.2983 -0.0386 -0.3274
   60SAPC   H3R 4610   1.798   1.385   9.948  1.1292 -0.7139 -0.9563
   60SAPC   H3S 4611   1.928   1.484   9.880  0.1851 -0.6502  0.1837
   60SAPC   C24 4612   1.758   1.602   9.917  0.6539 -0.6168  0.3855
   60SAPC   H4R 4613   1.783   1.698   9.967  1.9107 -0.6789 -0.0763
   60SAPC   H4S 4614   1.654   1.580   9.948  0.0820 -0.0113 -1.0504
   60SAPC   C25 4615   1.748   1.635   9.774 -0.1157  0.0783 -0.1680
   60SAPC   H5R 4616   1.799   1.732   9.763  1.1136 -0.0706  3.1602
   60SAPC   C26 4617   1.683   1.569   9.670  0.8483  0.1366 -0.6255
   60SAPC   H6R 4618   1.674   1.604   9.567 -2.1938 -0.6989 -0.7305
   60SAPC   C27 4619   1.602   1.445   9.703 -0.3937  0.5868 -0.7453
   60SAPC   H7R 4620   1.654   1.382   9.779 -0.6583  2.2814  0.9403
   60SAPC   H7S 4621   1.601   1.388   9.609 -0.6809 -0.0205 -0.3788
   60SAPC   C28 4622   1.461   1.459   9.757  0.1875 -0.8405 -0.4696
   60SAPC   H8R 4623   1.462   1.451   9.867  0.2750  2.5545 -0.1209
   60SAPC   C29 4624   1.341   1.461   9.694 -0.2863 -0.6854  0.0112
   60SAPC   H9R 4625   1.258   1.464   9.767 -0.6148 -0.7673 -0.3580
   60SAPC  C210 4626   1.320   1.444   9.541 -0.3661 -0.1396 -0.1082
   60SAPC  H10R 4627   1.215   1.462   9.509 -0.1421 -1.4130 -1.7433
   60SAPC  H10S 4628   1.354   1.339   9.524 -0.8191 -0.3010 -0.0210
   60SAPC  C211 4629   1.393   1.550   9.451  0.9905 -0.0080  0.3566
   60SAPC  H11R 4630   1.394   1.650   9.497 -1.0232 -0.1997  0.8956
   60SAPC  C212 4631   1.470   1.526   9.341 -0.0087 -0.2301 -0.3553
   60SAPC  H12R 4632   1.544   1.601   9.308 -0.2428  0.2819  0.2473
   60SAPC  C213 4633   1.494   1.393   9.276 -1.3924  0.1700  0.0707
   60SAPC  H13R 4634   1.398   1.357   9.233 -0.5365 -0.1745 -1.5859
   60SAPC  H13S 4635   1.512   1.316   9.354  2.3819 -0.5854 -1.3934
   60SAPC  C214 4636   1.593   1.386   9.162 -0.5921 -0.5496  0.2298
   60SAPC  H14R 4637   1.698   1.356   9.174 -0.2247  0.7850  0.4141
   60SAPC  C215 4638   1.567   1.422   9.037  0.9259  0.2249  0.2828
   60SAPC  H15R 4639   1.641   1.411   8.957  0.0952 -0.0424 -0.4706
   60SAPC  C216 4640   1.440   1.492   8.981 -0.3622  0.4981 -0.1510
   60SAPC  H16R 4641   1.471   1.565   8.903 -1.8032  1.5700  0.2432
   60SAPC  H16S 4642   1.401   1.562   9.058 -0.5512 -0.5954  0.7734
   60SAPC  C217 4643   1.337   1.389   8.925  0.0261 -0.7164 -0.0907
   60SAPC  H17R 4644   1.301   1.310   8.994  0.3375 -1.8125 -1.1485
   60SAPC  H17S 4645   1.377   1.330   8.840 -0.6581 -1.8316  0.3375
   60SAPC  C218 4646   1.224   1.466   8.850 -0.1039 -0.3183 -0.2977
   60SAPC  H18R 4647   1.268   1.527   8.768 -0.1345 -0.3156 -0.3122
   60SAPC  H18S 4648   1.174   1.522   8.933 -0.3285 -2.2323  0.9273
   60SAPC  C219 4649   1.127   1.368   8.778 -0.9456  0.1307  0.5188
   60SAPC  H19R 4650   1.078   1.305   8.856  0.6206 -2.2116 -0.2714
   60SAPC  H19S 4651   1.170   1.298   8.704 -0.3601  2.1203 -1.1138
   60SAPC  C220 4652   1.011   1.447   8.717 -0.4636  0.7324  0.4010
   60SAPC  H20R 4653   0.966   1.496   8.806  1.4600  2.4657  0.4762
   60SAPC  H20S 4654   0.936   1.375   8.678 -0.0695 -0.7936  2.3005
   60SAPC  H20T 4655   1.043   1.527   8.648  0.9491 -0.0455  0.1203
   60SAPC   C33 4656   1.353   1.838   9.974  0.1005  0.6794  0.2146
   60SAPC   H3X 4657   1.292   1.930   9.972  1.5012  1.6397  0.1009
   60SAPC   H3Y 4658   1.298   1.753   9.928 -1.0691  0.8205  1.2764
   60SAPC   C34 4659   1.485   1.868   9.895  0.3859  0.0010  0.4458
   60SAPC   H4X 4660   1.548   1.778   9.914 -0.9837 -0.6437  2.2401
   60SAPC   H4Y 4661   1.527   1.962   9.935  0.2791 -0.2558  1.1903
   60SAPC   C35 4662   1.462   1.873   9.745 -0.1362  0.1415  0.0072
   60SAPC   H5X 4663   1.394   1.790   9.716  0.8612 -1.1001  1.0887
   60SAPC   H5Y 4664   1.561   1.868   9.694  0.4400  2.6256  0.7512
   60SAPC   C36 4665   1.382   2.004   9.704 -0.6905  0.5572 -0.4758
   60SAPC   H6X 4666   1.466   2.076   9.708  0.5903 -0.9096  0.2344
   60SAPC   H6Y 4667   1.306   2.020   9.784 -1.0596  1.4768 -1.0043
   60SAPC   C37 4668   1.324   1.998   9.571 -0.8533 -0.0153 -0.4320
   60SAPC   H7X 4669   1.249   2.081   9.566  0.0174  0.7309 -1.5497
   60SAPC   H7Y 4670   1.273   1.901   9.556  0.7258 -1.1968  1.4504
   60SAPC   C38 4671   1.439   2.008   9.464  0.3992  0.9126  0.5492
   60SAPC   H8X 4672   1.507   1.921   9.478  0.8734  1.2069  0.1273
   60SAPC   H8Y 4673   1.497   2.103   9.464  0.6802  0.7717  2.0029
   60SAPC   C39 4674   1.391   1.981   9.318  0.3631 -0.1095 -0.8841
   60SAPC   H9X 4675   1.324   2.057   9.273 -0.8538 -0.9517 -0.5228
   60SAPC   H9Y 4676   1.319   1.897   9.315 -0.6233  0.7180 -1.0295
   60SAPC  C310 4677   1.503   1.945   9.223 -0.5945  0.1888 -0.0604
   60SAPC  H10X 4678   1.565   1.864   9.268  2.7292  0.9099 -2.8888
   60SAPC  H10Y 4679   1.569   2.035   9.216  2.4819 -1.8133  1.1014
   60SAPC  C311 4680   1.463   1.904   9.077 -0.1675 -0.3665  0.1395
   60SAPC  H11X 4681   1.412   1.990   9.027  1.3504  0.0318 -0.8147
   60SAPC  H11Y 4682   1.388   1.828   9.107  0.2375 -0.5943  0.5863
   60SAPC  C312 4683   1.572   1.842   8.986  0.9422 -0.4449  0.1592
   60SAPC  H12X 4684   1.608   1.743   9.022 -0.8160 -0.6960  1.3345
   60SAPC  H12Y 4685   1.667   1.900   8.987  1.5737 -1.4550  1.3451
   60SAPC  C313 4686   1.527   1.835   8.838  0.1627  0.4740  0.2004
   60SAPC  H13X 4687   1.484   1.932   8.806 -0.6703  0.2119  0.4961
   60SAPC  H13Y 4688   1.450   1.755   8.830 -0.6512  1.3613 -1.1309
   60SAPC  C314 4689   1.638   1.794   8.742  0.1022  0.0837 -0.6286
   60SAPC  H14X 4690   1.682   1.693   8.753  1.3867  0.5636 -1.1971
   60SAPC  H14Y 4691   1.726   1.861   8.749 -0.0567  0.6718 -3.4115
   60SAPC  C315 4692   1.604   1.787   8.599 -0.0343 -0.8940  0.2098
   60SAPC  H15X 4693   1.512   1.728   8.581  1.0400 -2.3683 -0.7947
   60SAPC  H15Y 4694   1.681   1.732   8.539  0.6419  2.4061 -2.2495
   60SAPC  C316 4695   1.588   1.933   8.541  0.1222  0.0103 -0.3237
   60SAPC  H16X 4696   1.668   2.003   8.575 -2.2208  1.8361  1.8154
   60SAPC  H16Y 4697   1.503   1.984   8.590  1.2131  1.4141  0.1828
   60SAPC  C317 4698   1.575   1.931   8.386 -0.0546  0.4720  0.3607
   60SAPC  H17X 4699   1.484   1.874   8.357  0.7635 -1.1003  0.7212
   60SAPC  H17Y 4700   1.669   1.890   8.343 -1.9214 -2.2879 -1.3688
   60SAPC  C318 4701   1.575   2.078   8.339  0.0298  0.5268  0.3054
   60SAPC  H18X 4702   1.488   2.117   8.395 -0.0866  1.3109 -0.3916
   60SAPC  H18Y 4703   1.557   2.092   8.230 -1.5114 -0.6041  0.3852
   60SAPC  H18Z 4704   1.661   2.142   8.370 -0.4491  0.8732  0.9443
   61SAPC     N 4705   6.658   5.749  11.079 -0.0666 -0.3084  0.6938
   61SAPC   C12 4706   6.766   5.684  10.991 -0.3151  0.3000 -1.1274
   61SAPC  H12A 4707   6.730   5.652  10.894  1.0086  0.4979 -1.7092
   61SAPC  H12B 4708   6.802   5.590  11.030  2.3690  0.9556 -1.7636
   61SAPC   C13 4709   6.549   5.650  11.108 -0.0739  0.1512  0.1468
   61SAPC  H13A 4710   6.582   5.553  11.141 -1.9246 -0.8868 -0.8603
   61SAPC  H13B 4711   6.488   5.696  11.184  2.5081  1.4955  1.5200
   61SAPC  H13C 4712   6.491   5.621  11.021 -2.5208 -1.2396  2.1102
   61SAPC   C14 4713   6.720   5.784  11.208 -0.4301  0.3117 -0.2498
   61SAPC  H14A 4714   6.771   5.698  11.249  0.9967 -0.6970 -3.7816
   61SAPC  H14B 4715   6.799   5.856  11.195  1.8062 -1.5559  1.8759
   61SAPC  H14C 4716   6.646   5.823  11.277  0.9001  0.2094  1.2944
   61SAPC   C15 4717   6.602   5.870  11.022 -0.5266 -0.9725 -0.5555
   61SAPC  H15A 4718   6.531   5.846  10.943 -0.8083  0.3922 -0.7440
   61SAPC  H15B 4719   6.542   5.920  11.096  1.8413  0.5439  0.4465
   61SAPC  H15C 4720   6.680   5.940  10.998  0.4371 -1.9906 -0.4451
   61SAPC   C11 4721   6.889   5.769  10.960  0.1817  0.2286 -0.0709
   61SAPC  H11A 4722   6.949   5.714  10.884 -1.7215 -0.7017 -0.9807
   61SAPC  H11B 4723   6.954   5.782  11.049  1.8005  1.0380 -1.3290
   61SAPC     P 4724   6.967   5.986  10.844  0.0911  0.6059  0.0787
   61SAPC   O13 4725   6.920   6.125  10.847  0.3196 -0.5338 -0.4812
   61SAPC   O14 4726   7.090   5.959  10.920 -0.0235 -0.0809 -0.0503
   61SAPC   O12 4727   6.857   5.896  10.907  0.2586  0.3120  0.2545
   61SAPC   O11 4728   6.998   5.934  10.695  0.3002  0.0546  0.3962
   61SAPC    C1 4729   6.892   5.852  10.628  0.3729 -0.4874 -0.2202
   61SAPC    HA 4730   6.903   5.749  10.667  1.3954  0.1303  1.1978
   61SAPC    HB 4731   6.788   5.881  10.652  0.4206 -1.2117  0.9119
   61SAPC    C2 4732   6.892   5.858  10.467 -0.0002  0.8054 -0.5140
   61SAPC    HS 4733   6.833   5.772  10.428 -0.0317  0.2339  0.7382
   61SAPC   O21 4734   7.025   5.856  10.422  0.3694 -0.1282 -0.0482
   61SAPC   C21 4735   7.091   5.747  10.391 -0.6511  0.6339 -0.7036
   61SAPC   O22 4736   7.062   5.631  10.414  0.3844  0.1391 -0.0113
   61SAPC   C22 4737   7.231   5.787  10.338 -0.8330 -0.0409 -0.3179
   61SAPC   H2R 4738   7.232   5.898  10.324  0.2011  0.2072  1.4586
   61SAPC   H2S 4739   7.308   5.771  10.416  0.7942  0.2100 -1.7870
   61SAPC    C3 4740   6.840   5.990  10.418  0.3707 -0.0031  0.0546
   61SAPC    HX 4741   6.905   6.073  10.453  0.7178  0.4590 -1.6217
   61SAPC    HY 4742   6.735   6.004  10.452 -0.3134  1.7876 -2.4855
   61SAPC   O31 4743   6.846   5.999  10.273 -0.0420  0.5143  0.4602
   61SAPC   C31 4744   6.740   5.942  10.209  0.0834  0.8508  0.7120
   61SAPC   O32 4745   6.642   5.898  10.275 -0.7086  0.3703  0.0027
   61SAPC   C32 4746   6.759   5.962  10.064 -0.3475 -0.0689  0.7101
   61SAPC   H2X 4747   6.863   6.000  10.053 -0.4578 -0.3479 -1.6379
   61SAPC   H2Y 4748   6.702   6.047  10.021 -0.8311 -1.8035 -2.2882
   61SAPC   C23 4749   7.272   5.716  10.215  0.1300  0.1314  0.1059
   61SAPC   H3R 4750   7.276   5.606  10.233  1.0597  0.4304  1.8554
   61SAPC   H3S 4751   7.368   5.740  10.165 -0.8416  1.3809 -1.2545
   61SAPC   C24 4752   7.166   5.734  10.102 -0.7283 -1.1278 -0.0768
   61SAPC   H4R 4753   7.062   5.701  10.123 -1.0976 -2.1967 -3.1579
   61SAPC   H4S 4754   7.207   5.676  10.017 -1.0553 -0.9018 -0.3950
   61SAPC   C25 4755   7.157   5.881  10.046  0.2984  0.1034  0.2536
   61SAPC   H5R 4756   7.077   5.950  10.078 -2.2610 -3.6236  2.8021
   61SAPC   C26 4757   7.236   5.930   9.951 -0.5404  0.3493 -0.0182
   61SAPC   H6R 4758   7.223   6.036   9.924 -0.9043  0.7014  1.4425
   61SAPC   C27 4759   7.365   5.873   9.893 -0.1792  0.3379  0.2015
   61SAPC   H7R 4760   7.425   5.814   9.965  0.9545  0.2975 -0.7450
   61SAPC   H7S 4761   7.426   5.959   9.859 -1.0077  1.1501  0.7246
   61SAPC   C28 4762   7.339   5.776   9.781  0.0174  0.6368  0.2426
   61SAPC   H8R 4763   7.338   5.671   9.814  0.2607  0.5929  0.1131
   61SAPC   C29 4764   7.315   5.807   9.653  0.1125 -0.5868  1.1645
   61SAPC   H9R 4765   7.281   5.732   9.581  1.4827 -0.5919  0.4769
   61SAPC  C210 4766   7.323   5.947   9.603 -0.1392  0.0434  0.9107
   61SAPC  H10R 4767   7.354   6.027   9.674  1.0633  1.0673 -0.6792
   61SAPC  H10S 4768   7.217   5.969   9.579 -1.0057  0.5319  4.6573
   61SAPC  C211 4769   7.425   5.948   9.493  0.4216 -0.0871 -0.2949
   61SAPC  H11R 4770   7.524   5.985   9.524 -0.2914  0.5536  1.4002
   61SAPC  C212 4771   7.399   5.927   9.370  0.7363  0.3088  0.3303
   61SAPC  H12R 4772   7.471   5.946   9.288  1.2807  1.2500  1.0172
   61SAPC  C213 4773   7.261   5.896   9.315  0.2833 -0.5221 -0.0549
   61SAPC  H13R 4774   7.191   5.878   9.399  0.1729  0.9988  0.2001
   61SAPC  H13S 4775   7.260   5.802   9.255 -2.0212 -1.0082  0.6315
   61SAPC  C214 4776   7.207   6.008   9.228  0.9381 -0.5732  0.3806
   61SAPC  H14R 4777   7.143   6.076   9.286 -1.9617 -1.6539 -1.3313
   61SAPC  C215 4778   7.193   6.026   9.097  0.1215  0.9240 -0.0747
   61SAPC  H15R 4779   7.153   6.122   9.063 -2.9707 -0.4171 -0.5466
   61SAPC  C216 4780   7.268   5.957   8.985 -0.0211 -0.0183  0.7225
   61SAPC  H16R 4781   7.336   5.875   9.017  1.6738  1.0769  0.0883
   61SAPC  H16S 4782   7.344   6.032   8.955  1.7377 -1.5123  1.2608
   61SAPC  C217 4783   7.192   5.918   8.857  0.5409  0.3585  0.1109
   61SAPC  H17R 4784   7.152   6.008   8.807  0.3497  0.4094  0.3552
   61SAPC  H17S 4785   7.107   5.855   8.891  0.4633 -0.5574 -1.6402
   61SAPC  C218 4786   7.269   5.839   8.747  0.4449  1.1804 -1.1158
   61SAPC  H18R 4787   7.316   5.766   8.816  2.6649 -0.0918 -3.7722
   61SAPC  H18S 4788   7.343   5.900   8.691  1.7427 -0.1257 -0.8863
   61SAPC  C219 4789   7.175   5.770   8.651  0.6418 -0.3888  0.0897
   61SAPC  H19R 4790   7.242   5.726   8.575 -1.3104 -0.5377 -1.6428
   61SAPC  H19S 4791   7.108   5.844   8.601 -0.1425 -0.1651  1.4154
   61SAPC  C220 4792   7.088   5.657   8.715 -0.1658  0.2269 -0.7434
   61SAPC  H20R 4793   7.003   5.701   8.772  1.0335 -1.2469  2.3639
   61SAPC  H20S 4794   7.147   5.590   8.782 -1.4186 -0.0947  0.0756
   61SAPC  H20T 4795   7.041   5.592   8.638 -1.6300 -0.7324  0.8737
   61SAPC   C33 4796   6.741   5.825   9.993  0.4977 -0.0311  0.0754
   61SAPC   H3X 4797   6.631   5.813   9.991  0.5610 -0.6052 -2.2430
   61SAPC   H3Y 4798   6.780   5.739  10.052 -0.8503 -0.7405 -0.0510
   61SAPC   C34 4799   6.798   5.818   9.848 -0.3724 -0.6195  0.0216
   61SAPC   H4X 4800   6.761   5.723   9.803 -0.3999 -1.0310  0.8905
   61SAPC   H4Y 4801   6.908   5.808   9.849 -0.1441  1.5284 -0.5863
   61SAPC   C35 4802   6.759   5.932   9.760  0.2967  0.0294  0.5373
   61SAPC   H5X 4803   6.805   6.027   9.796  1.0742 -0.4055  0.7029
   61SAPC   H5Y 4804   6.649   5.946   9.762  0.1688 -0.7740 -0.2816
   61SAPC   C36 4805   6.809   5.904   9.611 -0.2435 -0.0524  0.1997
   61SAPC   H6X 4806   6.752   5.820   9.565 -2.5325  1.5605 -0.0799
   61SAPC   H6Y 4807   6.918   5.885   9.615 -0.3064 -0.5364 -0.3276
   61SAPC   C37 4808   6.778   6.025   9.516  0.0438  0.3750  0.2110
   61SAPC   H7X 4809   6.827   6.123   9.534  0.9596  0.6565 -3.1835
   61SAPC   H7Y 4810   6.667   6.031   9.509 -0.1258 -1.7055  0.6278
   61SAPC   C38 4811   6.808   5.978   9.370  0.2065  0.5546 -0.0848
   61SAPC   H8X 4812   6.769   5.874   9.364  0.6353  0.2679  1.5692
   61SAPC   H8Y 4813   6.917   5.956   9.363  0.0562 -0.2167 -0.0732
   61SAPC   C39 4814   6.757   6.064   9.254  0.3456  0.2643 -0.9071
   61SAPC   H9X 4815   6.781   6.168   9.285 -4.2872  0.7658  1.8385
   61SAPC   H9Y 4816   6.647   6.054   9.244  0.5270 -0.4371 -2.6841
   61SAPC  C310 4817   6.827   6.020   9.122 -0.7124  0.4405 -0.4930
   61SAPC  H10X 4818   6.793   5.920   9.087  0.1810  0.7158 -2.2634
   61SAPC  H10Y 4819   6.937   6.035   9.123 -0.7924  1.2287  1.4241
   61SAPC  C311 4820   6.786   6.122   9.001 -0.1529  0.1793 -0.5553
   61SAPC  H11X 4821   6.837   6.217   9.029  1.3020 -0.2410 -1.6310
   61SAPC  H11Y 4822   6.678   6.143   9.013 -0.1728  0.6042 -1.4030
   61SAPC  C312 4823   6.834   6.086   8.858  0.1466  0.1224 -0.2626
   61SAPC  H12X 4824   6.807   5.987   8.818 -0.1830  0.6836 -1.4689
   61SAPC  H12Y 4825   6.945   6.095   8.860  0.0719  1.2992 -0.4286
   61SAPC  C313 4826   6.802   6.181   8.737 -0.3922 -0.3041 -0.1610
   61SAPC  H13X 4827   6.821   6.282   8.778  2.3567 -1.7643  2.6031
   61SAPC  H13Y 4828   6.691   6.178   8.738 -0.4022 -0.2970 -0.9542
   61SAPC  C314 4829   6.863   6.134   8.605  0.0837  0.4623 -1.1132
   61SAPC  H14X 4830   6.861   6.023   8.600  0.4901  0.3112  1.0894
   61SAPC  H14Y 4831   6.970   6.163   8.613  0.0450  0.6696 -1.3301
   61SAPC  C315 4832   6.811   6.199   8.475 -0.3511 -0.8077 -0.1774
   61SAPC  H15X 4833   6.893   6.191   8.401  0.7006 -3.5467  1.1680
   61SAPC  H15Y 4834   6.797   6.307   8.500 -0.7852 -0.7108 -0.8297
   61SAPC  C316 4835   6.678   6.134   8.426 -0.3893  0.0387  0.1534
   61SAPC  H16X 4836   6.609   6.132   8.514  0.4201  0.1131  0.7994
   61SAPC  H16Y 4837   6.701   6.028   8.400 -1.5637  0.1084 -1.3358
   61SAPC  C317 4838   6.631   6.206   8.295 -0.3045 -0.2535  0.0793
   61SAPC  H17X 4839   6.596   6.307   8.327  0.3708  1.1942 -3.2998
   61SAPC  H17Y 4840   6.540   6.150   8.265  0.7325 -2.0602  0.1701
   61SAPC  C318 4841   6.730   6.231   8.183 -0.2425  0.6375 -0.0014
   61SAPC  H18X 4842   6.825   6.279   8.216  0.2488  0.9952 -1.8135
   61SAPC  H18Y 4843   6.682   6.287   8.100 -0.2873 -1.4969 -1.4922
   61SAPC  H18Z 4844   6.761   6.135   8.137  2.2052  0.3838  1.9166
   62SAPC     N 4845   1.992   5.613  11.579  0.5194  0.0392 -0.3753
   62SAPC   C12 4846   1.934   5.547  11.447  0.7232  0.0270 -0.1097
   62SAPC  H12A 4847   1.877   5.618  11.389 -0.5003 -1.5823 -0.9539
   62SAPC  H12B 4848   1.866   5.467  11.475 -1.2736  1.5247 -0.4890
   62SAPC   C13 4849   2.076   5.505  11.646 -0.1450  0.6695 -0.4862
   62SAPC  H13A 4850   2.012   5.434  11.695  0.4583  1.4997  1.5997
   62SAPC  H13B 4851   2.149   5.462  11.580  1.1159  0.8915  0.7251
   62SAPC  H13C 4852   2.120   5.550  11.734  0.2445 -0.1300 -0.2690
   62SAPC   C14 4853   2.079   5.725  11.540 -0.7579  0.1054  0.5556
   62SAPC  H14A 4854   2.144   5.681  11.465  0.3918 -0.1179  1.6423
   62SAPC  H14B 4855   2.026   5.798  11.481 -1.1431 -0.2982  0.4028
   62SAPC  H14C 4856   2.135   5.763  11.624 -0.5894  0.2605  0.3750
   62SAPC   C15 4857   1.888   5.661  11.677 -0.5579 -0.0157 -0.0263
   62SAPC  H15A 4858   1.937   5.721  11.753  0.9031 -1.3077  0.1080
   62SAPC  H15B 4859   1.819   5.733  11.635  0.1382  2.1106  2.1935
   62SAPC  H15C 4860   1.828   5.585  11.725 -0.3880  1.2793  2.4271
   62SAPC   C11 4861   2.041   5.494  11.345  0.0799  0.6242 -1.0037
   62SAPC  H11A 4862   2.089   5.403  11.387 -0.5105  1.3494  1.4414
   62SAPC  H11B 4863   2.127   5.563  11.333  0.6867 -0.1064 -0.9256
   62SAPC     P 4864   1.971   5.561  11.099  0.4692 -0.0695 -0.1256
   62SAPC   O13 4865   1.925   5.690  11.154  0.3089  0.2394 -0.2161
   62SAPC   O14 4866   2.098   5.559  11.021  0.4862 -0.2742  0.2521
   62SAPC   O12 4867   1.971   5.467  11.226 -0.4465  0.1210  0.1908
   62SAPC   O11 4868   1.848   5.498  11.024 -0.6093  0.2249 -0.7554
   62SAPC    C1 4869   1.834   5.355  11.008 -0.3923  0.0359 -0.6015
   62SAPC    HA 4870   1.927   5.304  11.042 -1.4725 -0.7358  1.3536
   62SAPC    HB 4871   1.741   5.317  11.055 -1.3265  0.7087 -1.8266
   62SAPC    C2 4872   1.837   5.313  10.860  0.1368  0.4883  0.4624
   62SAPC    HS 4873   1.859   5.204  10.861  0.5573  0.5668  0.2829
   62SAPC   O21 4874   1.935   5.391  10.785 -0.3117  0.2245  0.1627
   62SAPC   C21 4875   2.054   5.340  10.786  0.1581  0.0727  0.2310
   62SAPC   O22 4876   2.076   5.229  10.834  0.1003  0.5521  0.2008
   62SAPC   C22 4877   2.149   5.434  10.714 -0.1626  0.4874 -1.0474
   62SAPC   H2R 4878   2.105   5.535  10.696 -0.4299  0.4297 -0.7203
   62SAPC   H2S 4879   2.236   5.438  10.784  0.1988 -0.1238 -1.4523
   62SAPC    C3 4880   1.707   5.342  10.792 -0.4167  0.4727 -0.2865
   62SAPC    HX 4881   1.675   5.446  10.813 -1.3066  0.9099 -3.3134
   62SAPC    HY 4882   1.620   5.289  10.836 -3.1080  2.8822 -2.3729
   62SAPC   O31 4883   1.700   5.314  10.653 -0.2568  0.1602  0.0010
   62SAPC   C31 4884   1.723   5.198  10.614  0.0810 -0.4420 -0.2094
   62SAPC   O32 4885   1.746   5.099  10.684  0.8453 -0.3563  0.0400
   62SAPC   C32 4886   1.713   5.196  10.463  0.5169 -0.2220 -0.1406
   62SAPC   H2X 4887   1.756   5.288  10.417  0.5049 -0.4823 -0.6817
   62SAPC   H2Y 4888   1.606   5.199  10.434  0.7573  2.3629 -0.9994
   62SAPC   C23 4889   2.193   5.380  10.575 -1.7442 -0.4352 -0.3641
   62SAPC   H3R 4890   2.225   5.274  10.582  1.2903  0.4750  1.1533
   62SAPC   H3S 4891   2.275   5.451  10.550 -1.4248 -0.5691  0.2881
   62SAPC   C24 4892   2.071   5.388  10.475 -0.8607 -0.5579  0.5564
   62SAPC   H4R 4893   1.983   5.368  10.541 -0.4021  1.9074  2.0228
   62SAPC   H4S 4894   2.067   5.298  10.410  0.6470 -0.7872  0.7450
   62SAPC   C25 4895   2.060   5.522  10.407 -0.9008  0.1943 -0.3490
   62SAPC   H5R 4896   2.074   5.608  10.474 -0.6430 -1.3365  1.6430
   62SAPC   C26 4897   2.063   5.541  10.273  0.2909  0.2791 -0.3747
   62SAPC   H6R 4898   2.054   5.647  10.245 -0.9602  0.7495  1.5955
   62SAPC   C27 4899   2.062   5.439  10.164 -0.4010  0.3394 -0.8673
   62SAPC   H7R 4900   2.122   5.347  10.186 -3.2521 -1.7018 -1.0230
   62SAPC   H7S 4901   2.109   5.480  10.072 -0.0828  1.3210 -0.2758
   62SAPC   C28 4902   1.917   5.410  10.151  0.1296  0.4041  0.8777
   62SAPC   H8R 4903   1.858   5.432  10.241 -1.1627 -1.1464  0.4504
   62SAPC   C29 4904   1.852   5.378  10.037  0.1559  0.4359  0.2334
   62SAPC   H9R 4905   1.744   5.357  10.040  0.0936  0.6841 -0.2059
   62SAPC  C210 4906   1.913   5.338   9.906  0.2513 -0.7345  0.0679
   62SAPC  H10R 4907   1.865   5.247   9.864  1.3491 -0.3614 -2.1382
   62SAPC  H10S 4908   2.021   5.316   9.919  0.2698 -1.2698 -0.8550
   62SAPC  C211 4909   1.890   5.452   9.809 -0.0076  0.5943  0.8002
   62SAPC  H11R 4910   1.938   5.547   9.838 -0.4123 -0.0086  3.7104
   62SAPC  C212 4911   1.820   5.441   9.692  0.1000 -0.2026 -0.5953
   62SAPC  H12R 4912   1.812   5.520   9.616 -0.5906 -0.8180 -1.1798
   62SAPC  C213 4913   1.752   5.323   9.636 -0.5487  0.3038 -0.0809
   62SAPC  H13R 4914   1.670   5.346   9.564 -2.2885  2.9411  2.5363
   62SAPC  H13S 4915   1.714   5.258   9.718  1.1877 -0.3651  0.2333
   62SAPC  C214 4916   1.853   5.239   9.563 -0.1189 -0.8011 -0.8586
   62SAPC  H14R 4917   1.954   5.245   9.604 -0.3724  2.6783 -0.4958
   62SAPC  C215 4918   1.833   5.148   9.462  0.3581  0.2754  0.4692
   62SAPC  H15R 4919   1.914   5.098   9.406 -0.8732 -0.5670 -0.6215
   62SAPC  C216 4920   1.698   5.123   9.413  0.4534  0.6383 -0.0293
   62SAPC  H16R 4921   1.628   5.127   9.499 -0.9056  0.9603 -1.1058
   62SAPC  H16S 4922   1.690   5.015   9.386  0.7192 -0.1211  2.6959
   62SAPC  C217 4923   1.659   5.215   9.290 -0.1300  0.3601 -0.1884
   62SAPC  H17R 4924   1.720   5.309   9.285 -1.4098  1.2181 -0.1039
   62SAPC  H17S 4925   1.558   5.260   9.299  0.5939  2.7522 -2.5247
   62SAPC  C218 4926   1.676   5.151   9.153 -0.2659 -0.0158 -0.3222
   62SAPC  H18R 4927   1.785   5.129   9.143 -0.1328 -0.6686  2.0648
   62SAPC  H18S 4928   1.658   5.228   9.075 -0.0667  1.1582  0.7559
   62SAPC  C219 4929   1.586   5.031   9.128  0.3050  0.0805 -0.2096
   62SAPC  H19R 4930   1.488   5.066   9.166  1.0746 -1.2734  3.3858
   62SAPC  H19S 4931   1.610   4.939   9.185 -0.2675  0.4167  0.5802
   62SAPC  C220 4932   1.587   4.987   8.984  0.1144  0.3722  0.2722
   62SAPC  H20R 4933   1.590   5.076   8.917 -2.4193  0.0212 -0.3889
   62SAPC  H20S 4934   1.489   4.941   8.959 -0.0039  1.4700 -1.4739
   62SAPC  H20T 4935   1.678   4.928   8.963 -0.3088 -0.4144  0.6117
   62SAPC   C33 4936   1.774   5.081  10.389 -0.0007 -0.1245  0.3486
   62SAPC   H3X 4937   1.747   4.985  10.438  1.2240  0.9502  3.3407
   62SAPC   H3Y 4938   1.883   5.088  10.412  0.4144  2.1111 -1.9231
   62SAPC   C34 4939   1.740   5.082  10.237  0.3101  0.4849 -0.3347
   62SAPC   H4X 4940   1.789   5.175  10.202  1.4160  1.2369  2.9344
   62SAPC   H4Y 4941   1.630   5.093  10.222 -0.0364 -2.6102 -0.6336
   62SAPC   C35 4942   1.793   4.957  10.169  0.4266 -0.5720 -0.6241
   62SAPC   H5X 4943   1.742   4.866  10.206 -0.2520  0.1013  0.1121
   62SAPC   H5Y 4944   1.899   4.947  10.202  0.1457  2.0741  1.3374
   62SAPC   C36 4945   1.802   4.963  10.017  1.0326  0.1364 -0.1125
   62SAPC   H6X 4946   1.827   4.867   9.966 -0.8876  1.1987 -3.3626
   62SAPC   H6Y 4947   1.881   5.033   9.982 -1.3815  2.1191 -1.9714
   62SAPC   C37 4948   1.663   5.006   9.961  0.4337 -0.1782 -0.5748
   62SAPC   H7X 4949   1.659   5.115   9.981  2.5368 -0.0572 -0.6277
   62SAPC   H7Y 4950   1.587   4.948  10.018  0.4025  1.1662  0.8043
   62SAPC   C38 4951   1.635   4.981   9.819  0.7039  0.7598 -0.0194
   62SAPC   H8X 4952   1.719   5.015   9.755  0.4463 -1.9669 -1.9745
   62SAPC   H8Y 4953   1.548   5.038   9.777 -1.6009 -2.7164 -0.3481
   62SAPC   C39 4954   1.608   4.833   9.787  0.0007  0.7994  0.4590
   62SAPC   H9X 4955   1.539   4.795   9.866 -0.7641  1.9525  0.3624
   62SAPC   H9Y 4956   1.705   4.781   9.801  0.7179  2.5162  2.1789
   62SAPC  C310 4957   1.552   4.821   9.650  0.6758  0.5472  0.4933
   62SAPC  H10X 4958   1.625   4.877   9.588  1.9794  0.2851  1.7501
   62SAPC  H10Y 4959   1.461   4.883   9.661 -0.1489 -0.6271  0.4868
   62SAPC  C311 4960   1.531   4.683   9.596 -0.0900 -0.5115  1.0507
   62SAPC  H11X 4961   1.477   4.612   9.663 -1.2320 -0.5669  0.1121
   62SAPC  H11Y 4962   1.630   4.641   9.570  0.3129 -0.3486  2.2663
   62SAPC  C312 4963   1.442   4.669   9.466  0.2657 -0.2793 -0.2692
   62SAPC  H12X 4964   1.339   4.690   9.500 -0.3957 -1.5376 -1.3767
   62SAPC  H12Y 4965   1.452   4.560   9.445 -2.7989 -1.0644  1.7412
   62SAPC  C313 4966   1.493   4.736   9.340 -0.5545  0.0622 -0.3333
   62SAPC  H13X 4967   1.597   4.698   9.337 -0.7867 -0.7372  1.0732
   62SAPC  H13Y 4968   1.491   4.847   9.349 -1.2607  0.0090  0.2740
   62SAPC  C314 4969   1.427   4.690   9.207  0.0661  0.2669 -0.3416
   62SAPC  H14X 4970   1.465   4.588   9.185  2.1494  0.5106  1.7141
   62SAPC  H14Y 4971   1.463   4.767   9.135  0.3590  0.3512 -0.1074
   62SAPC  C315 4972   1.277   4.681   9.204  0.4062 -0.1160 -0.4032
   62SAPC  H15X 4973   1.236   4.761   9.268  0.4643  0.9530 -1.6624
   62SAPC  H15Y 4974   1.245   4.583   9.246  2.1567 -1.3126 -1.7099
   62SAPC  C316 4975   1.217   4.706   9.061 -0.0751  0.4078 -0.1862
   62SAPC  H16X 4976   1.273   4.642   8.990  1.2218  0.2640  0.9138
   62SAPC  H16Y 4977   1.224   4.813   9.033 -0.9062  0.2741 -0.9256
   62SAPC  C317 4978   1.063   4.675   9.067  0.1826  0.2917  0.0921
   62SAPC  H17X 4979   1.019   4.730   9.152 -0.8952 -2.0006  1.1117
   62SAPC  H17Y 4980   1.050   4.570   9.102 -0.5172 -0.1040 -1.2821
   62SAPC  C318 4981   0.988   4.704   8.937  1.3766 -0.5013 -0.0110
   62SAPC  H18X 4982   0.880   4.721   8.957  1.8830 -0.0228  2.6582
   62SAPC  H18Y 4983   1.001   4.621   8.864 -0.0936 -0.3246 -0.5212
   62SAPC  H18Z 4984   1.031   4.797   8.893  0.8498  0.1136  0.7483
   63SAPC     N 4985   3.616   3.437   5.966 -0.3225  0.1018 -0.0632
   63SAPC   C12 4986   3.702   3.460   6.089 -0.4047  0.9728  0.3075
   63SAPC  H12A 4987   3.645   3.519   6.159 -0.6415  2.6388 -1.2258
   63SAPC  H12B 4988   3.783   3.523   6.056  0.1171  0.1983  0.0931
   63SAPC   C13 4989   3.553   3.566   5.929  0.2926 -0.4591 -0.0795
   63SAPC  H13A 4990   3.625   3.647   5.927  1.1931 -0.9822  3.2721
   63SAPC  H13B 4991   3.494   3.554   5.840  0.0719  0.0103 -0.0003
   63SAPC  H13C 4992   3.484   3.599   6.005  0.5925  1.7622 -0.6981
   63SAPC   C14 4993   3.702   3.394   5.852 -0.2123 -0.1525 -0.6477
   63SAPC  H14A 4994   3.754   3.302   5.876  1.0325  0.7008  0.0475
   63SAPC  H14B 4995   3.642   3.386   5.763 -1.6407 -0.6446  0.3135
   63SAPC  H14C 4996   3.780   3.467   5.838 -0.3183  0.1318  0.1704
   63SAPC   C15 4997   3.508   3.341   6.001  1.1326  0.2966 -0.4096
   63SAPC  H15A 4998   3.552   3.249   6.037 -0.7135 -0.2768  0.5419
   63SAPC  H15B 4999   3.450   3.384   6.082 -0.2087 -0.5983 -0.8432
   63SAPC  H15C 5000   3.439   3.315   5.922  0.0529 -0.3222  0.7041
   63SAPC   C11 5001   3.773   3.344   6.174  0.3450 -0.4644 -0.2889
   63SAPC  H11A 5002   3.689   3.295   6.228 -0.0777 -0.3831 -0.8661
   63SAPC  H11B 5003   3.833   3.394   6.253 -1.1723  0.0120  0.5838
   63SAPC     P 5004   3.994   3.220   6.088  0.0041 -0.2560 -0.1597
   63SAPC   O13 5005   4.002   3.081   6.030 -0.4714 -0.0909  0.0201
   63SAPC   O14 5006   4.078   3.329   6.031  0.0967 -0.5375  0.0108
   63SAPC   O12 5007   3.839   3.259   6.083  0.0547  0.5041  0.4893
   63SAPC   O11 5008   4.024   3.202   6.248  0.2451 -0.0007 -0.3319
   63SAPC    C1 5009   4.114   3.102   6.288  0.2255  0.4364 -0.3282
   63SAPC    HA 5010   4.191   3.083   6.210  0.0962 -0.9982 -0.1342
   63SAPC    HB 5011   4.181   3.134   6.370 -0.0623  3.1589 -1.0644
   63SAPC    C2 5012   4.040   2.970   6.316  0.0954  0.4875  0.1569
   63SAPC    HS 5013   3.957   2.962   6.243  0.4544  1.6502 -0.4050
   63SAPC   O21 5014   3.984   2.985   6.451 -0.4450 -0.3383 -0.4521
   63SAPC   C21 5015   3.901   2.896   6.488 -0.0839 -1.0393  0.1931
   63SAPC   O22 5016   3.857   2.812   6.410  0.1644  0.0149  0.1881
   63SAPC   C22 5017   3.879   2.904   6.637  0.2872  0.7448 -0.3729
   63SAPC   H2R 5018   3.933   2.819   6.685  0.6053  1.8012  1.1891
   63SAPC   H2S 5019   3.921   2.998   6.678 -2.3675  1.4030  1.0267
   63SAPC    C3 5020   4.135   2.857   6.309 -0.2454 -0.1797  0.2631
   63SAPC    HX 5021   4.172   2.848   6.204  1.1322 -2.6146  0.8894
   63SAPC    HY 5022   4.071   2.766   6.315 -0.1735 -0.4609 -2.0911
   63SAPC   O31 5023   4.247   2.871   6.401  0.4949 -0.0220  0.1250
   63SAPC   C31 5024   4.241   2.808   6.511 -0.2751 -0.0013 -0.2332
   63SAPC   O32 5025   4.143   2.753   6.552  0.4765  0.0443 -0.4878
   63SAPC   C32 5026   4.378   2.807   6.582  0.0228  0.5115 -0.3605
   63SAPC   H2X 5027   4.447   2.748   6.516 -1.2243 -1.9304  0.4102
   63SAPC   H2Y 5028   4.354   2.755   6.676 -1.4304  0.6270 -0.6523
   63SAPC   C23 5029   3.730   2.893   6.668 -1.1142 -0.2036 -0.0610
   63SAPC   H3R 5030   3.729   2.885   6.779 -0.9562  1.3853  0.0744
   63SAPC   H3S 5031   3.681   2.800   6.632 -2.1372  0.4213 -0.3231
   63SAPC   C24 5032   3.631   3.009   6.639  0.2248  1.0422 -0.1108
   63SAPC   H4R 5033   3.547   2.984   6.708 -0.7618 -0.2318 -1.6939
   63SAPC   H4S 5034   3.595   2.998   6.534  0.8742 -2.4304 -0.0903
   63SAPC   C25 5035   3.685   3.149   6.636 -0.3277 -0.0007 -0.4374
   63SAPC   H5R 5036   3.755   3.172   6.554 -0.2166  2.7106  0.3275
   63SAPC   C26 5037   3.661   3.260   6.716 -0.2099  0.3796 -0.0903
   63SAPC   H6R 5038   3.723   3.350   6.705 -0.8259  0.6585 -1.4246
   63SAPC   C27 5039   3.572   3.262   6.826 -0.4643  0.3939  0.1638
   63SAPC   H7R 5040   3.487   3.191   6.816 -0.1863  0.2926 -1.8393
   63SAPC   H7S 5041   3.529   3.364   6.823 -1.2933  0.0170 -1.5786
   63SAPC   C28 5042   3.643   3.242   6.958 -0.0592 -0.0135 -0.2282
   63SAPC   H8R 5043   3.724   3.315   6.974 -0.2341  0.0380  0.4705
   63SAPC   C29 5044   3.612   3.152   7.059 -0.3985 -0.8396 -0.1857
   63SAPC   H9R 5045   3.680   3.160   7.145 -1.3685  0.0028  0.5130
   63SAPC  C210 5046   3.507   3.053   7.045 -0.2507 -0.4893  0.6195
   63SAPC  H10R 5047   3.543   2.976   6.974 -0.2445 -1.1674  1.3389
   63SAPC  H10S 5048   3.410   3.093   7.008 -0.9809 -0.7514  2.1661
   63SAPC  C211 5049   3.482   2.982   7.174 -0.8063 -0.7731 -0.4624
   63SAPC  H11R 5050   3.567   2.926   7.215 -0.6777 -1.0342 -1.0736
   63SAPC  C212 5051   3.377   2.994   7.247  0.2449  0.0913  1.0069
   63SAPC  H12R 5052   3.380   2.935   7.339  0.2414 -1.5498 -0.0052
   63SAPC  C213 5053   3.254   3.068   7.214  0.1254  0.2928 -0.0859
   63SAPC  H13R 5054   3.257   3.116   7.114  1.0315  2.6960  1.0057
   63SAPC  H13S 5055   3.249   3.159   7.278  0.4890  1.2703 -1.4121
   63SAPC  C214 5056   3.131   2.978   7.245 -0.3290  0.0103  0.7919
   63SAPC  H14R 5057   3.086   2.941   7.151  1.0007  0.6303 -0.1264
   63SAPC  C215 5058   3.079   2.942   7.369 -0.8195 -0.0281  0.3949
   63SAPC  H15R 5059   2.980   2.894   7.378 -0.9092  0.2363  0.8757
   63SAPC  C216 5060   3.144   2.965   7.501  0.1833  0.0544 -0.0183
   63SAPC  H16R 5061   3.223   3.042   7.488  0.3128 -0.1891 -0.7235
   63SAPC  H16S 5062   3.208   2.880   7.532  1.7148 -0.0868 -3.2288
   63SAPC  C217 5063   3.039   3.003   7.607  0.3762  0.2017  0.1502
   63SAPC  H17R 5064   3.076   3.008   7.712 -0.5882  1.2524  0.4579
   63SAPC  H17S 5065   2.966   2.920   7.614  0.0827  0.1784 -2.3165
   63SAPC  C218 5066   2.955   3.123   7.575 -0.1584 -0.7421 -0.2043
   63SAPC  H18R 5067   2.947   3.129   7.464  1.7833 -1.9596 -0.4553
   63SAPC  H18S 5068   3.011   3.214   7.605  0.8559 -1.1428 -0.8326
   63SAPC  C219 5069   2.815   3.123   7.633 -0.1145 -0.0041 -0.0845
   63SAPC  H19R 5070   2.823   3.092   7.740  2.5107  2.0680  0.4211
   63SAPC  H19S 5071   2.758   3.045   7.577 -2.1242 -0.5986  2.5475
   63SAPC  C220 5072   2.744   3.256   7.623 -0.0203 -0.5357  0.2268
   63SAPC  H20R 5073   2.641   3.252   7.665 -0.3214 -1.0717 -0.5461
   63SAPC  H20S 5074   2.739   3.287   7.516 -0.7562 -1.0077  0.1170
   63SAPC  H20T 5075   2.795   3.334   7.684 -0.7222  2.3579 -2.5865
   63SAPC   C33 5076   4.420   2.955   6.626  0.9255 -0.0866  0.1835
   63SAPC   H3X 5077   4.408   3.017   6.536 -1.8609 -1.2427 -0.3550
   63SAPC   H3Y 5078   4.522   2.962   6.668  1.4525  1.8932 -1.2970
   63SAPC   C34 5079   4.324   3.020   6.726  0.2102  0.3982  0.2529
   63SAPC   H4X 5080   4.221   2.982   6.712  0.2211 -1.6609  4.3130
   63SAPC   H4Y 5081   4.314   3.129   6.710 -0.6116  0.3405  0.3449
   63SAPC   C35 5082   4.359   2.976   6.872 -1.0767  0.6861  0.5693
   63SAPC   H5X 5083   4.469   2.992   6.882 -1.0616  0.9056  0.0478
   63SAPC   H5Y 5084   4.339   2.867   6.873 -0.6976  0.6046 -0.1442
   63SAPC   C36 5085   4.275   3.049   6.974 -0.3159  0.0671 -0.0565
   63SAPC   H6X 5086   4.268   3.158   6.953 -4.4299  0.9320  4.1943
   63SAPC   H6Y 5087   4.331   3.029   7.068 -0.0707 -0.5911 -0.3318
   63SAPC   C37 5088   4.135   2.982   6.976  0.2108  0.0744 -0.4319
   63SAPC   H7X 5089   4.142   2.871   6.973 -2.5328 -0.1755 -0.2156
   63SAPC   H7Y 5090   4.067   3.013   6.894 -0.1747  0.7021  0.1105
   63SAPC   C38 5091   4.065   3.019   7.105 -0.9088 -0.2916 -0.2275
   63SAPC   H8X 5092   4.064   3.130   7.112  0.8157 -0.1689 -1.5647
   63SAPC   H8Y 5093   4.130   2.981   7.187 -2.0632 -0.0741  0.8236
   63SAPC   C39 5094   3.923   2.958   7.128 -0.7094  0.1100  1.0601
   63SAPC   H9X 5095   3.923   2.854   7.091  0.8032 -0.3459  2.2430
   63SAPC   H9Y 5096   3.851   3.023   7.073  0.8046  1.6025  0.7571
   63SAPC  C310 5097   3.887   2.954   7.270 -0.5060  0.8411 -0.1277
   63SAPC  H10X 5098   3.958   2.889   7.324  0.6957 -1.2976 -3.9261
   63SAPC  H10Y 5099   3.782   2.916   7.273 -0.0830 -0.6789 -2.2986
   63SAPC  C311 5100   3.896   3.092   7.343 -0.0779  0.3283  0.0175
   63SAPC  H11X 5101   3.831   3.159   7.283 -0.8865 -3.2709 -3.5617
   63SAPC  H11Y 5102   3.996   3.140   7.342 -0.9632  2.2630 -1.9659
   63SAPC  C312 5103   3.841   3.090   7.485 -0.2648 -0.5686 -0.2420
   63SAPC  H12X 5104   3.732   3.068   7.488 -1.1022  2.8274 -1.3195
   63SAPC  H12Y 5105   3.853   3.194   7.522  0.3267 -0.9047  0.5558
   63SAPC  C313 5106   3.918   3.002   7.591  0.1991  0.8695 -0.6639
   63SAPC  H13X 5107   4.026   3.018   7.573  0.4814 -0.1716  0.0150
   63SAPC  H13Y 5108   3.887   2.897   7.572 -0.4598  0.3495  2.6991
   63SAPC  C314 5109   3.880   3.027   7.738  0.4228 -0.3642  0.2937
   63SAPC  H14X 5110   3.776   2.989   7.743  0.6084 -0.6573  3.0347
   63SAPC  H14Y 5111   3.876   3.136   7.763  1.1578  0.5013 -2.8210
   63SAPC  C315 5112   3.968   2.944   7.823  1.0753 -0.7364 -0.0416
   63SAPC  H15X 5113   4.063   2.994   7.854  0.6817 -1.0633  1.7969
   63SAPC  H15Y 5114   3.998   2.851   7.771  1.4391 -1.1926  0.9411
   63SAPC  C316 5115   3.900   2.905   7.954 -0.0655 -0.5616  0.1577
   63SAPC  H16X 5116   3.961   2.837   8.017 -1.0757 -0.8522  0.8403
   63SAPC  H16Y 5117   3.811   2.844   7.926 -0.2463 -0.4518  0.4833
   63SAPC  C317 5118   3.861   3.027   8.038 -0.1287  0.0498  0.1069
   63SAPC  H17X 5119   3.794   3.094   7.981 -2.1055 -0.2539  1.9501
   63SAPC  H17Y 5120   3.954   3.082   8.063  0.3604  0.4674 -2.4052
   63SAPC  C318 5121   3.785   2.984   8.162 -0.2115 -0.2652 -0.4299
   63SAPC  H18X 5122   3.845   2.911   8.220 -0.7423  0.5417  1.1690
   63SAPC  H18Y 5123   3.693   2.929   8.134  1.2733 -2.3673 -1.5076
   63SAPC  H18Z 5124   3.780   3.077   8.222  0.7980 -0.3210 -0.2355
   64SAPC     N 5125   6.444   2.948   6.333  0.3714  0.6464 -0.3740
   64SAPC   C12 5126   6.429   2.804   6.291  0.2089 -0.0249 -0.5671
   64SAPC  H12A 5127   6.367   2.793   6.203  0.3917 -1.4407 -0.5460
   64SAPC  H12B 5128   6.373   2.756   6.369  0.7587  0.4766  0.1532
   64SAPC   C13 5129   6.539   3.018   6.248  0.1643 -0.4317 -0.5492
   64SAPC  H13A 5130   6.542   3.125   6.257 -3.7047 -0.0123 -2.4190
   64SAPC  H13B 5131   6.637   2.975   6.261  0.9299  1.3056 -0.3815
   64SAPC  H13C 5132   6.522   3.001   6.143  3.9977  0.7546 -1.5117
   64SAPC   C14 5133   6.310   3.003   6.321  0.0956 -0.0754 -0.4302
   64SAPC  H14A 5134   6.285   2.984   6.218 -0.4496  0.2868 -0.3690
   64SAPC  H14B 5135   6.235   2.950   6.379  1.7917 -2.6895 -0.4479
   64SAPC  H14C 5136   6.308   3.109   6.337 -0.2947 -0.3287  1.4268
   64SAPC   C15 5137   6.498   2.955   6.468  0.5130  0.4388  0.0176
   64SAPC  H15A 5138   6.605   2.937   6.474  0.4715  0.1861  0.0032
   64SAPC  H15B 5139   6.470   3.052   6.505 -0.1666 -0.2273  1.3164
   64SAPC  H15C 5140   6.451   2.879   6.528  0.9492 -0.2057 -0.4416
   64SAPC   C11 5141   6.555   2.716   6.271  0.9616  0.1648 -0.2391
   64SAPC  H11A 5142   6.543   2.616   6.316 -2.4056  0.0174 -1.1511
   64SAPC  H11B 5143   6.648   2.755   6.318  0.2640  0.7287  0.6968
   64SAPC     P 5144   6.483   2.613   6.039  0.2364  0.5461 -0.0458
   64SAPC   O13 5145   6.434   2.678   5.913 -0.5582  0.0975  0.1303
   64SAPC   O14 5146   6.563   2.493   6.022 -0.0861  0.2728 -0.1961
   64SAPC   O12 5147   6.574   2.710   6.128  0.1824  0.4253  0.7700
   64SAPC   O11 5148   6.355   2.588   6.127  0.3236  0.2892  1.0314
   64SAPC    C1 5149   6.319   2.453   6.159  0.2805  0.2426  0.2344
   64SAPC    HA 5150   6.288   2.394   6.070 -0.6100 -0.1007  0.7548
   64SAPC    HB 5151   6.390   2.396   6.222  0.2604 -0.8312 -0.6904
   64SAPC    C2 5152   6.194   2.447   6.253  1.1836 -0.3153  0.8970
   64SAPC    HS 5153   6.114   2.476   6.183  1.9119 -2.3078 -0.8781
   64SAPC   O21 5154   6.213   2.548   6.348  0.5495  0.4912 -0.5667
   64SAPC   C21 5155   6.106   2.559   6.426  0.6885  0.0096  0.0482
   64SAPC   O22 5156   5.996   2.509   6.407  0.1292  0.0014  0.3289
   64SAPC   C22 5157   6.138   2.639   6.549 -0.0952  0.7760 -0.5024
   64SAPC   H2R 5158   6.242   2.612   6.573 -0.6886 -1.5266 -0.3016
   64SAPC   H2S 5159   6.140   2.746   6.518 -3.0755  1.2907  0.7020
   64SAPC    C3 5160   6.167   2.297   6.295 -0.0717  1.0115  0.5165
   64SAPC    HX 5161   6.135   2.245   6.203  2.7876  1.5571 -0.8908
   64SAPC    HY 5162   6.081   2.285   6.365 -0.6409 -1.0549 -0.4597
   64SAPC   O31 5163   6.279   2.221   6.338 -0.5625 -0.1106 -0.1203
   64SAPC   C31 5164   6.333   2.252   6.459 -0.2063  0.1732  0.1531
   64SAPC   O32 5165   6.277   2.322   6.540  0.0155  0.2856  0.0573
   64SAPC   C32 5166   6.456   2.166   6.489 -0.8055 -0.3273  0.6185
   64SAPC   H2X 5167   6.541   2.237   6.495 -0.4006 -0.6959 -0.5225
   64SAPC   H2Y 5168   6.478   2.095   6.406 -0.4605 -0.7413  1.0558
   64SAPC   C23 5169   6.034   2.623   6.670 -0.4953 -0.0791 -0.0834
   64SAPC   H3R 5170   6.017   2.515   6.687  1.4000 -0.5559 -1.0089
   64SAPC   H3S 5171   5.938   2.674   6.646  0.6433  3.0934  1.5156
   64SAPC   C24 5172   6.072   2.695   6.801  0.5573  0.9106 -0.1945
   64SAPC   H4R 5173   6.169   2.650   6.830  0.3234  0.6530  0.1980
   64SAPC   H4S 5174   6.012   2.669   6.891 -0.5300 -0.2417 -1.2199
   64SAPC   C25 5175   6.098   2.841   6.783 -0.1186 -0.0539 -0.5757
   64SAPC   H5R 5176   6.102   2.876   6.678 -0.9183 -0.8821 -0.9014
   64SAPC   C26 5177   6.127   2.925   6.879  0.0277 -0.3509 -0.1810
   64SAPC   H6R 5178   6.153   3.032   6.867 -0.0682  0.0053  2.2404
   64SAPC   C27 5179   6.137   2.883   7.023  0.1678 -0.5766  0.2978
   64SAPC   H7R 5180   6.203   2.967   7.055 -0.6887  0.7664 -1.2651
   64SAPC   H7S 5181   6.197   2.791   7.037  0.0721 -0.6823  0.0159
   64SAPC   C28 5182   6.009   2.886   7.107 -0.0352 -0.2822 -0.0944
   64SAPC   H8R 5183   5.923   2.940   7.065  0.7886  3.0522  2.1035
   64SAPC   C29 5184   5.979   2.829   7.229 -0.0773  0.5450 -0.2973
   64SAPC   H9R 5185   5.876   2.844   7.263 -1.0091 -4.1387 -0.3643
   64SAPC  C210 5186   6.077   2.745   7.313  0.4693 -0.1531 -0.3931
   64SAPC  H10R 5187   6.099   2.784   7.415  1.3742 -1.1957 -0.1631
   64SAPC  H10S 5188   6.178   2.749   7.267  0.3797  1.3399 -0.4879
   64SAPC  C211 5189   6.028   2.605   7.331 -0.3581 -0.4936  0.7378
   64SAPC  H11R 5190   6.002   2.568   7.231  1.5308 -0.8630  0.3455
   64SAPC  C212 5191   6.007   2.532   7.440  0.0062  0.3454  0.2392
   64SAPC  H12R 5192   5.985   2.425   7.429 -0.7462  0.5262 -0.0910
   64SAPC  C213 5193   6.039   2.566   7.580 -0.0952  0.3389  0.0923
   64SAPC  H13R 5194   6.129   2.630   7.591  0.3325 -0.5683  2.5929
   64SAPC  H13S 5195   6.071   2.472   7.630  0.0929  0.0553 -0.5621
   64SAPC  C214 5196   5.918   2.632   7.638  0.7776 -0.4112  0.8035
   64SAPC  H14R 5197   5.843   2.668   7.566  2.4831  0.3495 -0.6608
   64SAPC  C215 5198   5.904   2.664   7.766 -0.2279  0.0924  0.0786
   64SAPC  H15R 5199   5.811   2.718   7.789 -0.1966  0.9734 -1.6894
   64SAPC  C216 5200   6.002   2.628   7.885  0.5863 -0.7995  0.5864
   64SAPC  H16R 5201   6.085   2.562   7.852  1.5460  1.1223 -1.0565
   64SAPC  H16S 5202   5.950   2.561   7.957 -1.0440 -0.8948 -0.6290
   64SAPC  C217 5203   6.068   2.752   7.969 -0.5051 -0.3783  0.2700
   64SAPC  H17R 5204   5.988   2.828   7.962  0.0660  0.2552  0.5052
   64SAPC  H17S 5205   6.142   2.791   7.896 -0.4553 -1.4736 -0.2875
   64SAPC  C218 5206   6.118   2.711   8.109  0.3413 -0.9307  0.1050
   64SAPC  H18R 5207   6.176   2.616   8.101  1.2381 -0.4653  0.9204
   64SAPC  H18S 5208   6.034   2.701   8.180 -2.0275  3.3420 -1.7026
   64SAPC  C219 5209   6.216   2.818   8.178 -0.2308  0.1140 -1.0913
   64SAPC  H19R 5210   6.239   2.785   8.281  0.8367 -1.1035 -1.6925
   64SAPC  H19S 5211   6.158   2.911   8.196  0.8573  0.4905  0.6243
   64SAPC  C220 5212   6.347   2.832   8.102 -0.2321  0.1848  0.0187
   64SAPC  H20R 5213   6.331   2.849   7.994  0.4630 -1.2774 -0.3473
   64SAPC  H20S 5214   6.411   2.741   8.113 -0.4853  0.0872  0.7451
   64SAPC  H20T 5215   6.400   2.919   8.145  0.3797 -0.3653  0.4018
   64SAPC   C33 5216   6.426   2.070   6.610 -0.2300 -1.0981  0.0329
   64SAPC   H3X 5217   6.518   2.008   6.608 -0.2698 -1.1419 -0.3764
   64SAPC   H3Y 5218   6.342   2.002   6.586  0.1145 -1.0391 -1.4085
   64SAPC   C34 5219   6.419   2.133   6.749  0.0646  0.2046  1.3077
   64SAPC   H4X 5220   6.331   2.201   6.756 -0.0792 -0.0104  1.6176
   64SAPC   H4Y 5221   6.506   2.197   6.774 -0.7281  1.7161  0.3707
   64SAPC   C35 5222   6.394   2.035   6.859 -0.5647 -0.2291  0.3541
   64SAPC   H5X 5223   6.473   1.959   6.845  1.3714  1.8234 -0.4885
   64SAPC   H5Y 5224   6.301   1.976   6.847 -1.0668 -0.0156  2.7414
   64SAPC   C36 5225   6.406   2.094   7.002  0.2090  0.0226  0.0754
   64SAPC   H6X 5226   6.319   2.157   7.029  0.0944 -0.7199  1.5252
   64SAPC   H6Y 5227   6.505   2.144   7.006  0.2489 -0.0893  0.5864
   64SAPC   C37 5228   6.403   1.983   7.113  0.3581  0.5783  0.6042
   64SAPC   H7X 5229   6.452   1.895   7.065 -0.6209  0.9720 -1.2008
   64SAPC   H7Y 5230   6.297   1.952   7.123  0.3239  1.1997  2.5345
   64SAPC   C38 5231   6.468   2.017   7.239 -0.4804 -0.0177  0.1047
   64SAPC   H8X 5232   6.410   2.101   7.282 -2.1584 -0.8224 -0.4881
   64SAPC   H8Y 5233   6.571   2.052   7.218 -0.5304 -0.8835 -1.7494
   64SAPC   C39 5234   6.455   1.897   7.339 -0.2304  0.7270  0.2300
   64SAPC   H9X 5235   6.512   1.807   7.307 -2.3554 -0.6341  0.0407
   64SAPC   H9Y 5236   6.348   1.866   7.333  0.2564 -0.7249 -2.7334
   64SAPC  C310 5237   6.477   1.930   7.481 -0.8666  0.4069  0.0237
   64SAPC  H10X 5238   6.418   2.015   7.522 -0.8448  0.4381 -0.0095
   64SAPC  H10Y 5239   6.583   1.961   7.486 -0.2139 -1.2861 -1.8401
   64SAPC  C311 5240   6.450   1.805   7.571 -0.2741  0.2354  0.4817
   64SAPC  H11X 5241   6.512   1.718   7.541  2.6656  2.0055  1.0144
   64SAPC  H11Y 5242   6.340   1.792   7.563 -0.3752  0.1605  1.7873
   64SAPC  C312 5243   6.462   1.824   7.724  0.2474  0.1024 -0.2490
   64SAPC  H12X 5244   6.383   1.886   7.772  0.6195  0.5399 -0.1964
   64SAPC  H12Y 5245   6.556   1.883   7.736 -0.1961  0.8080 -0.2319
   64SAPC  C313 5246   6.472   1.685   7.795  0.3009 -0.3728 -0.2196
   64SAPC  H13X 5247   6.508   1.604   7.729 -2.3845 -3.5582  1.8883
   64SAPC  H13Y 5248   6.371   1.653   7.829  0.9694 -0.5877  1.7366
   64SAPC  C314 5249   6.568   1.693   7.917  0.9742  0.4978  0.3021
   64SAPC  H14X 5250   6.539   1.777   7.983 -0.0039  0.1124  0.3776
   64SAPC  H14Y 5251   6.670   1.710   7.877  0.4182 -0.5794 -1.7293
   64SAPC  C315 5252   6.559   1.567   7.995 -0.1865 -0.0138  0.2144
   64SAPC  H15X 5253   6.571   1.477   7.931 -1.8103 -0.0146 -0.1497
   64SAPC  H15Y 5254   6.451   1.559   8.022 -0.7702  1.7911 -1.3700
   64SAPC  C316 5255   6.663   1.552   8.105  0.0032  0.4490  0.0375
   64SAPC  H16X 5256   6.675   1.654   8.149 -1.5191  0.6373  0.0502
   64SAPC  H16Y 5257   6.754   1.505   8.061 -0.0081  1.3975 -1.0534
   64SAPC  C317 5258   6.626   1.465   8.226 -0.3317  1.0524 -0.2555
   64SAPC  H17X 5259   6.594   1.371   8.176 -0.5248  1.7652 -1.5171
   64SAPC  H17Y 5260   6.542   1.512   8.281 -0.8353 -0.7725  0.5913
   64SAPC  C318 5261   6.747   1.438   8.328  0.0003  0.6253 -0.2621
   64SAPC  H18X 5262   6.835   1.402   8.271 -1.0037  0.6717 -1.9046
   64SAPC  H18Y 5263   6.716   1.354   8.393  0.6623  0.8749  0.3939
   64SAPC  H18Z 5264   6.784   1.536   8.367  1.6272 -0.7742  1.9290
   65SAPC     N 5265   5.654   0.170   5.867  1.1074 -0.0196 -1.1653
   65SAPC   C12 5266   5.783   0.243   5.868 -0.1280 -0.0812  0.3677
   65SAPC  H12A 5267   5.804   0.281   5.967 -0.3546 -1.7332  1.0764
   65SAPC  H12B 5268   5.776   0.330   5.804  0.1793  0.6189  1.2601
   65SAPC   C13 5269   5.649   0.079   5.986  0.2325 -0.2242 -0.3343
   65SAPC  H13A 5270   5.654   0.127   6.082 -1.0908  0.7364 -0.7146
   65SAPC  H13B 5271   5.559   0.019   5.982  0.1223 -0.3346  2.3754
   65SAPC  H13C 5272   5.733   0.012   5.977  0.4930  0.1932 -1.1728
   65SAPC   C14 5273   5.540   0.269   5.875  0.0741 -0.1840  0.1821
   65SAPC  H14A 5274   5.444   0.221   5.885 -0.4151  1.0629  2.1621
   65SAPC  H14B 5275   5.532   0.325   5.967  1.7245  0.9821 -0.3434
   65SAPC  H14C 5276   5.525   0.333   5.790 -1.6901  1.8791  1.9252
   65SAPC   C15 5277   5.644   0.087   5.745 -0.1025 -0.3796  0.8489
   65SAPC  H15A 5278   5.557   0.024   5.751 -0.5390  0.1547  0.2781
   65SAPC  H15B 5279   5.645   0.160   5.666  2.4975  1.5740  2.5112
   65SAPC  H15C 5280   5.730   0.026   5.725  0.3562  0.6860 -0.6428
   65SAPC   C11 5281   5.910   0.163   5.819  0.5378 -0.0797 -0.1893
   65SAPC  H11A 5282   5.988   0.242   5.811  0.2360  0.5101  1.9438
   65SAPC  H11B 5283   5.914   0.121   5.717 -1.6465 -0.8291 -0.0083
   65SAPC     P 5284   6.083   0.060   5.979  0.5329  0.1042  0.1579
   65SAPC   O13 5285   6.141  -0.071   5.976  0.5529  0.6786 -0.5316
   65SAPC   O14 5286   6.175   0.177   5.951  0.9105  0.2163 -0.1949
   65SAPC   O12 5287   5.947   0.063   5.898 -0.3614  0.3333 -0.4717
   65SAPC   O11 5288   6.035   0.073   6.134  0.0701 -0.4839  0.4377
   65SAPC    C1 5289   5.921  -0.010   6.179  0.1485  0.0525  0.0964
   65SAPC    HA 5290   5.830   0.054   6.179  0.1992  0.1367 -0.7648
   65SAPC    HB 5291   5.889  -0.092   6.111 -0.2437  0.7998 -0.6407
   65SAPC    C2 5292   5.940  -0.067   6.322  0.1247  0.3138 -0.5837
   65SAPC    HS 5293   5.842  -0.094   6.366 -0.6460  2.5116 -0.8520
   65SAPC   O21 5294   6.014   0.018   6.410  0.2148 -0.5026  0.0222
   65SAPC   C21 5295   5.933   0.108   6.473  0.4987 -0.9230 -0.5471
   65SAPC   O22 5296   5.813   0.107   6.450 -0.1355 -0.5184  0.0700
   65SAPC   C22 5297   6.014   0.204   6.555  0.0092  0.3369 -0.2736
   65SAPC   H2R 5298   6.116   0.194   6.512 -0.3715 -0.1802 -1.1016
   65SAPC   H2S 5299   5.983   0.305   6.519  0.3042  0.5650  0.1073
   65SAPC    C3 5300   6.021  -0.203   6.316  0.4393  0.1213 -0.0623
   65SAPC    HX 5301   6.107  -0.187   6.246  2.3125 -1.8185  1.6543
   65SAPC    HY 5302   5.951  -0.272   6.264 -0.7524  2.1893 -1.3444
   65SAPC   O31 5303   6.070  -0.245   6.444 -0.0703 -0.2170 -0.2441
   65SAPC   C31 5304   5.976  -0.291   6.524  1.0132 -0.6063  0.0402
   65SAPC   O32 5305   5.859  -0.319   6.494 -0.3855  0.1408  0.3935
   65SAPC   C32 5306   6.042  -0.326   6.663  0.2838 -0.3301  0.1951
   65SAPC   H2X 5307   6.103  -0.233   6.665 -0.1591 -0.0261 -0.0814
   65SAPC   H2Y 5308   6.119  -0.405   6.649  0.0375 -0.9259  1.9859
   65SAPC   C23 5309   5.982   0.192   6.705 -0.2226  0.1775 -0.0188
   65SAPC   H3R 5310   5.873   0.192   6.725  0.2506 -1.2861  3.2839
   65SAPC   H3S 5311   6.033   0.281   6.747  3.0159 -1.1927 -0.7209
   65SAPC   C24 5312   6.034   0.059   6.779  0.4597  0.3543  0.4636
   65SAPC   H4R 5313   5.989  -0.029   6.729  0.4138  1.9386 -2.5401
   65SAPC   H4S 5314   5.998   0.061   6.883  2.1027 -2.0591  1.1696
   65SAPC   C25 5315   6.182   0.052   6.770 -0.1198 -0.1039 -0.1429
   65SAPC   H5R 5316   6.220   0.050   6.667 -0.2595  0.5523 -0.2170
   65SAPC   C26 5317   6.265   0.060   6.874 -0.2122  0.0997 -0.9762
   65SAPC   H6R 5318   6.372   0.068   6.853 -0.1478 -1.4500 -1.3856
   65SAPC   C27 5319   6.233   0.063   7.025 -0.2358  0.0611  0.3540
   65SAPC   H7R 5320   6.134   0.019   7.050  0.5611 -0.3689  3.1418
   65SAPC   H7S 5321   6.226   0.168   7.061 -0.6994  0.1495  0.0137
   65SAPC   C28 5322   6.345  -0.002   7.104 -0.1748 -0.8870  0.4066
   65SAPC   H8R 5323   6.438  -0.027   7.051 -0.9278  0.2794 -1.5745
   65SAPC   C29 5324   6.352  -0.016   7.236  0.1107  1.1161  0.0324
   65SAPC   H9R 5325   6.439  -0.061   7.286 -0.4740 -0.0717  0.0163
   65SAPC  C210 5326   6.261   0.028   7.338  0.1820 -0.1737 -0.1439
   65SAPC  H10R 5327   6.273  -0.050   7.417 -0.0980 -0.2006 -0.1238
   65SAPC  H10S 5328   6.154   0.017   7.309 -0.1832  1.7517  0.3206
   65SAPC  C211 5329   6.274   0.166   7.396 -0.4241 -0.2770  0.2088
   65SAPC  H11R 5330   6.252   0.239   7.316  1.5642 -0.7973 -0.8713
   65SAPC  C212 5331   6.315   0.200   7.521  0.0023  0.1819  0.3629
   65SAPC  H12R 5332   6.336   0.307   7.531 -0.4381  0.4951 -1.6111
   65SAPC  C213 5333   6.337   0.103   7.634 -0.1651 -0.2398  0.3317
   65SAPC  H13R 5334   6.271   0.017   7.611 -1.3412  1.5357 -3.9104
   65SAPC  H13S 5335   6.298   0.145   7.729  0.1439  1.8168 -0.4036
   65SAPC  C214 5336   6.479   0.050   7.629  0.8201  0.3671  0.3270
   65SAPC  H14R 5337   6.539   0.086   7.544 -0.2712 -0.2435 -0.7388
   65SAPC  C215 5338   6.537  -0.036   7.714  0.4288 -0.2485  0.1873
   65SAPC  H15R 5339   6.636  -0.065   7.678  0.3896  1.8570 -1.9605
   65SAPC  C216 5340   6.483  -0.107   7.837  0.3035 -0.4946  0.2010
   65SAPC  H16R 5341   6.378  -0.078   7.861  0.0218 -0.2946 -1.2286
   65SAPC  H16S 5342   6.544  -0.087   7.928  1.1104 -0.9601 -0.2331
   65SAPC  C217 5343   6.467  -0.257   7.805 -1.1817 -0.1059 -0.5411
   65SAPC  H17R 5344   6.437  -0.299   7.903 -1.2387  1.2377  0.0288
   65SAPC  H17S 5345   6.566  -0.302   7.777  0.6340  1.4279  2.8452
   65SAPC  C218 5346   6.374  -0.279   7.683  0.1841 -0.4179 -0.1916
   65SAPC  H18R 5347   6.437  -0.249   7.597  1.4979 -1.1034  0.4922
   65SAPC  H18S 5348   6.281  -0.220   7.698 -0.2097 -0.7462 -1.2713
   65SAPC  C219 5349   6.328  -0.424   7.662  0.5126 -0.4628 -0.3400
   65SAPC  H19R 5350   6.300  -0.417   7.555  1.6169  0.4378 -0.5841
   65SAPC  H19S 5351   6.238  -0.443   7.724  1.3060 -0.3667  0.8644
   65SAPC  C220 5352   6.430  -0.531   7.687 -0.0082  0.4327 -0.0357
   65SAPC  H20R 5353   6.389  -0.625   7.643 -1.5746  1.2247 -0.3395
   65SAPC  H20S 5354   6.453  -0.560   7.792 -0.2569  1.4953  0.3265
   65SAPC  H20T 5355   6.526  -0.505   7.638 -0.1114  1.3313  0.2194
   65SAPC   C33 5356   5.942  -0.329   6.781 -0.2712  0.0750  0.6719
   65SAPC   H3X 5357   5.887  -0.425   6.785  0.3136 -0.2989  0.0014
   65SAPC   H3Y 5358   5.875  -0.241   6.767 -1.0240 -0.5597  0.1984
   65SAPC   C34 5359   6.015  -0.328   6.913  0.4273 -0.2332  0.4711
   65SAPC   H4X 5360   6.073  -0.233   6.911 -2.2444  1.5053 -1.5013
   65SAPC   H4Y 5361   6.097  -0.403   6.914  2.2902  1.5867 -1.8737
   65SAPC   C35 5362   5.936  -0.336   7.041 -0.7582 -0.9470  0.3332
   65SAPC   H5X 5363   5.937  -0.440   7.079  0.5039 -0.4202  1.8280
   65SAPC   H5Y 5364   5.831  -0.319   7.009 -1.2978 -4.0141  0.1551
   65SAPC   C36 5365   5.993  -0.240   7.155 -0.7513  0.1996  0.0972
   65SAPC   H6X 5366   5.986  -0.130   7.139 -1.4188  0.2832  0.8580
   65SAPC   H6Y 5367   6.102  -0.261   7.156 -1.0096 -1.2091 -0.1446
   65SAPC   C37 5368   5.931  -0.270   7.292 -0.4319  0.3934 -0.3952
   65SAPC   H7X 5369   5.970  -0.360   7.343 -0.2344 -0.4749 -2.0461
   65SAPC   H7Y 5370   5.829  -0.315   7.287  0.7711 -2.3643 -1.7713
   65SAPC   C38 5371   5.951  -0.158   7.394 -0.4299 -0.5771  0.6197
   65SAPC   H8X 5372   5.903  -0.068   7.351 -1.5003 -0.9445  1.0102
   65SAPC   H8Y 5373   6.061  -0.143   7.406 -0.5080  0.0937  0.4926
   65SAPC   C39 5374   5.881  -0.190   7.524  0.0021  0.0324 -0.3997
   65SAPC   H9X 5375   5.896  -0.294   7.562 -0.5521  0.4223  0.9474
   65SAPC   H9Y 5376   5.772  -0.175   7.513  0.3967  2.5127 -1.3656
   65SAPC  C310 5377   5.928  -0.093   7.639  0.5051 -0.6317  0.6404
   65SAPC  H10X 5378   5.938   0.011   7.600 -0.3722 -0.4278  0.9426
   65SAPC  H10Y 5379   6.028  -0.134   7.664  1.7811  1.0919 -1.2992
   65SAPC  C311 5380   5.838  -0.089   7.761 -0.7687  0.2489 -0.4262
   65SAPC  H11X 5381   5.795  -0.184   7.799  2.6502 -0.7886  1.1392
   65SAPC  H11Y 5382   5.754  -0.017   7.746 -1.5356 -0.7223 -0.9309
   65SAPC  C312 5383   5.917  -0.023   7.877  0.5679  0.5144 -0.1073
   65SAPC  H12X 5384   5.954   0.077   7.846  0.2788  1.1818  1.6395
   65SAPC  H12Y 5385   6.003  -0.088   7.907  1.0212  0.6646 -1.0245
   65SAPC  C313 5386   5.835  -0.000   8.005 -0.4011 -0.3188  0.2304
   65SAPC  H13X 5387   5.826  -0.100   8.053  0.5595  0.0265  1.1662
   65SAPC  H13Y 5388   5.730   0.030   7.986 -0.4870  1.5631  3.0610
   65SAPC  C314 5389   5.884   0.104   8.103  0.6766 -0.7577  0.6807
   65SAPC  H14X 5390   5.872   0.203   8.054 -0.3024 -1.3284 -0.2734
   65SAPC  H14Y 5391   5.991   0.080   8.122  0.9927 -0.9971 -1.2217
   65SAPC  C315 5392   5.788   0.105   8.228 -0.0722 -0.3412  0.2262
   65SAPC  H15X 5393   5.778  -0.005   8.240  0.3150 -0.7164 -2.3859
   65SAPC  H15Y 5394   5.686   0.146   8.212  0.4265  0.7553 -0.2092
   65SAPC  C316 5395   5.845   0.175   8.355  0.3013  0.1489 -0.2473
   65SAPC  H16X 5396   5.763   0.174   8.431  0.6657  0.5631  0.1573
   65SAPC  H16Y 5397   5.854   0.283   8.330 -1.0563  0.1541 -0.8299
   65SAPC  C317 5398   5.976   0.110   8.409 -0.3590 -0.2191 -0.0980
   65SAPC  H17X 5399   6.042   0.118   8.320  0.0794  0.2752  0.2670
   65SAPC  H17Y 5400   5.957   0.005   8.439 -1.5423 -0.3480 -1.1843
   65SAPC  C318 5401   6.031   0.185   8.526 -0.8810 -0.3555 -0.1468
   65SAPC  H18X 5402   5.978   0.148   8.616  1.0491  0.6852  1.4984
   65SAPC  H18Y 5403   6.030   0.296   8.520  0.3031 -0.2513  1.0693
   65SAPC  H18Z 5404   6.137   0.154   8.538 -0.6823 -0.4038 -1.7873
   66SAPC     N 5405   3.676   6.419   6.411 -0.1305  0.6440 -0.1509
   66SAPC   C12 5406   3.665   6.352   6.275  0.1342 -0.2908  0.4848
   66SAPC  H12A 5407   3.648   6.246   6.287  3.2452 -1.0897 -1.0537
   66SAPC  H12B 5408   3.755   6.368   6.219 -0.9221  0.8884 -0.9575
   66SAPC   C13 5409   3.545   6.411   6.484  0.0712  0.1667  0.9618
   66SAPC  H13A 5410   3.462   6.457   6.432 -0.5397  0.0148  1.7608
   66SAPC  H13B 5411   3.507   6.310   6.497 -0.1792 -0.1380 -1.6885
   66SAPC  H13C 5412   3.561   6.458   6.580 -1.8871 -1.1575  2.0275
   66SAPC   C14 5413   3.784   6.343   6.492  0.2418  0.2878  0.3848
   66SAPC  H14A 5414   3.779   6.374   6.595  1.0984  3.1938 -0.3701
   66SAPC  H14B 5415   3.762   6.237   6.492 -3.4954  0.9119  1.9930
   66SAPC  H14C 5416   3.879   6.365   6.445 -0.9860 -0.1926 -2.5635
   66SAPC   C15 5417   3.719   6.557   6.404 -0.4120  0.1676  0.2840
   66SAPC  H15A 5418   3.744   6.608   6.496  2.4556 -0.3617 -0.0969
   66SAPC  H15B 5419   3.807   6.560   6.340 -0.1363 -1.5131  0.5317
   66SAPC  H15C 5420   3.650   6.631   6.367  1.7965  1.5128 -1.4821
   66SAPC   C11 5421   3.535   6.408   6.196  0.3084 -0.3001 -0.2637
   66SAPC  H11A 5422   3.532   6.519   6.210  0.7328 -0.4301  1.0188
   66SAPC  H11B 5423   3.438   6.372   6.238  0.2303 -1.3629 -1.3112
   66SAPC     P 5424   3.477   6.237   6.005 -0.2579 -0.2281 -0.2216
   66SAPC   O13 5425   3.331   6.245   6.013  0.1023 -0.5436 -0.6461
   66SAPC   O14 5426   3.547   6.189   5.886  0.9062  0.0303 -0.3092
   66SAPC   O12 5427   3.537   6.373   6.059  0.2606  0.0057  0.0855
   66SAPC   O11 5428   3.527   6.141   6.121  0.1105 -0.2258 -0.6937
   66SAPC    C1 5429   3.442   6.036   6.169 -0.1191  0.4037 -0.5943
   66SAPC    HA 5430   3.357   6.024   6.099  0.5346  0.9372 -1.5037
   66SAPC    HB 5431   3.493   5.938   6.160  0.6832  0.7416  0.1463
   66SAPC    C2 5432   3.401   6.042   6.320  0.0866  0.1354  0.6196
   66SAPC    HS 5433   3.332   5.955   6.327  1.6074 -0.9647  2.7080
   66SAPC   O21 5434   3.325   6.164   6.340  0.3895 -0.1441  0.1342
   66SAPC   C21 5435   3.201   6.174   6.300  0.0634  0.1343 -0.4949
   66SAPC   O22 5436   3.138   6.083   6.252  0.7772  0.0376 -0.2285
   66SAPC   C22 5437   3.150   6.316   6.318  0.2775  0.0183 -0.0312
   66SAPC   H2R 5438   3.214   6.358   6.399 -1.1432  0.6118  0.8257
   66SAPC   H2S 5439   3.174   6.385   6.234 -0.6511 -1.3434 -1.4677
   66SAPC    C3 5440   3.507   6.026   6.432 -0.3186 -0.2247 -0.3287
   66SAPC    HX 5441   3.574   6.114   6.424  0.9255 -1.2421 -1.5769
   66SAPC    HY 5442   3.567   5.933   6.424  0.9912  0.5160  0.5383
   66SAPC   O31 5443   3.427   6.020   6.553 -0.1653  0.3919  0.4068
   66SAPC   C31 5444   3.483   6.061   6.658  0.2694  0.0095  0.4984
   66SAPC   O32 5445   3.596   6.106   6.663 -0.5204  0.2563 -0.1452
   66SAPC   C32 5446   3.393   6.044   6.782  0.0122  0.1681 -0.6864
   66SAPC   H2X 5447   3.430   6.106   6.867 -1.6728  1.1805 -0.6345
   66SAPC   H2Y 5448   3.389   5.935   6.801 -2.1188  0.1417 -1.0283
   66SAPC   C23 5449   3.009   6.321   6.371  0.4904  0.6741  1.0967
   66SAPC   H3R 5450   2.945   6.266   6.299  1.9331  1.6921 -1.0925
   66SAPC   H3S 5451   2.967   6.424   6.362 -1.1873 -0.0210  0.5579
   66SAPC   C24 5452   3.017   6.253   6.518 -0.5579 -0.3730 -0.0601
   66SAPC   H4R 5453   3.092   6.311   6.575 -1.4860 -1.1491  2.0812
   66SAPC   H4S 5454   3.045   6.146   6.502 -0.1731 -0.2436 -0.2641
   66SAPC   C25 5455   2.872   6.250   6.566  0.0085  0.5985  0.3963
   66SAPC   H5R 5456   2.808   6.178   6.513  0.2761 -0.5728  1.6097
   66SAPC   C26 5457   2.832   6.312   6.680 -0.7572  0.1006 -0.0515
   66SAPC   H6R 5458   2.726   6.306   6.711 -0.6242 -0.1126  0.3737
   66SAPC   C27 5459   2.915   6.383   6.775 -0.7700  0.1096 -0.5375
   66SAPC   H7R 5460   3.022   6.363   6.751 -0.5981 -1.2213  1.1342
   66SAPC   H7S 5461   2.914   6.340   6.877 -2.2590  0.1566 -0.5133
   66SAPC   C28 5462   2.879   6.529   6.753 -0.2761  0.0498  0.2963
   66SAPC   H8R 5463   2.889   6.562   6.649 -0.5883  1.4923  0.7036
   66SAPC   C29 5464   2.850   6.622   6.851  0.5155  0.5526  0.0809
   66SAPC   H9R 5465   2.844   6.729   6.828  1.7787  0.4045 -1.0293
   66SAPC  C210 5466   2.838   6.591   6.997  0.0459  0.0219  0.1780
   66SAPC  H10R 5467   2.830   6.689   7.050  0.4015 -0.1457  0.5433
   66SAPC  H10S 5468   2.937   6.551   7.027  0.4727 -0.1342 -1.3616
   66SAPC  C211 5469   2.715   6.513   7.021  0.4104  0.1839 -0.1880
   66SAPC  H11R 5470   2.636   6.539   6.949 -0.9819  0.6030  1.4248
   66SAPC  C212 5471   2.708   6.415   7.113  0.2857 -0.1952  0.3701
   66SAPC  H12R 5472   2.610   6.369   7.133 -0.2443  1.3539  1.5626
   66SAPC  C213 5473   2.819   6.384   7.216 -0.1007 -0.5125  0.1102
   66SAPC  H13R 5474   2.867   6.480   7.244  0.1782 -0.6598  0.1430
   66SAPC  H13S 5475   2.902   6.339   7.158 -0.0547  0.3025 -0.4682
   66SAPC  C214 5476   2.787   6.284   7.325  0.9111  0.2244  0.0715
   66SAPC  H14R 5477   2.718   6.202   7.296 -0.3442  1.2755 -0.0076
   66SAPC  C215 5478   2.846   6.282   7.447  0.4439 -0.0734  0.3087
   66SAPC  H15R 5479   2.795   6.215   7.518 -2.1664  2.5902  1.1652
   66SAPC  C216 5480   2.942   6.376   7.501 -0.2864  0.2656 -0.1380
   66SAPC  H16R 5481   2.952   6.471   7.443 -2.0975  0.7630  0.2942
   66SAPC  H16S 5482   3.039   6.323   7.513 -0.5802 -0.4000 -0.6988
   66SAPC  C217 5483   2.903   6.422   7.641  0.8280 -0.0365  0.1910
   66SAPC  H17R 5484   2.796   6.453   7.639  1.1295  1.2889  1.9867
   66SAPC  H17S 5485   2.954   6.517   7.666 -0.0302  0.8600 -1.3083
   66SAPC  C218 5486   2.905   6.325   7.757  0.8710 -0.2946  0.5648
   66SAPC  H18R 5487   2.997   6.264   7.764 -1.1653 -3.6155  0.7541
   66SAPC  H18S 5488   2.831   6.247   7.729 -0.5397  1.7363 -1.8550
   66SAPC  C219 5489   2.867   6.379   7.894  0.6668 -0.8225 -0.0279
   66SAPC  H19R 5490   2.761   6.411   7.902  0.8604  0.5834 -2.1853
   66SAPC  H19S 5491   2.920   6.474   7.919 -2.1857  0.6656  0.8783
   66SAPC  C220 5492   2.902   6.278   8.013 -0.0847  0.2717  0.0848
   66SAPC  H20R 5493   3.009   6.250   8.011 -0.0463  0.4399 -0.2061
   66SAPC  H20S 5494   2.853   6.179   8.006 -0.1245  0.2108  1.0185
   66SAPC  H20T 5495   2.871   6.318   8.112 -1.8760  0.9489 -0.7009
   66SAPC   C33 5496   3.242   6.073   6.761 -0.4169 -0.1517  0.3241
   66SAPC   H3X 5497   3.219   6.024   6.664  4.4427 -0.3804 -1.0062
   66SAPC   H3Y 5498   3.224   6.180   6.739 -0.7619 -0.4314 -0.8534
   66SAPC   C34 5499   3.152   6.026   6.874 -0.4820 -0.5664 -0.3617
   66SAPC   H4X 5500   3.164   5.916   6.867  2.7043 -0.4166  0.9600
   66SAPC   H4Y 5501   3.046   6.055   6.862 -0.9177 -0.0425  3.5627
   66SAPC   C35 5502   3.198   6.053   7.015  0.0563  0.0013 -0.3308
   66SAPC   H5X 5503   3.224   6.160   7.035  0.7905 -0.3843  0.9073
   66SAPC   H5Y 5504   3.294   6.002   7.038  2.7509  5.0601  1.3219
   66SAPC   C36 5505   3.094   6.032   7.136 -0.6775 -0.2597  0.3304
   66SAPC   H6X 5506   3.061   5.926   7.131 -0.1055 -0.5738  2.2268
   66SAPC   H6Y 5507   3.011   6.102   7.112 -0.7097 -0.4750 -0.1841
   66SAPC   C37 5508   3.146   6.071   7.272 -0.1855  1.1460 -0.1102
   66SAPC   H7X 5509   3.067   6.048   7.346  0.1293  1.0133  0.1839
   66SAPC   H7Y 5510   3.175   6.178   7.285 -1.2631  1.2425  1.8233
   66SAPC   C38 5511   3.255   5.977   7.329 -0.4789 -0.3438  0.4057
   66SAPC   H8X 5512   3.341   5.967   7.261  1.0755  1.0153  2.0690
   66SAPC   H8Y 5513   3.216   5.873   7.326  0.6610 -0.7630 -0.5198
   66SAPC   C39 5514   3.299   6.027   7.470 -0.0958 -0.5538 -0.2455
   66SAPC   H9X 5515   3.319   6.134   7.452 -0.1751 -0.6924 -1.2395
   66SAPC   H9Y 5516   3.400   5.986   7.490  0.4412  0.0217 -1.6609
   66SAPC  C310 5517   3.210   6.012   7.583  0.4243 -0.4134 -0.2303
   66SAPC  H10X 5518   3.190   5.904   7.603 -1.0129 -0.0480  0.4735
   66SAPC  H10Y 5519   3.114   6.065   7.565  1.2326  0.6148 -1.6935
   66SAPC  C311 5520   3.279   6.066   7.706 -0.0025 -0.6549  0.3386
   66SAPC  H11X 5521   3.290   6.177   7.714 -0.4753 -0.3970 -1.8383
   66SAPC  H11Y 5522   3.384   6.030   7.699  0.0051 -0.9268  1.6701
   66SAPC  C312 5523   3.205   6.022   7.832  0.5360 -0.7101 -0.5484
   66SAPC  H12X 5524   3.197   5.911   7.836  0.3543 -0.6816  0.0950
   66SAPC  H12Y 5525   3.097   6.047   7.823  0.1343 -2.5482 -1.2258
   66SAPC  C313 5526   3.255   6.067   7.973  0.4984  0.0146  0.3131
   66SAPC  H13X 5527   3.237   6.176   7.982 -3.2765 -0.3691 -1.0266
   66SAPC  H13Y 5528   3.365   6.060   7.987  0.2592 -1.2061  1.8557
   66SAPC  C314 5529   3.194   5.992   8.093  0.3056 -0.5119 -0.5086
   66SAPC  H14X 5530   3.221   5.884   8.094  1.0666 -0.3226 -0.6314
   66SAPC  H14Y 5531   3.083   5.994   8.084  0.3691 -1.5779 -1.9079
   66SAPC  C315 5532   3.244   6.059   8.219 -0.1834 -0.5116  0.4720
   66SAPC  H15X 5533   3.208   6.164   8.223 -0.1905 -0.4141 -1.4783
   66SAPC  H15Y 5534   3.354   6.051   8.215 -0.1991 -0.0733 -1.4565
   66SAPC  C316 5535   3.210   5.984   8.351 -0.4023 -0.2629  0.2616
   66SAPC  H16X 5536   3.265   6.035   8.433  0.9559 -0.9557 -0.1911
   66SAPC  H16Y 5537   3.251   5.883   8.331 -0.6634 -0.4147  0.4828
   66SAPC  C317 5538   3.066   5.985   8.393  0.1244 -0.3651  0.3845
   66SAPC  H17X 5539   3.009   5.937   8.310  0.9136 -2.8039  1.1669
   66SAPC  H17Y 5540   3.018   6.085   8.405  0.7322  0.1919 -1.4467
   66SAPC  C318 5541   3.041   5.910   8.525 -1.1640 -0.0170  0.2297
   66SAPC  H18X 5542   2.936   5.934   8.552 -0.4907  0.2062  2.9527
   66SAPC  H18Y 5543   3.099   5.967   8.600  2.4491  1.2637 -3.1828
   66SAPC  H18Z 5544   3.073   5.804   8.514  1.7157  0.9322 -2.1209
   67SAPC     N 5545   6.329   6.116   5.761 -0.1311  0.4936  0.1168
   67SAPC   C12 5546   6.337   6.098   5.911  0.0217  0.2140  0.8268
   67SAPC  H12A 5547   6.259   6.027   5.931 -1.2906  0.9361 -1.3815
   67SAPC  H12B 5548   6.315   6.191   5.962  0.2135  0.5467  0.3152
   67SAPC   C13 5549   6.436   6.206   5.703 -0.8315  0.9136 -0.5163
   67SAPC  H13A 5550   6.534   6.162   5.707 -1.2544  0.0780  1.5294
   67SAPC  H13B 5551   6.411   6.240   5.603 -3.6221 -1.0570 -0.5941
   67SAPC  H13C 5552   6.439   6.293   5.768 -0.1571 -1.3242  2.6551
   67SAPC   C14 5553   6.353   5.985   5.690  0.7459 -0.0263 -0.1764
   67SAPC  H14A 5554   6.356   6.004   5.584 -0.9092 -1.9177 -0.6316
   67SAPC  H14B 5555   6.446   5.937   5.715  1.3645 -0.1557 -2.4806
   67SAPC  H14C 5556   6.279   5.911   5.717  1.3909 -0.8398 -0.5924
   67SAPC   C15 5557   6.197   6.178   5.728 -0.3505 -0.4431 -0.1520
   67SAPC  H15A 5558   6.175   6.267   5.785  0.4922 -0.2193 -0.1519
   67SAPC  H15B 5559   6.196   6.203   5.623  0.9080 -0.6109 -0.2211
   67SAPC  H15C 5560   6.112   6.116   5.751  0.3074 -1.1516  0.4761
   67SAPC   C11 5561   6.475   6.046   5.970 -0.0908 -0.2174  0.1705
   67SAPC  H11A 5562   6.514   5.975   5.895 -0.4799 -0.6014  0.3318
   67SAPC  H11B 5563   6.449   5.986   6.059 -1.4655  1.6018  1.0809
   67SAPC     P 5564   6.550   6.273   6.076  0.4379  0.3809  0.2481
   67SAPC   O13 5565   6.683   6.321   6.121  0.9050  0.1684  0.0901
   67SAPC   O14 5566   6.471   6.370   5.995  0.1640 -0.4785  0.4145
   67SAPC   O12 5567   6.568   6.152   5.985 -0.2743 -0.4920  0.0883
   67SAPC   O11 5568   6.456   6.226   6.195  0.4257 -0.0362  0.6589
   67SAPC    C1 5569   6.500   6.165   6.317  0.1423 -0.1474  0.4761
   67SAPC    HA 5570   6.501   6.054   6.317 -0.5983 -0.1634  0.0384
   67SAPC    HB 5571   6.606   6.192   6.336 -0.3732  1.6703  1.0395
   67SAPC    C2 5572   6.417   6.203   6.442  0.8056 -0.6353 -0.5012
   67SAPC    HS 5573   6.480   6.174   6.529  1.0968 -0.1531 -0.5447
   67SAPC   O21 5574   6.299   6.124   6.442 -0.1723 -0.0132  0.0842
   67SAPC   C21 5575   6.244   6.103   6.563  0.6487  0.5217  0.2060
   67SAPC   O22 5576   6.282   6.149   6.668 -0.5619 -0.1703 -0.1160
   67SAPC   C22 5577   6.129   6.003   6.554 -0.4561 -0.5189  0.6377
   67SAPC   H2R 5578   6.091   6.028   6.453  2.2818  1.7465  0.0462
   67SAPC   H2S 5579   6.161   5.897   6.557  2.0998  0.2239  1.7487
   67SAPC    C3 5580   6.388   6.359   6.455  0.4470  0.9723 -0.6160
   67SAPC    HX 5581   6.310   6.387   6.529  0.0349  0.4256 -0.8302
   67SAPC    HY 5582   6.337   6.366   6.357 -0.6065 -1.9777 -0.3794
   67SAPC   O31 5583   6.498   6.453   6.450  0.7660  0.6953 -0.3305
   67SAPC   C31 5584   6.558   6.461   6.566 -0.2027  0.4427  0.4912
   67SAPC   O32 5585   6.545   6.381   6.656  0.3217  0.2822  0.3739
   67SAPC   C32 5586   6.632   6.598   6.574 -0.7605 -0.7479  0.8533
   67SAPC   H2X 5587   6.561   6.683   6.585  0.4534  0.3674  0.3047
   67SAPC   H2Y 5588   6.666   6.609   6.469 -1.0016 -1.8658  0.6427
   67SAPC   C23 5589   6.017   6.035   6.655  0.1744 -0.1948 -0.5647
   67SAPC   H3R 5590   5.922   5.989   6.623 -1.0133  2.8590 -1.7751
   67SAPC   H3S 5591   5.991   6.143   6.652 -2.1826 -0.7096 -0.8347
   67SAPC   C24 5592   6.045   5.992   6.799 -0.3559 -0.0228  0.2093
   67SAPC   H4R 5593   6.143   6.038   6.826  0.4279 -1.1568 -0.6087
   67SAPC   H4S 5594   6.060   5.882   6.796 -0.0145  0.0012  0.8810
   67SAPC   C25 5595   5.934   6.027   6.900 -0.1333 -0.7012 -0.2741
   67SAPC   H5R 5596   5.833   6.028   6.858  0.2744 -2.2554 -1.3937
   67SAPC   C26 5597   5.958   6.042   7.038 -0.3594  0.3006 -0.4234
   67SAPC   H6R 5598   5.876   6.072   7.105  0.5974 -0.9566  1.3661
   67SAPC   C27 5599   6.097   6.029   7.100  0.8602 -0.6214  0.0084
   67SAPC   H7R 5600   6.180   6.076   7.044  0.0302 -0.9623 -1.5682
   67SAPC   H7S 5601   6.124   5.922   7.114 -0.7181 -1.1551 -0.7197
   67SAPC   C28 5602   6.105   6.102   7.236  0.1827 -0.1975  0.2651
   67SAPC   H8R 5603   6.018   6.166   7.258  1.1831  1.9885 -1.6450
   67SAPC   C29 5604   6.216   6.115   7.317 -0.3070 -0.0477 -0.8811
   67SAPC   H9R 5605   6.203   6.185   7.400  2.7685 -2.9317  2.3848
   67SAPC  C210 5606   6.349   6.042   7.307  0.7427 -0.2493 -0.0320
   67SAPC  H10R 5607   6.343   5.971   7.222  0.2876 -0.2388 -0.0134
   67SAPC  H10S 5608   6.362   5.983   7.400  1.8278 -2.0279 -1.2364
   67SAPC  C211 5609   6.476   6.121   7.300  0.9381  0.3086  0.9853
   67SAPC  H11R 5610   6.467   6.229   7.318 -2.4339 -0.0693  2.2539
   67SAPC  C212 5611   6.598   6.062   7.307  0.1392 -0.6304  0.1112
   67SAPC  H12R 5612   6.685   6.128   7.296 -1.0947  1.0138 -0.1773
   67SAPC  C213 5613   6.624   5.916   7.293 -0.1870  0.0070 -0.2883
   67SAPC  H13R 5614   6.578   5.892   7.195 -0.7355 -0.2066  0.0185
   67SAPC  H13S 5615   6.575   5.870   7.381 -1.8418  0.7821 -0.7683
   67SAPC  C214 5616   6.770   5.886   7.289  0.2488 -0.3368  0.4119
   67SAPC  H14R 5617   6.817   5.910   7.385 -1.1152 -0.7430  1.2197
   67SAPC  C215 5618   6.840   5.840   7.184  0.0273 -0.0284 -0.1295
   67SAPC  H15R 5619   6.949   5.829   7.193 -0.1439 -1.6508  0.1838
   67SAPC  C216 5620   6.790   5.792   7.054 -0.0928  0.2905  0.1108
   67SAPC  H16R 5621   6.716   5.866   7.015  0.3291  0.7447  0.1599
   67SAPC  H16S 5622   6.734   5.697   7.070  0.4038  0.4688  3.7611
   67SAPC  C217 5623   6.900   5.759   6.951 -0.2155 -0.0667 -0.3288
   67SAPC  H17R 5624   6.938   5.862   6.932 -1.6599  0.8473  1.4444
   67SAPC  H17S 5625   6.844   5.723   6.863  1.3216  2.5653 -2.5405
   67SAPC  C218 5626   7.008   5.660   6.993 -0.5891  0.1381 -0.7583
   67SAPC  H18R 5627   6.956   5.563   7.015  0.3934  0.0372  1.4317
   67SAPC  H18S 5628   7.061   5.690   7.086 -0.4218  1.1241 -1.1615
   67SAPC  C219 5629   7.108   5.635   6.882  0.2625  0.1294  0.5101
   67SAPC  H19R 5630   7.057   5.597   6.791  0.4676  3.4852 -1.1623
   67SAPC  H19S 5631   7.184   5.559   6.908 -1.7602 -2.9957 -1.9862
   67SAPC  C220 5632   7.176   5.772   6.848  0.0561  0.3489 -0.3648
   67SAPC  H20R 5633   7.194   5.829   6.942  0.0699 -2.2767  1.3630
   67SAPC  H20S 5634   7.108   5.828   6.781  1.5705  0.0563 -2.2327
   67SAPC  H20T 5635   7.270   5.749   6.794 -0.6392  1.1339 -1.9473
   67SAPC   C33 5636   6.747   6.615   6.675 -0.3371  0.2750 -0.1492
   67SAPC   H3X 5637   6.804   6.703   6.637 -0.0610 -0.1487 -0.7189
   67SAPC   H3Y 5638   6.819   6.530   6.677 -0.7509 -0.0942 -1.0073
   67SAPC   C34 5639   6.705   6.656   6.817 -0.4905 -0.3410 -0.2720
   67SAPC   H4X 5640   6.637   6.741   6.793 -0.4863 -0.0290  0.7809
   67SAPC   H4Y 5641   6.796   6.696   6.867 -0.4883 -0.1298 -0.4446
   67SAPC   C35 5642   6.656   6.546   6.908 -0.4944  0.1257  0.3342
   67SAPC   H5X 5643   6.711   6.459   6.868 -1.9859 -0.4038 -0.6725
   67SAPC   H5Y 5644   6.546   6.541   6.894 -0.3386  1.6843 -2.0158
   67SAPC   C36 5645   6.679   6.577   7.060 -0.5032 -0.2483  0.7746
   67SAPC   H6X 5646   6.629   6.672   7.088 -0.3395 -0.2792  1.1875
   67SAPC   H6Y 5647   6.788   6.595   7.073  0.0027 -1.0168 -1.8295
   67SAPC   C37 5648   6.629   6.460   7.154  0.4190 -0.1370  0.5236
   67SAPC   H7X 5649   6.682   6.371   7.114 -1.1375 -0.7792 -0.2076
   67SAPC   H7Y 5650   6.519   6.440   7.149  0.6913 -1.3749 -1.7169
   67SAPC   C38 5651   6.661   6.481   7.302 -0.2712 -0.1522 -0.0166
   67SAPC   H8X 5652   6.614   6.407   7.370  0.9959 -1.8050 -0.8586
   67SAPC   H8Y 5653   6.610   6.578   7.321  0.5694 -0.0154  1.7129
   67SAPC   C39 5654   6.811   6.470   7.322 -0.4048  0.0194 -0.5823
   67SAPC   H9X 5655   6.864   6.546   7.261 -2.9440  0.5947 -2.2404
   67SAPC   H9Y 5656   6.833   6.369   7.281 -3.4215 -1.2223  0.5285
   67SAPC  C310 5657   6.862   6.454   7.470 -0.1971  0.1761 -0.5791
   67SAPC  H10X 5658   6.839   6.545   7.530  2.2362 -1.2893  2.8589
   67SAPC  H10Y 5659   6.972   6.448   7.454 -0.1618 -0.3953 -0.1237
   67SAPC  C311 5660   6.813   6.341   7.552 -0.1827 -0.2968  0.3488
   67SAPC  H11X 5661   6.812   6.246   7.495 -0.5054 -0.9035  1.3326
   67SAPC  H11Y 5662   6.708   6.353   7.589  0.0854 -0.4511  1.1789
   67SAPC  C312 5663   6.909   6.311   7.668 -0.7980 -0.7295  1.3348
   67SAPC  H12X 5664   6.907   6.384   7.751  2.4036 -0.4639  1.3153
   67SAPC  H12Y 5665   7.009   6.322   7.622 -0.9347  2.2923  1.5333
   67SAPC  C313 5666   6.902   6.169   7.721 -0.2379 -0.5632  0.1618
   67SAPC  H13X 5667   6.968   6.161   7.810 -2.1117 -2.5091  1.4871
   67SAPC  H13Y 5668   6.928   6.094   7.643 -3.1483  0.6696 -2.1978
   67SAPC  C314 5669   6.771   6.124   7.785 -0.7067 -0.4982  0.0694
   67SAPC  H14X 5670   6.693   6.145   7.710 -0.7852  0.3299  0.3815
   67SAPC  H14Y 5671   6.763   6.184   7.878  0.6953 -3.8358  2.5596
   67SAPC  C315 5672   6.769   5.976   7.838 -0.7293  0.1679  0.4427
   67SAPC  H15X 5673   6.844   5.965   7.919 -1.3773 -1.6280  0.8634
   67SAPC  H15Y 5674   6.788   5.915   7.747  1.1519  0.4807  0.5769
   67SAPC  C316 5675   6.644   5.934   7.920 -0.7587 -0.0429  1.0527
   67SAPC  H16X 5676   6.555   5.912   7.857 -0.0537  0.1934 -0.0496
   67SAPC  H16Y 5677   6.609   6.027   7.970  1.5058  1.9304 -0.7257
   67SAPC  C317 5678   6.667   5.824   8.020 -0.6251 -0.1215 -0.0518
   67SAPC  H17X 5679   6.602   5.835   8.110 -4.0230  0.8718 -2.4528
   67SAPC  H17Y 5680   6.767   5.835   8.067 -1.5444 -0.1546  2.0527
   67SAPC  C318 5681   6.667   5.679   7.965  0.1825 -0.1959 -0.3111
   67SAPC  H18X 5682   6.560   5.658   7.943 -0.5729  2.1813  0.7480
   67SAPC  H18Y 5683   6.711   5.607   8.037  0.4846 -0.9691 -1.2497
   67SAPC  H18Z 5684   6.722   5.657   7.871 -2.2700 -4.0688 -1.0870
   68SAPC     N 5685   0.345   0.772   6.084 -0.2342  0.2579 -0.0481
   68SAPC   C12 5686   0.255   0.694   6.184  0.0334 -0.1858  0.8200
   68SAPC  H12A 5687   0.297   0.683   6.283 -0.3465 -2.9278  0.7323
   68SAPC  H12B 5688   0.252   0.593   6.146 -1.8686  1.2864 -3.6365
   68SAPC   C13 5689   0.271   0.791   5.952 -0.7677  0.9255 -0.0403
   68SAPC  H13A 5690   0.175   0.837   5.971 -0.9607  0.0640  1.1695
   68SAPC  H13B 5691   0.327   0.837   5.873  0.4735  1.3623  1.0542
   68SAPC  H13C 5692   0.251   0.690   5.920  1.7130  0.6347 -0.8755
   68SAPC   C14 5693   0.387   0.907   6.139  1.0410 -0.3439 -0.9771
   68SAPC  H14A 5694   0.296   0.964   6.151  1.2100  0.0567 -1.5709
   68SAPC  H14B 5695   0.423   0.895   6.240 -0.2218 -0.7303 -0.5649
   68SAPC  H14C 5696   0.458   0.963   6.080  1.2014  0.5333  0.0156
   68SAPC   C15 5697   0.467   0.695   6.061  0.0117 -0.4141 -0.0401
   68SAPC  H15A 5698   0.533   0.706   6.146  1.0551  0.9102 -0.9825
   68SAPC  H15B 5699   0.445   0.591   6.045 -0.4940 -0.4855  1.0184
   68SAPC  H15C 5700   0.531   0.725   5.980 -1.1375 -2.2680 -1.7220
   68SAPC   C11 5701   0.112   0.747   6.208 -0.0195 -0.1537  0.6209
   68SAPC  H11A 5702   0.081   0.681   6.291  0.3984  1.0428  1.7847
   68SAPC  H11B 5703   0.044   0.745   6.120  0.1214  3.0969  0.2906
   68SAPC     P 5704  -0.001   0.983   6.204  0.4266 -0.3842  0.3778
   68SAPC   O13 5705   0.052   1.055   6.087 -0.1541  0.3857  0.2797
   68SAPC   O14 5706  -0.128   0.909   6.196  0.5972 -0.3337  0.0916
   68SAPC   O12 5707   0.110   0.881   6.258 -0.1372 -0.2639  0.0472
   68SAPC   O11 5708  -0.001   1.087   6.324 -0.3540 -0.2276  0.5814
   68SAPC    C1 5709   0.121   1.141   6.365  0.2732 -0.1775 -0.3745
   68SAPC    HA 5710   0.171   1.077   6.442  2.6147 -0.0317 -1.6705
   68SAPC    HB 5711   0.195   1.152   6.283  3.5534  0.1385  2.3989
   68SAPC    C2 5712   0.103   1.288   6.408  0.4082  0.9937  0.5273
   68SAPC    HS 5713   0.203   1.333   6.426  0.1358  2.3564 -1.1661
   68SAPC   O21 5714   0.013   1.293   6.526 -0.0856  0.2278  0.4279
   68SAPC   C21 5715   0.068   1.252   6.637 -0.0523  0.2351 -0.1497
   68SAPC   O22 5716   0.188   1.218   6.647  0.9744 -0.0354 -0.2160
   68SAPC   C22 5717  -0.032   1.275   6.761 -0.3161  0.0180  0.5970
   68SAPC   H2R 5718  -0.101   1.360   6.742 -1.4719 -0.9834  0.1706
   68SAPC   H2S 5719  -0.100   1.187   6.763 -1.4263  0.8491  0.2873
   68SAPC    C3 5720   0.036   1.375   6.295  0.1493  0.1992  0.4484
   68SAPC    HX 5721  -0.047   1.312   6.258  0.6579 -0.3086  0.1518
   68SAPC    HY 5722   0.118   1.379   6.220  0.7726  1.6457  1.1534
   68SAPC   O31 5723  -0.009   1.507   6.336 -0.3092 -0.7515  0.1355
   68SAPC   C31 5724  -0.140   1.521   6.339  0.6373  1.0038  0.1286
   68SAPC   O32 5725  -0.225   1.435   6.304 -0.0837 -0.4536  0.0716
   68SAPC   C32 5726  -0.171   1.659   6.398  0.1988  0.1562  0.0246
   68SAPC   H2X 5727  -0.269   1.693   6.361 -0.1885  1.6192  2.1972
   68SAPC   H2Y 5728  -0.091   1.728   6.361 -0.1989  0.5216 -0.1639
   68SAPC   C23 5729   0.033   1.295   6.899  0.1602 -0.0643 -0.4860
   68SAPC   H3R 5730   0.085   1.393   6.906  0.4652 -0.3250  1.2212
   68SAPC   H3S 5731   0.103   1.214   6.927 -0.3061 -0.5783 -0.7769
   68SAPC   C24 5732  -0.062   1.294   7.021  0.3705  0.8958  0.6768
   68SAPC   H4R 5733  -0.126   1.204   7.021  0.7828  0.5833  1.7853
   68SAPC   H4S 5734  -0.124   1.386   7.017 -0.4858  0.5174  3.4252
   68SAPC   C25 5735   0.017   1.304   7.147  0.3555 -0.8988  0.0121
   68SAPC   H5R 5736   0.097   1.379   7.157  0.2887 -0.8848  0.4646
   68SAPC   C26 5737   0.014   1.223   7.247 -0.5419  0.8165 -0.7140
   68SAPC   H6R 5738   0.072   1.260   7.333 -0.2223  0.3395 -0.7158
   68SAPC   C27 5739  -0.094   1.124   7.285  0.0216  0.6723  0.0230
   68SAPC   H7R 5740  -0.056   1.041   7.347  1.8331  1.6998  0.3623
   68SAPC   H7S 5741  -0.127   1.077   7.190  0.5255  0.0942  0.1263
   68SAPC   C28 5742  -0.217   1.179   7.356 -0.0702 -0.2719 -0.1625
   68SAPC   H8R 5743  -0.292   1.229   7.293 -1.2450  0.4021  1.6886
   68SAPC   C29 5744  -0.237   1.192   7.487 -0.4089 -0.0014  0.2953
   68SAPC   H9R 5745  -0.332   1.238   7.518 -0.6598  0.5393 -1.2133
   68SAPC  C210 5746  -0.144   1.149   7.597  0.2305 -0.1234  0.1131
   68SAPC  H10R 5747  -0.049   1.169   7.542  0.0495 -1.9128 -0.9314
   68SAPC  H10S 5748  -0.145   1.038   7.600  0.1780 -0.1649 -1.2174
   68SAPC  C211 5749  -0.129   1.212   7.733  0.3598 -0.5697  0.3240
   68SAPC  H11R 5750  -0.128   1.322   7.730 -0.3275 -0.5545  0.5681
   68SAPC  C212 5751  -0.121   1.155   7.859  0.3158  0.2289  0.6672
   68SAPC  H12R 5752  -0.127   1.228   7.941  0.4146 -0.7206  1.5423
   68SAPC  C213 5753  -0.135   1.009   7.889  0.1163 -0.0739 -0.0965
   68SAPC  H13R 5754  -0.174   0.959   7.798  2.2679  1.4718 -1.9681
   68SAPC  H13S 5755  -0.209   0.993   7.971 -3.4596  1.1833 -2.7991
   68SAPC  C214 5756   0.004   0.949   7.916 -0.6036  0.4631  0.3229
   68SAPC  H14R 5757   0.072   0.957   7.830 -0.0624 -2.2531  0.4164
   68SAPC  C215 5758   0.024   0.870   8.024 -0.2139  0.4448  0.5051
   68SAPC  H15R 5759   0.123   0.825   8.043  0.6574  1.9089 -0.4111
   68SAPC  C216 5760  -0.064   0.854   8.142 -0.1688  0.8244 -0.1093
   68SAPC  H16R 5761  -0.161   0.810   8.111  1.2106 -1.4377 -1.4984
   68SAPC  H16S 5762  -0.078   0.959   8.174 -0.2592  1.0533 -0.8683
   68SAPC  C217 5763  -0.009   0.777   8.262  0.3358 -0.3555 -0.5892
   68SAPC  H17R 5764   0.065   0.703   8.225 -0.0969 -0.3782 -1.4313
   68SAPC  H17S 5765  -0.082   0.719   8.324  1.9844 -0.3098  1.5118
   68SAPC  C218 5766   0.065   0.859   8.365 -1.2347  0.1068 -0.0828
   68SAPC  H18R 5767   0.113   0.788   8.436 -3.6285 -2.8868 -1.2276
   68SAPC  H18S 5768  -0.008   0.923   8.418  1.6261  1.9275  1.9411
   68SAPC  C219 5769   0.163   0.962   8.310 -0.4601  0.1683  0.4218
   68SAPC  H19R 5770   0.196   0.928   8.210  1.0888  1.9349  0.2745
   68SAPC  H19S 5771   0.250   0.960   8.380 -0.1485  0.2679  0.0374
   68SAPC  C220 5772   0.116   1.106   8.310  0.5317  0.1955 -0.1744
   68SAPC  H20R 5773   0.185   1.186   8.274  0.1392  0.9410  0.7018
   68SAPC  H20S 5774   0.095   1.134   8.415 -1.2651 -0.8842 -0.1986
   68SAPC  H20T 5775   0.020   1.122   8.257 -0.3649  1.8355  1.8368
   68SAPC   C33 5776  -0.164   1.666   6.550  0.0205 -0.7276 -0.7618
   68SAPC   H3X 5777  -0.161   1.775   6.568  0.9349 -0.9219  0.3556
   68SAPC   H3Y 5778  -0.069   1.626   6.592 -0.5046 -0.4775  0.6906
   68SAPC   C34 5779  -0.273   1.593   6.630 -0.5800  0.0316 -0.8810
   68SAPC   H4X 5780  -0.267   1.483   6.616 -0.2427 -0.5833  3.0697
   68SAPC   H4Y 5781  -0.374   1.623   6.593 -0.8047 -0.7257 -0.8971
   68SAPC   C35 5782  -0.242   1.622   6.782 -0.0677 -0.1930  0.3264
   68SAPC   H5X 5783  -0.232   1.732   6.781  3.6718 -0.4280 -1.1734
   68SAPC   H5Y 5784  -0.151   1.585   6.833  0.7279  0.5473 -0.5321
   68SAPC   C36 5785  -0.372   1.588   6.862 -0.2451  0.4157 -0.4157
   68SAPC   H6X 5786  -0.406   1.486   6.836 -0.3666 -0.4461  2.7117
   68SAPC   H6Y 5787  -0.456   1.652   6.829 -1.8725 -2.0378 -1.2969
   68SAPC   C37 5788  -0.354   1.602   7.016 -0.6073  0.0788 -0.3336
   68SAPC   H7X 5789  -0.383   1.706   7.044  2.8558  0.9474  0.4827
   68SAPC   H7Y 5790  -0.254   1.585   7.060 -1.4313  0.8939  2.0021
   68SAPC   C38 5791  -0.445   1.519   7.101  0.0021 -0.4694  0.0580
   68SAPC   H8X 5792  -0.423   1.411   7.092  1.5137 -0.1081 -1.1158
   68SAPC   H8Y 5793  -0.552   1.527   7.072 -0.4429 -1.5269  1.3178
   68SAPC   C39 5794  -0.429   1.558   7.244 -0.1457  0.2805 -0.6316
   68SAPC   H9X 5795  -0.463   1.659   7.275 -1.9933 -1.1903  2.5287
   68SAPC   H9Y 5796  -0.319   1.551   7.259  0.0836 -1.0216 -2.4955
   68SAPC  C310 5797  -0.489   1.451   7.340  0.3157 -0.5609 -0.5000
   68SAPC  H10X 5798  -0.437   1.354   7.326 -0.6506 -0.9663 -1.4088
   68SAPC  H10Y 5799  -0.596   1.429   7.318  0.7400 -2.1403 -1.0850
   68SAPC  C311 5800  -0.477   1.501   7.492  0.3202 -0.4308 -0.3412
   68SAPC  H11X 5801  -0.496   1.610   7.501  0.5928 -0.3322 -0.9522
   68SAPC  H11Y 5802  -0.371   1.480   7.516  0.4114 -0.0923 -0.4463
   68SAPC  C312 5803  -0.578   1.417   7.575  0.1818 -0.6631 -0.6799
   68SAPC  H12X 5804  -0.575   1.317   7.525 -1.0549 -1.4381  0.7134
   68SAPC  H12Y 5805  -0.683   1.452   7.566 -0.0596 -0.3157  2.4203
   68SAPC  C313 5806  -0.544   1.399   7.729  0.2237 -0.9239  0.2687
   68SAPC  H13X 5807  -0.515   1.501   7.762 -0.0174 -1.0363  0.8431
   68SAPC  H13Y 5808  -0.452   1.339   7.736  1.2760  0.5266 -0.5883
   68SAPC  C314 5809  -0.663   1.345   7.806 -0.6264 -0.2493 -0.5778
   68SAPC  H14X 5810  -0.702   1.245   7.775 -0.3755 -0.2091 -1.0411
   68SAPC  H14Y 5811  -0.749   1.415   7.797  0.4441  1.2810  0.6186
   68SAPC  C315 5812  -0.625   1.328   7.953 -0.0305  1.3709 -0.1106
   68SAPC  H15X 5813  -0.566   1.412   7.997 -0.9805  1.9668  0.0568
   68SAPC  H15Y 5814  -0.554   1.244   7.970 -0.4719  1.3132  1.7494
   68SAPC  C316 5815  -0.742   1.305   8.050  0.1723 -0.0734  0.0890
   68SAPC  H16X 5816  -0.837   1.278   7.998 -1.4075  0.6811  2.4142
   68SAPC  H16Y 5817  -0.763   1.401   8.101  1.5387  0.4180 -0.2366
   68SAPC  C317 5818  -0.716   1.197   8.157 -0.3292  0.3357 -0.4496
   68SAPC  H17X 5819  -0.635   1.235   8.222 -0.2477  1.2661 -1.0750
   68SAPC  H17Y 5820  -0.704   1.104   8.098 -2.8189  1.0043 -2.1904
   68SAPC  C318 5821  -0.829   1.172   8.264  0.2279 -0.2203 -0.0621
   68SAPC  H18X 5822  -0.891   1.084   8.237 -2.3092  0.7896  2.0189
   68SAPC  H18Y 5823  -0.893   1.263   8.255 -0.6261 -0.9740 -2.5819
   68SAPC  H18Z 5824  -0.785   1.159   8.365 -1.0192 -1.2210  0.3814
   69SLPC     N 5825   3.118   6.713  10.927  0.4468  0.3508  0.0396
   69SLPC   C13 5826   3.113   6.777  10.799 -1.0941 -0.1130  0.2630
   69SLPC  H13A 5827   3.061   6.719  10.725  2.3046 -2.2353 -0.6860
   69SLPC  H13B 5828   3.073   6.878  10.798 -0.6469  0.0639 -0.0560
   69SLPC  H13C 5829   3.208   6.785  10.747 -0.3522 -3.9440  0.7241
   69SLPC   C14 5830   2.974   6.694  10.975  1.0237 -0.8934 -0.1111
   69SLPC  H14A 5831   2.918   6.786  10.991 -1.2535 -2.5487  2.5570
   69SLPC  H14B 5832   2.930   6.623  10.908 -2.1699 -2.2764  3.0989
   69SLPC  H14C 5833   2.962   6.658  11.077  1.8703  2.7675  1.4584
   69SLPC   C15 5834   3.191   6.797  11.033 -0.2875  0.6806 -0.3743
   69SLPC  H15A 5835   3.193   6.746  11.128  2.4353 -2.6114 -1.9787
   69SLPC  H15B 5836   3.296   6.809  11.014 -0.2174 -0.3557 -0.7002
   69SLPC  H15C 5837   3.159   6.900  11.040 -1.3253  0.4561 -1.4247
   69SLPC   C12 5838   3.200   6.588  10.914 -0.5294 -0.7213 -0.3692
   69SLPC  H12A 5839   3.206   6.527  11.003 -3.4620  1.9448  1.8898
   69SLPC  H12B 5840   3.300   6.619  10.888 -0.1448 -0.3662  1.4224
   69SLPC   C11 5841   3.148   6.482  10.810 -0.8292 -0.1004 -0.0731
   69SLPC  H11A 5842   3.219   6.396  10.817 -0.8082 -0.0315  0.6427
   69SLPC  H11B 5843   3.164   6.525  10.709 -0.3278  2.2944  0.9560
   69SLPC     P 5844   2.986   6.342  10.960 -0.3671  0.0274  0.4496
   69SLPC   O13 5845   3.105   6.345  11.047 -0.0263 -0.3172  0.2804
   69SLPC   O14 5846   2.859   6.380  11.019  0.2229  0.3072 -0.3932
   69SLPC   O12 5847   3.019   6.437  10.836 -0.0314  0.4319  0.2045
   69SLPC   O11 5848   2.973   6.209  10.884 -0.4697  0.0139 -0.1518
   69SLPC    C1 5849   2.911   6.209  10.759 -0.0494 -0.6678  0.3410
   69SLPC    HA 5850   2.856   6.113  10.753 -0.0258 -0.6521 -0.1971
   69SLPC    HB 5851   2.837   6.291  10.747 -0.5218 -0.8465  1.8398
   69SLPC    C2 5852   3.011   6.228  10.634  0.0711 -0.2190  0.6079
   69SLPC    HS 5853   3.066   6.323  10.647 -0.4694 -0.0633  2.0067
   69SLPC   O21 5854   2.936   6.218  10.513  0.0746 -0.2427 -0.2623
   69SLPC   C21 5855   2.979   6.286  10.404 -0.1562 -0.4402  0.0193
   69SLPC   O22 5856   3.070   6.367  10.408 -0.4574  0.1420 -0.1857
   69SLPC   C22 5857   2.894   6.250  10.281  0.0127  0.1244 -0.7083
   69SLPC   H2R 5858   2.882   6.139  10.280  1.5839 -0.1471  1.9251
   69SLPC   H2S 5859   2.794   6.299  10.288  0.4816  0.8753  1.7381
   69SLPC    C3 5860   3.129   6.125  10.644 -0.1403 -0.3903  0.2224
   69SLPC    HX 5861   3.169   6.128  10.747  0.1480 -0.6102  0.1200
   69SLPC    HY 5862   3.207   6.169  10.578 -1.5191  0.3878 -0.9629
   69SLPC   O31 5863   3.086   5.988  10.609 -0.0358 -0.4236 -0.0256
   69SLPC   C31 5864   3.125   5.947  10.486  0.0365  0.5581  0.1544
   69SLPC   O32 5865   3.181   6.018  10.402  0.2256  0.1970  0.2666
   69SLPC   C32 5866   3.066   5.811  10.459 -0.4683  0.1006 -0.0023
   69SLPC   H2X 5867   2.960   5.807  10.490 -0.5619 -0.1462 -0.3489
   69SLPC   H2Y 5868   3.118   5.734  10.519 -0.3251 -0.5146 -0.8958
   69SLPC   C23 5869   2.954   6.300  10.151  0.9974 -0.8931  0.1808
   69SLPC   H3R 5870   3.058   6.266  10.132  1.0897  0.1879 -1.4173
   69SLPC   H3S 5871   2.956   6.411  10.163 -0.5835 -0.6256 -1.5521
   69SLPC   C24 5872   2.869   6.278  10.022  0.3760 -0.1001 -0.5791
   69SLPC   H4R 5873   2.770   6.232  10.040  0.2699 -0.8435 -2.7418
   69SLPC   H4S 5874   2.928   6.215   9.951 -1.9446 -0.4742 -2.2792
   69SLPC   C25 5875   2.836   6.407   9.951 -0.0781  0.2093  0.1392
   69SLPC   H5R 5876   2.927   6.463   9.920 -1.8034  2.6591 -0.7812
   69SLPC   H5S 5877   2.780   6.475  10.019  1.1345  1.3064  0.0793
   69SLPC   C26 5878   2.742   6.393   9.833  0.0082 -0.0290 -0.3399
   69SLPC   H6R 5879   2.697   6.490   9.803 -1.6587 -1.4030 -2.6337
   69SLPC   H6S 5880   2.660   6.329   9.871 -1.1640  0.6792 -1.5972
   69SLPC   C27 5881   2.814   6.326   9.714 -0.6683  0.2305 -0.6760
   69SLPC   H7R 5882   2.847   6.228   9.753  0.4861  0.7291 -0.3383
   69SLPC   H7S 5883   2.901   6.388   9.683 -0.0770 -0.2905 -0.0659
   69SLPC   C28 5884   2.718   6.307   9.596  0.2390  0.0167  0.0961
   69SLPC   H8R 5885   2.638   6.236   9.627  0.8011 -0.2748  0.9245
   69SLPC   H8S 5886   2.777   6.247   9.523  0.6565  1.8057 -1.0953
   69SLPC   C29 5887   2.659   6.428   9.521 -0.2305  0.0912  0.5099
   69SLPC   H9R 5888   2.557   6.457   9.548 -1.6930 -1.6057 -2.6166
   69SLPC  C210 5889   2.714   6.475   9.406  0.6191  0.1397  0.1276
   69SLPC  H10R 5890   2.658   6.553   9.354 -0.8652 -1.0030 -0.0627
   69SLPC  C211 5891   2.841   6.422   9.337  0.5879  0.5459  0.1188
   69SLPC  H11R 5892   2.837   6.312   9.350  0.4517  0.7247  1.8060
   69SLPC  H11S 5893   2.935   6.448   9.390  0.0367 -0.7471  1.7960
   69SLPC  C212 5894   2.859   6.463   9.195 -0.2110 -0.3256  0.3134
   69SLPC  H12R 5895   2.906   6.562   9.187  1.4533 -1.2191 -1.7844
   69SLPC  C213 5896   2.810   6.409   9.083  0.2746  0.6851  0.0530
   69SLPC  H13R 5897   2.825   6.453   8.983  0.7909 -2.9405 -1.6596
   69SLPC  C214 5898   2.723   6.282   9.076  0.0023 -0.9120 -0.6183
   69SLPC  H14R 5899   2.614   6.300   9.061 -0.2449 -0.1898  1.6310
   69SLPC  H14S 5900   2.731   6.209   9.160 -0.3327 -2.0331 -1.5354
   69SLPC  C215 5901   2.764   6.206   8.951  0.8356 -0.6957 -0.6555
   69SLPC  H15R 5902   2.778   6.273   8.864  0.4897 -0.2268 -0.3520
   69SLPC  H15S 5903   2.683   6.137   8.920 -0.4237 -0.3287  1.5615
   69SLPC  C216 5904   2.898   6.135   8.971 -0.5833 -0.1443  0.4368
   69SLPC  H16R 5905   2.889   6.074   9.064 -0.5775  0.7691  1.0488
   69SLPC  H16S 5906   2.974   6.213   8.988  0.3628 -0.9152 -0.1551
   69SLPC  C217 5907   2.952   6.049   8.860  0.3510 -0.0739  0.4890
   69SLPC  H17R 5908   2.951   6.106   8.765  0.2793  1.6560  1.4828
   69SLPC  H17S 5909   2.891   5.957   8.852 -0.5566  0.6249 -1.0665
   69SLPC  C218 5910   3.095   6.007   8.887  0.0619  0.4552 -0.2627
   69SLPC  H18R 5911   3.153   6.096   8.919  0.6236 -0.2618  0.7811
   69SLPC  H18S 5912   3.158   5.958   8.810  1.5144  0.7162  0.7286
   69SLPC  H18T 5913   3.097   5.945   8.979  0.0785  0.8150 -0.0169
   69SLPC   C33 5914   3.071   5.787  10.307  0.0723 -0.2725 -0.1738
   69SLPC   H3X 5915   3.028   5.685  10.293  0.0978 -0.3064 -0.0120
   69SLPC   H3Y 5916   3.176   5.784  10.272  1.1107 -0.7495  2.6872
   69SLPC   C34 5917   2.983   5.880  10.225  0.4478 -0.6431 -0.5216
   69SLPC   H4X 5918   3.028   5.981  10.215 -3.0904  1.3532  1.4270
   69SLPC   H4Y 5919   2.887   5.902  10.276  1.1445  2.0404 -0.2007
   69SLPC   C35 5920   2.930   5.827  10.090  0.0695  0.4433 -0.9102
   69SLPC   H5X 5921   2.873   5.733  10.105  1.5875 -0.8572 -2.7596
   69SLPC   H5Y 5922   3.015   5.802  10.023  0.8858  0.8947 -0.0630
   69SLPC   C36 5923   2.835   5.925  10.026 -0.0545 -0.0117  0.4170
   69SLPC   H6X 5924   2.884   6.010   9.975 -2.4319  0.7095 -0.7809
   69SLPC   H6Y 5925   2.774   5.961  10.112  0.3304 -0.8797  1.0716
   69SLPC   C37 5926   2.743   5.868   9.921  0.1049 -0.0703 -0.2772
   69SLPC   H7X 5927   2.672   5.795   9.967 -1.7694  1.4561 -0.6152
   69SLPC   H7Y 5928   2.798   5.809   9.845  0.9097  1.0405 -0.5761
   69SLPC   C38 5929   2.669   5.976   9.845 -0.1665  0.3335 -0.3620
   69SLPC   H8X 5930   2.738   6.052   9.802 -0.5062  0.8118 -0.0671
   69SLPC   H8Y 5931   2.602   6.036   9.910  1.4366  3.0721 -1.0604
   69SLPC   C39 5932   2.585   5.922   9.728 -0.3725 -0.2015 -0.1387
   69SLPC   H9X 5933   2.534   6.007   9.678  1.2541  1.6201  1.1446
   69SLPC   H9Y 5934   2.515   5.853   9.781 -0.6527 -0.4048 -0.7738
   69SLPC  C310 5935   2.663   5.843   9.615  0.4135  0.4702 -1.1561
   69SLPC  H10X 5936   2.595   5.771   9.565 -1.2801  1.0210  0.2481
   69SLPC  H10Y 5937   2.748   5.792   9.665  1.9464  2.4381 -1.6133
   69SLPC  C311 5938   2.730   5.926   9.512 -0.6844  0.3841  0.3513
   69SLPC  H11X 5939   2.784   6.016   9.549  0.6618  0.4946 -1.7292
   69SLPC  H11Y 5940   2.653   5.966   9.444 -1.3503  1.5923  1.7616
   69SLPC  C312 5941   2.845   5.849   9.442 -0.8111 -0.2095  0.5285
   69SLPC  H12X 5942   2.810   5.745   9.427  2.2164 -1.1843 -0.2663
   69SLPC  H12Y 5943   2.936   5.829   9.502 -0.0573 -0.9582 -0.8342
   69SLPC  C313 5944   2.889   5.911   9.307  0.3013  0.3775 -0.5076
   69SLPC  H13X 5945   2.920   6.017   9.320  1.6999 -0.1945  1.2364
   69SLPC  H13Y 5946   2.802   5.905   9.237 -1.6410  1.8024  1.6395
   69SLPC  C314 5947   3.010   5.827   9.255  0.3605  1.0617  0.5654
   69SLPC  H14X 5948   3.084   5.832   9.338 -0.1558  0.1839  1.0931
   69SLPC  H14Y 5949   3.049   5.879   9.165 -0.1736  2.2166  0.9789
   69SLPC  C315 5950   2.983   5.679   9.224  0.1883  0.4788 -0.2342
   69SLPC  H15X 5951   2.929   5.639   9.313  1.4312 -0.6547  0.0612
   69SLPC  H15Y 5952   3.077   5.619   9.229 -0.6363 -0.8187  0.6687
   69SLPC  C316 5953   2.899   5.639   9.102  0.0235  0.1620 -0.3801
   69SLPC  H16X 5954   2.824   5.719   9.084  1.4949  1.9997  1.1041
   69SLPC  H16Y 5955   2.841   5.545   9.105  0.1577  0.0435 -1.2875
   69SLPC  C317 5956   2.990   5.622   8.975 -0.0588 -0.6067 -0.3379
   69SLPC  H17X 5957   3.062   5.542   9.003  2.1598  1.7136  0.9831
   69SLPC  H17Y 5958   3.041   5.718   8.952 -0.6384 -0.3492 -0.5690
   69SLPC  C318 5959   2.913   5.574   8.844  0.1615  0.0023 -0.1381
   69SLPC  H18X 5960   2.839   5.653   8.818  0.7887 -0.0268 -2.1891
   69SLPC  H18Y 5961   2.861   5.478   8.863  0.3462 -0.2044 -0.6575
   69SLPC  H18Z 5962   2.981   5.557   8.758  1.6357  2.5223  0.4123
   70SLPC     N 5963   3.977   3.531  10.710 -1.0681  0.1114  0.1167
   70SLPC   C13 5964   3.854   3.535  10.623 -0.3254  0.2297 -1.2863
   70SLPC  H13A 5965   3.874   3.563  10.521 -0.7102  1.3952 -1.0521
   70SLPC  H13B 5966   3.817   3.434  10.615 -0.1683 -0.1941  1.9592
   70SLPC  H13C 5967   3.784   3.606  10.662 -0.1794 -0.3837  0.1445
   70SLPC   C14 5968   4.010   3.675  10.742  0.0448 -0.1127 -0.6002
   70SLPC  H14A 5969   4.035   3.729  10.652  1.5711 -1.5484 -1.0799
   70SLPC  H14B 5970   3.929   3.730  10.787 -0.8117  0.2124 -2.4487
   70SLPC  H14C 5971   4.105   3.686  10.793 -0.6038  1.5689  0.3609
   70SLPC   C15 5972   4.092   3.469  10.639  0.3469  0.1590 -0.4919
   70SLPC  H15A 5973   4.057   3.378  10.592  0.7302  0.3491 -1.1532
   70SLPC  H15B 5974   4.123   3.538  10.562 -1.7097  3.1244  1.1428
   70SLPC  H15C 5975   4.165   3.442  10.714 -0.0704 -0.5933 -0.3456
   70SLPC   C12 5976   3.944   3.454  10.838  0.3990  0.0906  0.1889
   70SLPC  H12A 5977   3.919   3.354  10.806  1.1181  0.3700 -1.3271
   70SLPC  H12B 5978   3.855   3.496  10.881  0.5358 -1.2985  1.9734
   70SLPC   C11 5979   4.053   3.424  10.936 -0.5363  0.3342  0.2047
   70SLPC  H11A 5980   4.009   3.382  11.029  1.1106  1.9662  1.8041
   70SLPC  H11B 5981   4.102   3.519  10.969  1.8220 -0.1396 -1.6688
   70SLPC     P 5982   4.121   3.171  10.867  0.2831  0.0120  0.0005
   70SLPC   O13 5983   4.236   3.100  10.799 -0.1028 -0.1418 -0.0021
   70SLPC   O14 5984   4.080   3.116  10.999 -0.0724 -0.6471 -0.6332
   70SLPC   O12 5985   4.142   3.328  10.885 -0.0272 -0.1612 -0.6007
   70SLPC   O11 5986   3.992   3.163  10.769  0.5410  0.4918  0.1937
   70SLPC    C1 5987   3.970   3.027  10.726  0.5752  0.0954 -0.0728
   70SLPC    HA 5988   4.062   2.972  10.696  2.1840  3.0901 -1.0332
   70SLPC    HB 5989   3.904   2.982  10.803 -0.4884  0.4509 -0.7565
   70SLPC    C2 5990   3.872   3.008  10.613 -0.3908 -0.0860  0.3075
   70SLPC    HS 5991   3.825   2.910  10.633  0.9125 -0.4879  1.6155
   70SLPC   O21 5992   3.946   3.007  10.482  0.0427  0.7425 -0.0298
   70SLPC   C21 5993   4.000   3.118  10.443 -0.1913 -0.3434 -0.1345
   70SLPC   O22 5994   3.999   3.230  10.490 -0.1482 -0.4403 -0.1708
   70SLPC   C22 5995   4.062   3.090  10.309  0.0713 -0.3827 -0.9190
   70SLPC   H2R 5996   4.113   3.187  10.289 -1.6099  1.1822  1.7370
   70SLPC   H2S 5997   4.136   3.007  10.311  0.6799  0.1342  1.4285
   70SLPC    C3 5998   3.757   3.114  10.626 -0.2688 -0.9559 -0.8915
   70SLPC    HX 5999   3.795   3.217  10.612  0.0079 -1.1998 -2.0385
   70SLPC    HY 6000   3.732   3.114  10.734  0.9590  2.5603 -0.4801
   70SLPC   O31 6001   3.643   3.082  10.548 -0.2799  0.1892  0.1203
   70SLPC   C31 6002   3.615   3.179  10.460  0.0565  0.1831  0.1063
   70SLPC   O32 6003   3.649   3.295  10.460  0.2634 -0.4595 -0.4924
   70SLPC   C32 6004   3.522   3.106  10.354  0.2999 -0.2825 -0.3106
   70SLPC   H2X 6005   3.428   3.069  10.400  0.6880 -1.8510 -0.7073
   70SLPC   H2Y 6006   3.581   3.021  10.314  0.7392  0.5339 -1.4540
   70SLPC   C23 6007   3.961   3.056  10.194 -0.4432  0.2119 -0.0489
   70SLPC   H3R 6008   3.897   2.971  10.228  0.5085  0.2162  1.8851
   70SLPC   H3S 6009   4.021   3.035  10.103 -0.8688 -1.6961  0.0584
   70SLPC   C24 6010   3.873   3.172  10.164  0.4121 -0.0294  0.1340
   70SLPC   H4R 6011   3.936   3.259  10.137 -1.3424  0.6888 -1.9244
   70SLPC   H4S 6012   3.806   3.190  10.251 -0.2384 -0.7006 -0.2183
   70SLPC   C25 6013   3.790   3.131  10.041 -1.0719  0.1332 -0.3010
   70SLPC   H5R 6014   3.737   3.228  10.025  1.2084  1.9427  2.1519
   70SLPC   H5S 6015   3.719   3.049  10.063  2.2926 -2.3371  2.2682
   70SLPC   C26 6016   3.872   3.099   9.914  1.1974  0.0770  0.8793
   70SLPC   H6R 6017   3.919   2.999   9.919 -1.0881 -1.1095 -0.3158
   70SLPC   H6S 6018   3.947   3.182   9.905  0.7722  0.4408  0.6351
   70SLPC   C27 6019   3.781   3.098   9.785  0.2435  0.7479  0.3750
   70SLPC   H7R 6020   3.735   3.198   9.769  0.6133  0.7151 -1.0100
   70SLPC   H7S 6021   3.697   3.026   9.791  0.3062  0.5741 -0.6843
   70SLPC   C28 6022   3.859   3.071   9.649  0.0691 -0.3024 -0.1517
   70SLPC   H8R 6023   3.798   3.014   9.575 -1.0237 -0.0364  0.5261
   70SLPC   H8S 6024   3.952   3.013   9.664  0.7345  0.4391 -1.3088
   70SLPC   C29 6025   3.912   3.203   9.596  0.2724 -0.3210  0.7364
   70SLPC   H9R 6026   3.945   3.270   9.677  1.8229  2.1686 -1.7790
   70SLPC  C210 6027   3.914   3.239   9.465 -0.3222 -0.1554 -0.5942
   70SLPC  H10R 6028   3.941   3.340   9.431 -0.6314  0.2609  0.3550
   70SLPC  C211 6029   3.872   3.147   9.350 -0.3495 -0.1522  0.0031
   70SLPC  H11R 6030   3.778   3.171   9.296 -1.3910 -3.9261 -0.1475
   70SLPC  H11S 6031   3.847   3.043   9.377 -0.5726 -0.1828 -0.3166
   70SLPC  C212 6032   3.983   3.132   9.251 -0.3075 -0.5866 -0.2152
   70SLPC  H12R 6033   4.075   3.092   9.297  0.9568  0.0210 -2.0821
   70SLPC  C213 6034   3.989   3.175   9.122  0.9069 -0.1404 -0.8906
   70SLPC  H13R 6035   4.076   3.146   9.061  0.3558 -0.9832 -1.3005
   70SLPC  C214 6036   3.881   3.238   9.037  0.3830 -0.2019  0.3962
   70SLPC  H14R 6037   3.786   3.270   9.085 -0.4285 -1.0778 -0.5756
   70SLPC  H14S 6038   3.838   3.166   8.964 -1.1915  1.4494 -0.3913
   70SLPC  C215 6039   3.929   3.345   8.933 -0.1304  0.0422 -0.7139
   70SLPC  H15R 6040   4.009   3.295   8.875  0.3548 -0.3193  0.2466
   70SLPC  H15S 6041   3.984   3.429   8.982  0.7290 -0.9852  0.1358
   70SLPC  C216 6042   3.821   3.406   8.840  0.2188 -0.9021 -0.1686
   70SLPC  H16R 6043   3.820   3.516   8.855  3.4132 -0.7380 -0.4744
   70SLPC  H16S 6044   3.721   3.361   8.859  0.6899 -1.7584  0.3247
   70SLPC  C217 6045   3.852   3.378   8.695  0.2155  0.1540  0.4753
   70SLPC  H17R 6046   3.837   3.269   8.682 -0.7652  0.3418 -0.0257
   70SLPC  H17S 6047   3.956   3.403   8.664  0.0715 -0.3017 -0.4231
   70SLPC  C218 6048   3.761   3.453   8.600 -0.2209 -0.1894 -0.4845
   70SLPC  H18R 6049   3.794   3.559   8.592  1.4683 -0.3518  2.6158
   70SLPC  H18S 6050   3.658   3.442   8.639 -1.0205 -1.5655 -2.8126
   70SLPC  H18T 6051   3.760   3.414   8.496 -3.2475  1.4866 -1.2020
   70SLPC   C33 6052   3.472   3.208  10.250  0.4880 -0.6759 -0.1444
   70SLPC   H3X 6053   3.554   3.243  10.184 -0.0709 -0.6725 -0.8486
   70SLPC   H3Y 6054   3.420   3.292  10.301  1.3134  0.2746 -0.8338
   70SLPC   C34 6055   3.365   3.146  10.157  1.0531  0.0449 -0.5219
   70SLPC   H4X 6056   3.302   3.217  10.099  0.3619 -1.3322 -1.5101
   70SLPC   H4Y 6057   3.304   3.088  10.230  0.2915  1.3032 -0.1104
   70SLPC   C35 6058   3.429   3.061  10.047 -0.6341  0.1290 -0.2596
   70SLPC   H5X 6059   3.498   2.994  10.103 -2.2106 -0.8831  0.5374
   70SLPC   H5Y 6060   3.488   3.125   9.978 -0.6436  1.1583  0.6593
   70SLPC   C36 6061   3.318   2.996   9.964 -0.3748  0.1628 -0.1529
   70SLPC   H6X 6062   3.232   3.063   9.940 -0.8250  0.8947  2.9771
   70SLPC   H6Y 6063   3.266   2.922  10.029  0.1416 -0.4728 -0.4530
   70SLPC   C37 6064   3.375   2.919   9.848 -0.6102 -0.1632 -0.0031
   70SLPC   H7X 6065   3.436   2.830   9.877  1.5837  1.8593  2.0103
   70SLPC   H7Y 6066   3.441   2.994   9.800 -0.1201 -1.0011 -0.6769
   70SLPC   C38 6067   3.271   2.882   9.745 -0.2526 -0.6250 -0.8333
   70SLPC   H8X 6068   3.228   2.976   9.706 -1.5329  0.1573  2.2127
   70SLPC   H8Y 6069   3.187   2.825   9.789 -1.3165  0.2853 -1.6278
   70SLPC   C39 6070   3.334   2.811   9.621 -0.2212 -0.0202 -0.4477
   70SLPC   H9X 6071   3.342   2.702   9.641  0.9910  0.0330 -0.5838
   70SLPC   H9Y 6072   3.433   2.856   9.598  0.5947 -1.2271  0.5677
   70SLPC  C310 6073   3.252   2.828   9.488  0.6494 -0.0952 -0.1491
   70SLPC  H10X 6074   3.250   2.939   9.485  2.6813 -0.0459 -0.6765
   70SLPC  H10Y 6075   3.152   2.782   9.505  0.5905 -0.2714 -0.9366
   70SLPC  C311 6076   3.309   2.767   9.358  0.2701 -0.2216 -1.4183
   70SLPC  H11X 6077   3.363   2.675   9.390 -1.8653 -1.8246 -2.2366
   70SLPC  H11Y 6078   3.372   2.854   9.330  0.9779 -0.0577  0.4992
   70SLPC  C312 6079   3.207   2.729   9.251  0.0097  1.0833 -0.9848
   70SLPC  H12X 6080   3.150   2.819   9.220 -0.5996 -0.1778 -3.7859
   70SLPC  H12Y 6081   3.141   2.655   9.303  2.1374  0.0576  0.4011
   70SLPC  C313 6082   3.276   2.662   9.138 -0.6709  0.5327  0.7638
   70SLPC  H13X 6083   3.345   2.580   9.168 -1.1133  0.5209  1.7915
   70SLPC  H13Y 6084   3.331   2.741   9.082 -0.0363  0.7933  1.7258
   70SLPC  C314 6085   3.181   2.585   9.047 -0.3543  0.5494  0.0581
   70SLPC  H14X 6086   3.097   2.646   9.009  0.9483  1.2387 -1.8623
   70SLPC  H14Y 6087   3.147   2.495   9.104  3.5876 -0.8265  0.6203
   70SLPC  C315 6088   3.267   2.530   8.929 -0.0256  0.3319  0.2633
   70SLPC  H15X 6089   3.330   2.449   8.970 -0.3019  0.3877  0.8127
   70SLPC  H15Y 6090   3.338   2.604   8.886  1.1435 -2.0095 -2.1229
   70SLPC  C316 6091   3.195   2.466   8.810  0.4008 -0.5379 -0.3007
   70SLPC  H16X 6092   3.130   2.540   8.757  2.9572  1.2786 -1.0554
   70SLPC  H16Y 6093   3.123   2.385   8.834 -0.3316  0.2104  0.0945
   70SLPC  C317 6094   3.290   2.396   8.713 -0.2840 -0.3722  0.3053
   70SLPC  H17X 6095   3.236   2.342   8.632 -2.2267  1.1024  0.5325
   70SLPC  H17Y 6096   3.330   2.318   8.781  0.6644  1.0832  1.4803
   70SLPC  C318 6097   3.396   2.488   8.658  0.2668 -0.5186  0.4971
   70SLPC  H18X 6098   3.349   2.589   8.653 -1.7858 -1.4818 -1.1437
   70SLPC  H18Y 6099   3.436   2.455   8.560  1.6710 -0.7356  1.1231
   70SLPC  H18Z 6100   3.485   2.504   8.722  1.6792  3.1745 -2.0452
   71SLPC     N 6101   4.242   1.448  10.580 -0.1829 -0.4131  0.2449
   71SLPC   C13 6102   4.357   1.490  10.672  0.3506  0.4182 -0.1541
   71SLPC  H13A 6103   4.330   1.547  10.759 -0.2604 -1.1931  0.7683
   71SLPC  H13B 6104   4.413   1.405  10.710  1.8475  0.4329 -2.1870
   71SLPC  H13C 6105   4.438   1.541  10.623  2.2087 -2.2767 -0.1423
   71SLPC   C14 6106   4.219   1.563  10.489  0.1373  0.3384  0.5702
   71SLPC  H14A 6107   4.306   1.584  10.429 -0.3341  0.6800 -0.0064
   71SLPC  H14B 6108   4.141   1.540  10.419  1.0563  0.3266 -0.4796
   71SLPC  H14C 6109   4.192   1.650  10.548  0.2076  1.6115 -1.1991
   71SLPC   C15 6110   4.127   1.407  10.665  0.0747 -0.5338 -0.9272
   71SLPC  H15A 6111   4.106   1.480  10.742  2.5564  0.0963 -0.7640
   71SLPC  H15B 6112   4.038   1.400  10.604 -0.8973 -2.7910  0.6128
   71SLPC  H15C 6113   4.144   1.310  10.708  3.0565  0.8837  1.4794
   71SLPC   C12 6114   4.278   1.326  10.499  0.3552  0.1245  0.0265
   71SLPC  H12A 6115   4.310   1.246  10.564  2.4275  2.5184  2.1701
   71SLPC  H12B 6116   4.368   1.335  10.440  0.0061  0.1909 -0.5021
   71SLPC   C11 6117   4.184   1.271  10.385  0.0446  0.0377 -0.0748
   71SLPC  H11A 6118   4.229   1.177  10.345  0.2438  0.6659 -1.3656
   71SLPC  H11B 6119   4.191   1.352  10.310  0.9073  2.6413  2.6293
   71SLPC     P 6120   3.974   1.128  10.434  0.2580  0.1272 -0.2476
   71SLPC   O13 6121   4.071   1.048  10.505 -0.1385  0.8500  0.1165
   71SLPC   O14 6122   3.843   1.137  10.509  0.3093  0.1454 -0.0303
   71SLPC   O12 6123   4.042   1.271  10.427  0.1087 -0.1730  0.0360
   71SLPC   O11 6124   3.955   1.087  10.280 -0.4721  0.2563  0.1139
   71SLPC    C1 6125   3.914   1.175  10.177  0.8356  1.0127  0.3569
   71SLPC    HA 6126   3.970   1.270  10.165 -0.6721  1.5857 -4.0901
   71SLPC    HB 6127   3.919   1.109  10.088 -1.9314 -1.2922  1.7277
   71SLPC    C2 6128   3.767   1.216  10.192 -0.5940 -0.0294 -0.0433
   71SLPC    HS 6129   3.752   1.269  10.288  0.1883 -2.9117  1.7785
   71SLPC   O21 6130   3.691   1.091  10.186  0.7348 -0.3847 -0.2606
   71SLPC   C21 6131   3.558   1.113  10.199  0.6117  0.5450  0.5666
   71SLPC   O22 6132   3.503   1.213  10.225 -0.3745  0.5013 -0.0658
   71SLPC   C22 6133   3.489   0.977  10.176 -0.6239 -0.3265  0.1011
   71SLPC   H2R 6134   3.572   0.906  10.160  0.5518  0.9410  0.3359
   71SLPC   H2S 6135   3.450   0.950  10.277 -0.6825 -1.5202 -0.2318
   71SLPC    C3 6136   3.732   1.305  10.072  0.2535 -0.1950 -0.1132
   71SLPC    HX 6137   3.790   1.397  10.095 -0.8345  0.1010  1.6977
   71SLPC    HY 6138   3.629   1.347  10.078  0.0881 -0.3224 -1.6494
   71SLPC   O31 6139   3.745   1.257   9.939 -0.6732 -0.3510 -0.0356
   71SLPC   C31 6140   3.847   1.308   9.864 -0.3163  0.5374  0.3540
   71SLPC   O32 6141   3.941   1.374   9.908 -0.3098  0.6675 -0.2700
   71SLPC   C32 6142   3.831   1.234   9.728 -0.3302  0.2046 -0.3177
   71SLPC   H2X 6143   3.722   1.213   9.721 -0.6465  1.1957  1.0635
   71SLPC   H2Y 6144   3.892   1.141   9.720  1.1835  1.2087 -0.8137
   71SLPC   C23 6145   3.395   0.978  10.054 -0.2187 -0.1732  0.2719
   71SLPC   H3R 6146   3.310   1.047  10.069 -0.5150 -0.3115 -0.6467
   71SLPC   H3S 6147   3.347   0.878  10.044  1.3836 -0.8145 -1.8397
   71SLPC   C24 6148   3.471   0.997   9.920  0.5741  0.8964  0.3310
   71SLPC   H4R 6149   3.572   0.958   9.940 -0.6984 -2.1753  1.3346
   71SLPC   H4S 6150   3.466   1.104   9.891  0.7689  0.5957 -0.8435
   71SLPC   C25 6151   3.404   0.930   9.794 -0.0121  0.2823  0.1613
   71SLPC   H5R 6152   3.312   0.984   9.765 -0.3681 -0.8229 -0.8486
   71SLPC   H5S 6153   3.369   0.827   9.813 -0.6994  0.0824 -1.9564
   71SLPC   C26 6154   3.518   0.929   9.679  0.8060 -0.5369 -0.0042
   71SLPC   H6R 6155   3.606   0.867   9.707  0.9854  0.7359  2.5767
   71SLPC   H6S 6156   3.544   1.037   9.675  0.6805 -0.4568  0.9418
   71SLPC   C27 6157   3.465   0.869   9.546  0.4375  1.1516  0.7680
   71SLPC   H7R 6158   3.354   0.873   9.551  0.4203  0.2184  1.2410
   71SLPC   H7S 6159   3.488   0.761   9.543  0.4403  1.1612 -0.9854
   71SLPC   C28 6160   3.517   0.951   9.425  0.1403 -0.2029  0.0452
   71SLPC   H8R 6161   3.623   0.981   9.438 -0.0359  0.4834 -0.0451
   71SLPC   H8S 6162   3.453   1.041   9.428 -0.4099 -0.5976  0.2840
   71SLPC   C29 6163   3.498   0.883   9.292  0.0849 -0.0521 -0.2962
   71SLPC   H9R 6164   3.535   0.779   9.295 -0.1638 -0.1385 -0.1978
   71SLPC  C210 6165   3.435   0.927   9.182  0.9264 -0.7197 -0.1391
   71SLPC  H10R 6166   3.430   0.856   9.098  3.0214 -3.0003  1.5395
   71SLPC  C211 6167   3.355   1.061   9.174  0.2795 -0.3782  0.0329
   71SLPC  H11R 6168   3.306   1.072   9.273  1.3584  0.2960  0.5022
   71SLPC  H11S 6169   3.270   1.057   9.102  0.0772  1.3874  0.1252
   71SLPC  C212 6170   3.450   1.180   9.151  0.5101 -0.1124 -0.7198
   71SLPC  H12R 6171   3.506   1.203   9.243 -1.5200 -1.4387  0.9520
   71SLPC  C213 6172   3.474   1.254   9.034 -0.4882  0.0675  0.0376
   71SLPC  H13R 6173   3.536   1.345   9.037 -0.4457  0.0341  0.1724
   71SLPC  C214 6174   3.408   1.217   8.903  0.2904  0.1343 -0.4427
   71SLPC  H14R 6175   3.331   1.291   8.871 -0.6320 -1.3349 -1.7056
   71SLPC  H14S 6176   3.350   1.123   8.911  0.4199  0.0803 -0.0897
   71SLPC  C215 6177   3.491   1.189   8.783  0.1571  0.2374  0.2503
   71SLPC  H15R 6178   3.432   1.147   8.700 -0.6366  0.5525  0.6424
   71SLPC  H15S 6179   3.581   1.126   8.803 -0.0069  0.1007  0.5698
   71SLPC  C216 6180   3.547   1.326   8.731  0.3316  0.6821 -0.4006
   71SLPC  H16R 6181   3.611   1.380   8.803  0.0794  0.5862 -0.1015
   71SLPC  H16S 6182   3.458   1.394   8.727 -0.3233 -0.1358 -0.0163
   71SLPC  C217 6183   3.617   1.321   8.600 -0.0742 -0.5637  0.3966
   71SLPC  H17R 6184   3.556   1.273   8.519  0.2058 -0.5942  0.2024
   71SLPC  H17S 6185   3.704   1.253   8.615 -0.5964 -1.2090  0.5920
   71SLPC  C218 6186   3.667   1.461   8.554 -0.2665 -0.0178  0.0736
   71SLPC  H18R 6187   3.730   1.437   8.466  0.3985 -0.1135  0.5666
   71SLPC  H18S 6188   3.721   1.523   8.629 -1.3132 -0.3466  1.1299
   71SLPC  H18T 6189   3.581   1.525   8.526  1.0176  2.1004  0.7227
   71SLPC   C33 6190   3.879   1.326   9.614  0.1839 -0.6559 -0.6761
   71SLPC   H3X 6191   3.984   1.355   9.632  0.3339  1.2670 -3.8424
   71SLPC   H3Y 6192   3.812   1.414   9.624 -0.5257 -1.3218  0.6823
   71SLPC   C34 6193   3.856   1.261   9.475 -0.1158  0.9068 -0.4130
   71SLPC   H4X 6194   3.748   1.234   9.475  0.0102  0.3816 -0.0686
   71SLPC   H4Y 6195   3.915   1.167   9.476 -0.2131  0.8325  1.4061
   71SLPC   C35 6196   3.905   1.356   9.372 -0.0863 -0.0328 -0.2853
   71SLPC   H5X 6197   4.010   1.388   9.382  0.2488 -1.3564  0.7415
   71SLPC   H5Y 6198   3.846   1.449   9.386  0.6221  0.4521 -0.5396
   71SLPC   C36 6199   3.889   1.301   9.225  0.6255 -0.1491  0.3430
   71SLPC   H6X 6200   3.783   1.287   9.195  1.3335 -2.0804 -1.5100
   71SLPC   H6Y 6201   3.947   1.207   9.216  1.7531  0.6656 -1.4477
   71SLPC   C37 6202   3.953   1.393   9.126  0.4393 -0.6516  0.7472
   71SLPC   H7X 6203   4.063   1.376   9.130  0.3498 -2.0486 -1.2276
   71SLPC   H7Y 6204   3.924   1.499   9.143 -0.8159 -1.0819  1.3684
   71SLPC   C38 6205   3.898   1.367   8.984  0.2365  0.7599  0.4985
   71SLPC   H8X 6206   3.788   1.357   8.992  0.3159  0.2208  0.9069
   71SLPC   H8Y 6207   3.935   1.271   8.941 -1.1089 -0.4551  1.9395
   71SLPC   C39 6208   3.935   1.484   8.890  0.8354  0.7575 -0.1671
   71SLPC   H9X 6209   3.999   1.557   8.943  3.0851 -0.4947 -1.0566
   71SLPC   H9Y 6210   3.841   1.536   8.863  0.1039 -0.2900  0.2438
   71SLPC  C310 6211   3.989   1.419   8.761 -0.7454 -0.6520 -0.1642
   71SLPC  H10X 6212   3.908   1.348   8.736 -1.2415 -0.7583  1.5758
   71SLPC  H10Y 6213   4.082   1.365   8.789  2.0402  3.5998 -0.2176
   71SLPC  C311 6214   4.040   1.520   8.663 -0.1511 -0.8509  0.7477
   71SLPC  H11X 6215   4.133   1.570   8.697 -0.6855 -1.2779  3.0155
   71SLPC  H11Y 6216   3.957   1.593   8.655 -0.3611 -1.2221 -1.0027
   71SLPC  C312 6217   4.089   1.463   8.529  0.3024 -0.3189  0.1884
   71SLPC  H12X 6218   4.005   1.399   8.493 -1.0235  0.1859  2.2290
   71SLPC  H12Y 6219   4.182   1.409   8.556  0.8668  0.0895 -0.8785
   71SLPC  C313 6220   4.132   1.569   8.428 -0.2544 -0.2877 -0.5051
   71SLPC  H13X 6221   4.221   1.626   8.464 -0.6452  0.5650 -0.8594
   71SLPC  H13Y 6222   4.052   1.645   8.420  0.4436  0.5440  0.2577
   71SLPC  C314 6223   4.148   1.527   8.276  0.2323  1.0596 -0.2659
   71SLPC  H14X 6224   4.176   1.620   8.222  0.8918 -0.5853 -2.9379
   71SLPC  H14Y 6225   4.057   1.480   8.234  0.4896  1.5833 -1.4562
   71SLPC  C315 6226   4.260   1.419   8.270  0.0332 -1.1462 -0.2120
   71SLPC  H15X 6227   4.230   1.344   8.346 -0.5458  0.8392  1.6079
   71SLPC  H15Y 6228   4.352   1.473   8.302 -0.2207 -1.3049  0.7987
   71SLPC  C316 6229   4.282   1.359   8.132 -0.7064  0.3540  0.8116
   71SLPC  H16X 6230   4.222   1.397   8.046  1.5108 -1.3102 -1.6229
   71SLPC  H16Y 6231   4.276   1.249   8.125 -1.1397  0.4528 -3.9539
   71SLPC  C317 6232   4.425   1.391   8.078 -0.2476  0.2675  0.7003
   71SLPC  H17X 6233   4.505   1.353   8.144 -1.2007  2.3826  3.2504
   71SLPC  H17Y 6234   4.439   1.501   8.072 -0.2814  0.1877 -2.5109
   71SLPC  C318 6235   4.437   1.338   7.941  0.3772 -0.2678  0.5810
   71SLPC  H18X 6236   4.371   1.392   7.870  1.6670 -1.2527 -1.4650
   71SLPC  H18Y 6237   4.396   1.235   7.930  0.8329 -0.3531 -0.4187
   71SLPC  H18Z 6238   4.539   1.335   7.898  0.0743  0.4178 -0.1942
   72SLPC     N 6239   3.473   0.747  10.836 -0.1709  0.1773  1.0859
   72SLPC   C13 6240   3.528   0.882  10.864 -0.1904  0.1581  0.1210
   72SLPC  H13A 6241   3.621   0.897  10.811  0.2960 -0.2180  0.8561
   72SLPC  H13B 6242   3.467   0.969  10.843  1.6680  1.7078  0.8973
   72SLPC  H13C 6243   3.565   0.902  10.963 -0.2018  2.9338 -0.3500
   72SLPC   C14 6244   3.344   0.727  10.906 -0.7034  0.3186  0.2598
   72SLPC  H14A 6245   3.310   0.625  10.894  0.6883 -0.2804  1.0646
   72SLPC  H14B 6246   3.354   0.737  11.013  1.5503  0.6535  0.0788
   72SLPC  H14C 6247   3.271   0.797  10.868  0.7408  2.0055  0.4465
   72SLPC   C15 6248   3.575   0.645  10.875  0.3521  0.3322 -0.1824
   72SLPC  H15A 6249   3.673   0.661  10.833  0.8018 -0.0899  0.6911
   72SLPC  H15B 6250   3.591   0.644  10.981  1.6170  1.0348 -0.3430
   72SLPC  H15C 6251   3.532   0.553  10.838  2.5007  0.3710 -3.1894
   72SLPC   C12 6252   3.444   0.730  10.686 -0.7209 -0.1841 -0.1466
   72SLPC  H12A 6253   3.536   0.741  10.631 -1.0554  0.9631 -0.5038
   72SLPC  H12B 6254   3.382   0.814  10.658 -0.2803  0.8479  1.8083
   72SLPC   C11 6255   3.373   0.594  10.640 -0.0425 -0.0906 -0.7234
   72SLPC  H11A 6256   3.372   0.605  10.530 -1.5262  0.3005 -0.6950
   72SLPC  H11B 6257   3.271   0.586  10.682  1.6547 -0.4051  3.9581
   72SLPC     P 6258   3.394   0.353  10.730  0.0005  0.1678 -0.2040
   72SLPC   O13 6259   3.513   0.281  10.778  0.2936 -0.1311 -0.6588
   72SLPC   O14 6260   3.295   0.386  10.838 -0.3362 -0.7667 -0.5087
   72SLPC   O12 6261   3.457   0.484  10.667  0.7003 -0.0457  0.8127
   72SLPC   O11 6262   3.315   0.271  10.617 -0.5493  0.6144 -0.2445
   72SLPC    C1 6263   3.380   0.160  10.552 -0.0265 -0.3191  0.1229
   72SLPC    HA 6264   3.450   0.103  10.618  0.2982 -2.7627 -2.1530
   72SLPC    HB 6265   3.302   0.087  10.521  1.9133 -2.4248 -0.0863
   72SLPC    C2 6266   3.458   0.204  10.427 -0.2649  0.0335 -0.3525
   72SLPC    HS 6267   3.557   0.237  10.465  0.9231 -1.4402 -2.0248
   72SLPC   O21 6268   3.388   0.302  10.347  0.6746 -0.4813 -0.7359
   72SLPC   C21 6269   3.458   0.415  10.333 -1.3474 -0.1540 -0.5690
   72SLPC   O22 6270   3.579   0.429  10.355  0.3819 -0.0152  0.3903
   72SLPC   C22 6271   3.356   0.515  10.270 -0.1533  0.2903 -0.4614
   72SLPC   H2R 6272   3.256   0.472  10.294  0.2959  0.0834  1.1564
   72SLPC   H2S 6273   3.359   0.611  10.325  1.0116 -0.4539  0.8637
   72SLPC    C3 6274   3.485   0.077  10.341 -0.3891  0.4778 -0.2523
   72SLPC    HX 6275   3.386   0.030  10.330 -0.2558 -0.8535  3.0642
   72SLPC    HY 6276   3.549   0.016  10.408  0.3581  0.0490 -1.3310
   72SLPC   O31 6277   3.565   0.101  10.224  0.0659 -0.2203 -0.8314
   72SLPC   C31 6278   3.554   0.003  10.139 -0.2375  0.3778  0.1497
   72SLPC   O32 6279   3.492  -0.100  10.153 -0.1756  0.3536 -0.3140
   72SLPC   C32 6280   3.627   0.038  10.013 -0.0385 -0.3024 -0.1777
   72SLPC   H2X 6281   3.734   0.042  10.043 -0.3306  1.8916  0.8009
   72SLPC   H2Y 6282   3.602   0.144   9.991  1.3614  0.3101  1.0203
   72SLPC   C23 6283   3.383   0.540  10.122 -0.5253  0.0014  0.1147
   72SLPC   H3R 6284   3.321   0.623  10.082  2.0571  1.2713 -1.6050
   72SLPC   H3S 6285   3.359   0.448  10.065 -0.3998  0.6606 -1.0291
   72SLPC   C24 6286   3.531   0.583  10.107  0.0155  0.3835 -0.6424
   72SLPC   H4R 6287   3.589   0.489  10.119  1.1399  1.2339  1.0466
   72SLPC   H4S 6288   3.559   0.652  10.189  2.9242 -1.1289 -0.2496
   72SLPC   C25 6289   3.568   0.623   9.963 -0.0483 -0.0029 -0.0019
   72SLPC   H5R 6290   3.676   0.603   9.951 -0.3637 -1.9484  0.0751
   72SLPC   H5S 6291   3.549   0.730   9.939  1.8725  0.5039  0.5974
   72SLPC   C26 6292   3.512   0.535   9.849  0.6372  0.9588  0.3307
   72SLPC   H6R 6293   3.423   0.586   9.807 -0.1515 -0.3620  0.3319
   72SLPC   H6S 6294   3.498   0.429   9.880 -0.7350  1.0772  0.1779
   72SLPC   C27 6295   3.617   0.506   9.735  0.4127 -0.4211  0.1687
   72SLPC   H7R 6296   3.710   0.465   9.780 -0.2208 -1.0145  0.9888
   72SLPC   H7S 6297   3.647   0.600   9.684 -0.3236  0.3273  1.0905
   72SLPC   C28 6298   3.575   0.415   9.617 -0.1808  0.3238 -0.5182
   72SLPC   H8R 6299   3.485   0.446   9.560 -1.8392  0.2706  1.9101
   72SLPC   H8S 6300   3.539   0.316   9.652 -0.7755  0.0586 -1.8377
   72SLPC   C29 6301   3.690   0.395   9.521 -0.2543 -0.0024 -0.4586
   72SLPC   H9R 6302   3.778   0.337   9.553 -0.5510 -0.6637 -0.8124
   72SLPC  C210 6303   3.697   0.442   9.392 -0.4880 -0.3922 -0.3832
   72SLPC  H10R 6304   3.789   0.419   9.337  1.3462 -0.7266  2.5649
   72SLPC  C211 6305   3.584   0.518   9.321 -0.7985  0.3545  0.2528
   72SLPC  H11R 6306   3.627   0.606   9.268 -1.9548 -0.3702 -2.0228
   72SLPC  H11S 6307   3.529   0.573   9.400  1.7053  1.6658  1.2066
   72SLPC  C212 6308   3.491   0.448   9.226 -0.2835  0.7252  0.4352
   72SLPC  H12R 6309   3.435   0.367   9.274  0.5849  0.3912  0.9176
   72SLPC  C213 6310   3.483   0.455   9.092  0.4581  0.7015 -0.2207
   72SLPC  H13R 6311   3.406   0.393   9.044  1.3142 -1.1136  0.6107
   72SLPC  C214 6312   3.556   0.556   9.010  0.2593 -0.1091  0.8833
   72SLPC  H14R 6313   3.656   0.573   9.056  0.0978  0.3289  1.0833
   72SLPC  H14S 6314   3.503   0.653   9.011 -0.2135 -0.3613  0.6455
   72SLPC  C215 6315   3.573   0.525   8.863  0.2355 -0.3057 -0.3600
   72SLPC  H15R 6316   3.472   0.500   8.824  0.2927 -3.5556  1.2181
   72SLPC  H15S 6317   3.626   0.428   8.852 -1.8985 -1.6805  0.8379
   72SLPC  C216 6318   3.662   0.627   8.790  0.7352  0.1296  0.1193
   72SLPC  H16R 6319   3.764   0.622   8.834  0.5054  1.2674  0.8180
   72SLPC  H16S 6320   3.630   0.733   8.802 -1.3042 -0.6000  1.7604
   72SLPC  C217 6321   3.649   0.594   8.642  0.2117 -0.4429 -0.1594
   72SLPC  H17R 6322   3.640   0.484   8.634  0.9783 -0.3996 -2.4640
   72SLPC  H17S 6323   3.735   0.641   8.588 -0.9773  0.9752 -0.8865
   72SLPC  C218 6324   3.518   0.645   8.577  0.0764 -0.0689  0.5168
   72SLPC  H18R 6325   3.533   0.751   8.547 -0.0006 -0.2742 -0.2691
   72SLPC  H18S 6326   3.432   0.647   8.647 -0.3156 -2.6831  0.2263
   72SLPC  H18T 6327   3.487   0.587   8.488 -0.5864  1.2009 -0.1054
   72SLPC   C33 6328   3.604  -0.054   9.891 -0.3960 -1.0465  0.1757
   72SLPC   H3X 6329   3.500  -0.024   9.866  0.0588  0.6417  0.1946
   72SLPC   H3Y 6330   3.622  -0.161   9.917  2.4772 -1.0231 -1.2591
   72SLPC   C34 6331   3.694  -0.029   9.764  0.5000  0.1853 -0.3270
   72SLPC   H4X 6332   3.802  -0.044   9.783  0.2391 -0.1322  1.0418
   72SLPC   H4Y 6333   3.673   0.077   9.735 -2.1365 -0.1043  0.2767
   72SLPC   C35 6334   3.648  -0.100   9.635  0.2598  0.6175  0.2092
   72SLPC   H5X 6335   3.543  -0.087   9.602  0.9262  0.6942 -2.0398
   72SLPC   H5Y 6336   3.655  -0.208   9.661 -1.6940  0.9596  2.4711
   72SLPC   C36 6337   3.752  -0.073   9.516  0.0053  0.4493 -0.0990
   72SLPC   H6X 6338   3.840  -0.136   9.543 -0.0615 -1.2817 -3.3551
   72SLPC   H6Y 6339   3.764   0.036   9.503 -1.6166  0.5735 -0.8363
   72SLPC   C37 6340   3.703  -0.124   9.378 -0.5131  1.0730  0.2465
   72SLPC   H7X 6341   3.597  -0.102   9.356 -0.9988 -0.1697  1.2396
   72SLPC   H7Y 6342   3.708  -0.233   9.394  0.0518  1.0527 -0.0354
   72SLPC   C38 6343   3.792  -0.081   9.264 -0.3870 -1.1839 -0.0988
   72SLPC   H8X 6344   3.786  -0.150   9.176  0.3397 -3.0824  1.2827
   72SLPC   H8Y 6345   3.900  -0.085   9.288 -0.8435 -1.0295  2.2030
   72SLPC   C39 6346   3.767   0.071   9.220 -0.5189  0.4154  0.1565
   72SLPC   H9X 6347   3.795   0.136   9.306  0.5079  1.6276 -1.0377
   72SLPC   H9Y 6348   3.658   0.089   9.210 -0.9983 -1.7415  1.0261
   72SLPC  C310 6349   3.837   0.100   9.084 -0.8955  0.0049  0.9091
   72SLPC  H10X 6350   3.782   0.063   8.995 -0.5380 -0.1516  0.7528
   72SLPC  H10Y 6351   3.932   0.043   9.081 -1.4454 -0.8935 -0.6280
   72SLPC  C311 6352   3.882   0.253   9.079 -0.6345  0.0045 -0.1765
   72SLPC  H11X 6353   3.976   0.261   9.138 -1.9659  3.6129  1.7746
   72SLPC  H11Y 6354   3.796   0.307   9.123  0.7421  0.6797  1.8591
   72SLPC  C312 6355   3.904   0.296   8.933  0.5156 -0.7567  0.4101
   72SLPC  H12X 6356   3.891   0.406   8.924 -1.3957 -0.6076  3.5726
   72SLPC  H12Y 6357   3.828   0.241   8.871 -0.4819  2.4496 -1.4606
   72SLPC  C313 6358   4.030   0.246   8.860 -0.2286 -0.0137  0.9732
   72SLPC  H13X 6359   4.037   0.136   8.867  0.7060 -0.0303  0.0344
   72SLPC  H13Y 6360   4.125   0.276   8.909 -0.7833  1.7847  1.0361
   72SLPC  C314 6361   4.045   0.285   8.705 -0.2427 -0.4734 -0.1119
   72SLPC  H14X 6362   3.967   0.238   8.642 -1.8449  2.0324 -0.1352
   72SLPC  H14Y 6363   4.147   0.258   8.670 -0.9061 -0.8322 -1.8841
   72SLPC  C315 6364   4.024   0.438   8.668 -0.3490  0.2066  0.5703
   72SLPC  H15X 6365   4.085   0.497   8.739 -0.9933  0.9931  0.4856
   72SLPC  H15Y 6366   3.920   0.477   8.671  0.0360  1.2157  1.5878
   72SLPC  C316 6367   4.074   0.471   8.529  0.7781 -0.1899 -0.9256
   72SLPC  H16X 6368   4.061   0.386   8.458 -0.2601 -1.9317  1.2311
   72SLPC  H16Y 6369   4.181   0.502   8.531  0.8417 -0.1522 -2.8212
   72SLPC  C317 6370   4.000   0.590   8.466 -0.2534 -0.2690 -0.2415
   72SLPC  H17X 6371   4.010   0.675   8.536 -2.0709 -1.0448  1.0444
   72SLPC  H17Y 6372   3.892   0.569   8.481  0.1338 -1.5967  0.9548
   72SLPC  C318 6373   4.034   0.620   8.322  0.3270 -0.2904  0.0933
   72SLPC  H18X 6374   4.140   0.649   8.306  0.3358  0.0907  0.7787
   72SLPC  H18Y 6375   3.974   0.704   8.280  1.0927  0.7968  1.1058
   72SLPC  H18Z 6376   4.011   0.540   8.249 -2.1080  0.9652 -0.6465
   73SLPC     N 6377   2.944   1.288  10.978  0.1781  0.2939  0.6549
   73SLPC   C13 6378   2.873   1.404  11.040 -0.1037  0.2397  0.4204
   73SLPC  H13A 6379   2.896   1.408  11.145  2.1111  0.1063  0.0098
   73SLPC  H13B 6380   2.911   1.492  10.990  1.7510 -0.8138 -0.1617
   73SLPC  H13C 6381   2.766   1.411  11.032  0.0802  2.7355 -0.5793
   73SLPC   C14 6382   2.907   1.159  11.049  0.7180 -0.5969 -0.1669
   73SLPC  H14A 6383   2.813   1.118  11.014 -0.0319  0.6459  0.3430
   73SLPC  H14B 6384   2.982   1.084  11.028 -1.0943 -2.7909  0.7832
   73SLPC  H14C 6385   2.897   1.167  11.156 -0.2365  1.0345 -0.3522
   73SLPC   C15 6386   3.094   1.317  11.002  0.4834 -0.2798  0.2981
   73SLPC  H15A 6387   3.125   1.285  11.100 -1.7246  1.1922  1.5552
   73SLPC  H15B 6388   3.148   1.258  10.929  1.5954  0.4630  0.5022
   73SLPC  H15C 6389   3.119   1.421  10.991 -0.3730 -0.0757  0.1836
   73SLPC   C12 6390   2.899   1.280  10.834 -0.5747  0.8512  0.3488
   73SLPC  H12A 6391   2.938   1.366  10.780  2.5775 -1.8296 -2.0637
   73SLPC  H12B 6392   2.792   1.295  10.833 -0.6884  0.3565 -1.8827
   73SLPC   C11 6393   2.935   1.153  10.747 -0.0150 -0.3422 -0.4068
   73SLPC  H11A 6394   2.896   1.177  10.646  1.2430  1.1456 -0.5796
   73SLPC  H11B 6395   2.887   1.061  10.787  2.3084 -3.2870 -3.8527
   73SLPC     P 6396   3.168   1.026  10.798  0.2115  0.0209  0.1327
   73SLPC   O13 6397   3.284   1.079  10.858 -0.6646 -0.3787 -0.0840
   73SLPC   O14 6398   3.087   0.944  10.888  0.1346 -0.1771 -0.3094
   73SLPC   O12 6399   3.085   1.146  10.737 -0.2469 -0.9023 -0.0531
   73SLPC   O11 6400   3.203   0.937  10.675 -0.2377  0.8717 -0.1447
   73SLPC    C1 6401   3.211   0.975  10.541 -0.4331  0.3928  0.0254
   73SLPC    HA 6402   3.249   1.078  10.523 -3.8226  1.3438 -2.8382
   73SLPC    HB 6403   3.270   0.897  10.486  0.0608 -0.7068  2.0327
   73SLPC    C2 6404   3.077   0.953  10.468 -0.4493 -0.4353 -0.1148
   73SLPC    HS 6405   3.009   1.024  10.520 -0.2003  0.3854 -0.8829
   73SLPC   O21 6406   3.046   0.816  10.469  0.1152 -0.6457 -0.0657
   73SLPC   C21 6407   2.923   0.795  10.510  0.3630  0.0848  0.2541
   73SLPC   O22 6408   2.832   0.877  10.513  0.0562 -0.0609 -0.3633
   73SLPC   C22 6409   2.899   0.639  10.531  0.1557  0.2690 -0.5856
   73SLPC   H2R 6410   2.999   0.593  10.547 -0.5113 -1.1940 -0.4052
   73SLPC   H2S 6411   2.839   0.627  10.623 -2.3566 -0.3464 -2.2085
   73SLPC    C3 6412   3.071   1.000  10.318 -0.1602  0.5169 -0.4304
   73SLPC    HX 6413   2.965   1.000  10.284  0.0901  1.6051 -1.2616
   73SLPC    HY 6414   3.135   0.930  10.260  1.0647 -1.4120  2.9786
   73SLPC   O31 6415   3.136   1.123  10.300 -0.2255 -0.0240  0.0244
   73SLPC   C31 6416   3.073   1.240  10.318 -0.3824 -0.2908  0.4141
   73SLPC   O32 6417   2.959   1.254  10.364 -0.1127  0.3412 -0.0425
   73SLPC   C32 6418   3.167   1.355  10.281  0.3032  0.1594  0.2032
   73SLPC   H2X 6419   3.252   1.349  10.352  1.3340  1.2846 -0.8842
   73SLPC   H2Y 6420   3.098   1.441  10.294 -0.1582 -0.3437  1.1238
   73SLPC   C23 6421   2.845   0.576  10.397  0.1898  0.1601 -0.3646
   73SLPC   H3R 6422   2.743   0.612  10.369 -0.3323 -0.4428  0.6951
   73SLPC   H3S 6423   2.841   0.467  10.420 -2.6967  0.8585  3.4426
   73SLPC   C24 6424   2.938   0.584  10.282  0.0363 -0.4729  0.5531
   73SLPC   H4R 6425   3.033   0.530  10.303  1.4346  1.3769 -0.6693
   73SLPC   H4S 6426   2.967   0.690  10.265 -0.1468 -0.5682 -0.4337
   73SLPC   C25 6427   2.867   0.530  10.159  0.2391  0.0316 -0.5037
   73SLPC   H5R 6428   2.765   0.572  10.154 -0.3056 -1.3598 -1.7524
   73SLPC   H5S 6429   2.844   0.424  10.181  0.4319  0.1613  0.3632
   73SLPC   C26 6430   2.953   0.551  10.030  0.1483  0.6693  0.3108
   73SLPC   H6R 6431   3.040   0.482  10.036 -1.8509 -2.2074 -1.7296
   73SLPC   H6S 6432   2.989   0.656  10.020  2.1052 -0.0353 -0.5618
   73SLPC   C27 6433   2.877   0.512   9.903 -0.1535 -0.0218  0.4200
   73SLPC   H7R 6434   2.770   0.539   9.917  0.1834  0.3552  2.6253
   73SLPC   H7S 6435   2.876   0.403   9.884  0.9301 -0.2054  1.2966
   73SLPC   C28 6436   2.927   0.577   9.770 -0.2929  0.5311 -0.8586
   73SLPC   H8R 6437   2.952   0.684   9.786 -1.4469  0.7112 -0.1440
   73SLPC   H8S 6438   2.849   0.566   9.692 -0.2248  0.0011 -0.8588
   73SLPC   C29 6439   3.049   0.498   9.728  0.1501  0.1176  0.3997
   73SLPC   H9R 6440   3.111   0.461   9.811 -0.8485  1.4009  1.7617
   73SLPC  C210 6441   3.083   0.448   9.607 -0.2248 -0.2485 -0.1759
   73SLPC  H10R 6442   3.172   0.384   9.595 -0.7312 -0.6421 -2.1189
   73SLPC  C211 6443   3.010   0.469   9.477 -0.0635  0.1286 -0.3870
   73SLPC  H11R 6444   2.909   0.423   9.471  0.3222 -0.6432 -1.2376
   73SLPC  H11S 6445   3.062   0.403   9.404  2.1402 -0.5960  1.7218
   73SLPC  C212 6446   3.020   0.610   9.430  0.1690  0.0302 -0.4892
   73SLPC  H12R 6447   3.091   0.680   9.476 -0.0609 -0.7141  1.0681
   73SLPC  C213 6448   2.947   0.646   9.323 -0.4309  0.5060 -0.8863
   73SLPC  H13R 6449   2.965   0.750   9.292  0.5187 -0.0370 -2.2755
   73SLPC  C214 6450   2.845   0.577   9.236  0.7384 -0.3181 -0.3000
   73SLPC  H14R 6451   2.760   0.647   9.231  1.0655 -0.0045 -2.5255
   73SLPC  H14S 6452   2.814   0.475   9.270  2.0875 -1.3787 -2.0425
   73SLPC  C215 6453   2.907   0.574   9.091 -0.4372  0.7833  0.0236
   73SLPC  H15R 6454   2.927   0.679   9.057  1.8853  0.9293  1.6413
   73SLPC  H15S 6455   2.825   0.540   9.024 -1.5501  2.5202  0.4315
   73SLPC  C216 6456   3.032   0.480   9.070  0.6799 -0.3817 -0.1293
   73SLPC  H16R 6457   3.005   0.384   9.119  3.2322 -0.1006  2.1121
   73SLPC  H16S 6458   3.110   0.526   9.135 -1.2691 -0.6883  2.6053
   73SLPC  C217 6459   3.080   0.457   8.932  0.0395  0.1749  0.0174
   73SLPC  H17R 6460   2.997   0.411   8.874 -0.7941  1.6955 -0.0523
   73SLPC  H17S 6461   3.165   0.387   8.944 -1.2721 -1.7838 -1.3828
   73SLPC  C218 6462   3.118   0.578   8.858  0.1704  1.1005 -0.6800
   73SLPC  H18R 6463   3.197   0.632   8.914  1.2746 -0.3014 -0.8002
   73SLPC  H18S 6464   3.028   0.642   8.863  0.8158  1.9229  1.2635
   73SLPC  H18T 6465   3.146   0.549   8.754  4.0298 -1.5811  0.8545
   73SLPC   C33 6466   3.208   1.351  10.134 -0.2496 -0.5440 -0.1700
   73SLPC   H3X 6467   3.121   1.347  10.066 -0.1914  2.3268 -0.5290
   73SLPC   H3Y 6468   3.279   1.267  10.113  0.2844  0.2288 -1.6067
   73SLPC   C34 6469   3.268   1.484  10.090 -0.1009 -0.8104  0.5190
   73SLPC   H4X 6470   3.361   1.510  10.144  0.1412 -2.5387  0.9594
   73SLPC   H4Y 6471   3.185   1.552  10.121 -0.0305 -0.9618  1.0338
   73SLPC   C35 6472   3.300   1.501   9.943 -0.0847 -0.1827  0.2746
   73SLPC   H5X 6473   3.330   1.604   9.917 -1.7703  0.0884 -0.7468
   73SLPC   H5Y 6474   3.204   1.488   9.888 -0.0361  0.9263 -0.0912
   73SLPC   C36 6475   3.404   1.402   9.885  0.4280 -0.1549  0.5888
   73SLPC   H6X 6476   3.397   1.300   9.929  0.7016 -0.6686 -0.5113
   73SLPC   H6Y 6477   3.506   1.440   9.910 -0.3677  3.7275 -1.3638
   73SLPC   C37 6478   3.403   1.390   9.725  0.4657  0.0915  0.0425
   73SLPC   H7X 6479   3.295   1.402   9.699 -0.0060  1.0267  2.1957
   73SLPC   H7Y 6480   3.434   1.287   9.699  3.7594  1.2980 -1.2331
   73SLPC   C38 6481   3.500   1.492   9.657 -0.2387  1.0934  0.5178
   73SLPC   H8X 6482   3.605   1.458   9.671 -1.1547 -1.0930  3.0053
   73SLPC   H8Y 6483   3.484   1.579   9.724 -0.9815  0.1630  1.6054
   73SLPC   C39 6484   3.482   1.513   9.505  0.0358 -0.4695  0.0243
   73SLPC   H9X 6485   3.377   1.538   9.480  0.0147  0.1049  0.6557
   73SLPC   H9Y 6486   3.518   1.422   9.452  1.9645  0.6700 -0.7383
   73SLPC  C310 6487   3.568   1.625   9.443 -0.4937 -0.6557 -0.0861
   73SLPC  H10X 6488   3.673   1.621   9.479 -1.1489  1.2954  2.3856
   73SLPC  H10Y 6489   3.544   1.728   9.477  0.0776 -0.7809  0.7399
   73SLPC  C311 6490   3.577   1.607   9.290 -0.0674 -0.1547  0.9727
   73SLPC  H11X 6491   3.475   1.580   9.256  0.1232 -1.0882  1.1235
   73SLPC  H11Y 6492   3.646   1.524   9.263  1.2460  1.2387 -0.1701
   73SLPC  C312 6493   3.626   1.737   9.221  0.2492 -0.0964  0.0094
   73SLPC  H12X 6494   3.718   1.790   9.254 -0.6391  0.7579  1.1985
   73SLPC  H12Y 6495   3.544   1.806   9.247  0.1994 -0.7341  1.7019
   73SLPC  C313 6496   3.619   1.733   9.066 -0.0509  0.3096  0.6575
   73SLPC  H13X 6497   3.705   1.681   9.017 -0.1696 -1.1560  1.9091
   73SLPC  H13Y 6498   3.624   1.840   9.037  2.0007  0.2644  0.6477
   73SLPC  C314 6499   3.490   1.681   9.002  0.1253  0.2278  0.0050
   73SLPC  H14X 6500   3.405   1.745   9.033 -1.5811 -1.1533 -1.6051
   73SLPC  H14Y 6501   3.473   1.577   9.038 -1.3891  0.1587 -0.8510
   73SLPC  C315 6502   3.508   1.678   8.852  1.1749 -0.5362  0.1838
   73SLPC  H15X 6503   3.426   1.614   8.812  0.4818  0.1647  0.4650
   73SLPC  H15Y 6504   3.606   1.629   8.837  1.3572  0.1182 -0.8657
   73SLPC  C316 6505   3.504   1.807   8.776 -0.1778 -1.0969  0.2709
   73SLPC  H16X 6506   3.590   1.871   8.805  0.3376 -0.2987 -2.7023
   73SLPC  H16Y 6507   3.415   1.872   8.788  1.0356  0.8397 -0.6625
   73SLPC  C317 6508   3.517   1.796   8.618  0.0390 -0.2739  0.3804
   73SLPC  H17X 6509   3.436   1.729   8.583 -1.0328 -0.2745  2.6448
   73SLPC  H17Y 6510   3.607   1.734   8.601 -0.6631 -1.0588 -0.5689
   73SLPC  C318 6511   3.528   1.931   8.547 -0.3372 -0.8161 -0.2316
   73SLPC  H18X 6512   3.437   1.995   8.555  1.7185  2.2564  0.4228
   73SLPC  H18Y 6513   3.555   1.916   8.440  2.4218  1.0571  0.1027
   73SLPC  H18Z 6514   3.610   1.987   8.596  0.1227 -0.4962 -1.3255
   74SLPC     N 6515   5.854   0.530  11.392  0.0572 -0.1238 -0.0910
   74SLPC   C13 6516   5.954   0.632  11.363 -0.3559  0.2736 -0.5455
   74SLPC  H13A 6517   6.048   0.590  11.396 -2.2413 -1.0091  3.8582
   74SLPC  H13B 6518   5.953   0.665  11.260 -0.4960  1.2862 -0.2248
   74SLPC  H13C 6519   5.945   0.719  11.425 -1.7745  0.7068 -1.3099
   74SLPC   C14 6520   5.716   0.599  11.391 -0.6642 -0.4816  0.7455
   74SLPC  H14A 6521   5.710   0.689  11.451  0.4613 -0.3445  0.6784
   74SLPC  H14B 6522   5.699   0.629  11.289  0.2541 -0.4153  0.6040
   74SLPC  H14C 6523   5.646   0.523  11.422  0.5834 -2.6105 -1.3454
   74SLPC   C15 6524   5.886   0.478  11.530 -0.1250  0.2257  0.3622
   74SLPC  H15A 6525   5.804   0.421  11.573 -0.8146 -0.7936 -2.0947
   74SLPC  H15B 6526   5.984   0.433  11.532  0.4446  1.4474  1.2187
   74SLPC  H15C 6527   5.877   0.570  11.586 -3.0578  0.5405 -0.4410
   74SLPC   C12 6528   5.853   0.419  11.288  0.4598 -0.4107 -0.4836
   74SLPC  H12A 6529   5.795   0.342  11.335  0.6061  0.6862  1.6442
   74SLPC  H12B 6530   5.952   0.376  11.287  1.0730  0.8410  0.8555
   74SLPC   C11 6531   5.801   0.447  11.141 -0.8467  0.1385  0.2296
   74SLPC  H11A 6532   5.693   0.470  11.152 -1.2303  0.4372 -3.1891
   74SLPC  H11B 6533   5.829   0.353  11.089  0.0443  0.3398  0.3164
   74SLPC     P 6534   5.985   0.562  10.990 -0.0495  0.0769 -0.4670
   74SLPC   O13 6535   6.092   0.618  11.076  0.2490 -0.6766  0.0913
   74SLPC   O14 6536   6.015   0.427  10.939  0.1704 -0.3224 -0.1136
   74SLPC   O12 6537   5.863   0.563  11.087 -0.3201 -0.2955  0.4166
   74SLPC   O11 6538   5.952   0.662  10.872  0.5389 -0.3991 -0.0076
   74SLPC    C1 6539   5.818   0.665  10.826 -0.3566 -0.1779 -0.0799
   74SLPC    HA 6540   5.782   0.565  10.792  0.0435 -0.2122 -0.4140
   74SLPC    HB 6541   5.742   0.702  10.898 -2.0926 -1.4766 -1.1389
   74SLPC    C2 6542   5.816   0.751  10.695  0.4664 -0.0878 -0.4907
   74SLPC    HS 6543   5.709   0.777  10.686  0.3779  0.7404  2.1130
   74SLPC   O21 6544   5.858   0.681  10.576 -0.3954 -0.7032  0.4521
   74SLPC   C21 6545   5.801   0.714  10.467  0.0490 -0.3065  0.8510
   74SLPC   O22 6546   5.715   0.799  10.446 -0.2120 -0.3083 -0.3754
   74SLPC   C22 6547   5.872   0.637  10.354 -0.3934  0.6048 -0.5733
   74SLPC   H2R 6548   5.981   0.656  10.350 -0.3106  0.0890 -0.8368
   74SLPC   H2S 6549   5.850   0.528  10.355  0.4018  0.4322 -1.1383
   74SLPC    C3 6550   5.905   0.883  10.720  0.3095 -0.0510 -0.3533
   74SLPC    HX 6551   6.011   0.852  10.732 -0.4996 -2.5224  1.2165
   74SLPC    HY 6552   5.881   0.923  10.820  0.3694 -2.3788  0.6520
   74SLPC   O31 6553   5.886   0.981  10.616  0.0961  0.3680 -0.3136
   74SLPC   C31 6554   5.775   1.051  10.614  0.6100  0.6212 -0.2960
   74SLPC   O32 6555   5.692   1.062  10.703 -0.3631 -0.3786  0.1922
   74SLPC   C32 6556   5.756   1.116  10.478  0.9251 -0.1057 -0.4351
   74SLPC   H2X 6557   5.647   1.134  10.479  0.6454 -1.5902  1.3079
   74SLPC   H2Y 6558   5.782   1.043  10.398 -2.3292 -1.5727 -0.3207
   74SLPC   C23 6559   5.824   0.684  10.218 -0.2026 -0.1604  0.0916
   74SLPC   H3R 6560   5.715   0.670  10.203 -0.0205  0.3001 -1.9614
   74SLPC   H3S 6561   5.868   0.619  10.139  0.1211  0.1914 -0.0217
   74SLPC   C24 6562   5.879   0.830  10.186 -0.4581  0.1632  0.3742
   74SLPC   H4R 6563   5.868   0.898  10.273 -1.5536  0.7890 -0.2322
   74SLPC   H4S 6564   5.811   0.868  10.107 -1.4375 -3.3362 -0.6490
   74SLPC   C25 6565   6.032   0.831  10.138  0.4361 -0.2481 -0.6770
   74SLPC   H5R 6566   6.038   0.774  10.042 -0.4747  0.9979 -1.4983
   74SLPC   H5S 6567   6.076   0.773  10.221  1.2540  0.8317 -0.3344
   74SLPC   C26 6568   6.092   0.973  10.115 -0.7032 -0.5453 -0.0984
   74SLPC   H6R 6569   6.114   1.027  10.210  0.2795 -0.2574 -0.4787
   74SLPC   H6S 6570   6.007   1.030  10.070  0.4919  1.5426  0.1375
   74SLPC   C27 6571   6.219   0.985  10.022  0.2241  0.3582  0.4565
   74SLPC   H7R 6572   6.305   0.947  10.082  0.7835  2.0774  0.8017
   74SLPC   H7S 6573   6.226   1.095  10.006 -3.4639  0.5896 -0.4521
   74SLPC   C28 6574   6.221   0.907   9.888 -0.1342 -0.4592 -0.1818
   74SLPC   H8R 6575   6.212   0.802   9.923  0.5358 -0.4861 -0.0861
   74SLPC   H8S 6576   6.322   0.929   9.847 -0.6018  1.0172 -0.6150
   74SLPC   C29 6577   6.101   0.951   9.808  0.1298 -0.1139 -0.5727
   74SLPC   H9R 6578   6.005   0.949   9.862  0.7599  4.1964  1.1097
   74SLPC  C210 6579   6.096   0.979   9.675  0.7395 -0.0243 -0.3148
   74SLPC  H10R 6580   6.005   1.019   9.626  0.8191 -0.7052 -1.0530
   74SLPC  C211 6581   6.217   0.981   9.582  0.1346 -0.4510  0.1584
   74SLPC  H11R 6582   6.272   0.886   9.594  2.9130  1.0135 -0.2085
   74SLPC  H11S 6583   6.289   1.058   9.618  0.8401 -1.1041  0.1643
   74SLPC  C212 6584   6.172   1.011   9.441  0.5530 -0.0253  0.2482
   74SLPC  H12R 6585   6.165   1.118   9.417 -0.0955 -0.0918  0.1280
   74SLPC  C213 6586   6.144   0.909   9.352  0.3533 -0.5377  0.4063
   74SLPC  H13R 6587   6.133   0.941   9.247 -1.9247 -0.7015  0.5500
   74SLPC  C214 6588   6.141   0.763   9.391 -0.0359 -0.6420 -0.1875
   74SLPC  H14R 6589   6.058   0.705   9.343 -1.7103  0.2624  1.4890
   74SLPC  H14S 6590   6.134   0.740   9.499  0.4667 -0.5171 -0.1286
   74SLPC  C215 6591   6.273   0.678   9.358  0.3830  0.6969  0.0460
   74SLPC  H15R 6592   6.257   0.582   9.412 -0.0349  0.4432 -0.5220
   74SLPC  H15S 6593   6.357   0.738   9.399  1.7793 -0.8848 -0.3814
   74SLPC  C216 6594   6.300   0.656   9.207  0.3041 -0.9766 -0.8293
   74SLPC  H16R 6595   6.319   0.757   9.163  0.8836 -0.7085  0.0204
   74SLPC  H16S 6596   6.207   0.606   9.172 -1.3793  1.9384 -0.8484
   74SLPC  C217 6597   6.414   0.559   9.188  0.0723 -0.3914  0.5489
   74SLPC  H17R 6598   6.391   0.466   9.245 -2.9059  1.6967  3.1868
   74SLPC  H17S 6599   6.497   0.605   9.245  0.4104 -1.7939  1.2262
   74SLPC  C218 6600   6.446   0.539   9.042 -0.2743 -0.1487  0.6139
   74SLPC  H18R 6601   6.478   0.636   8.999 -0.0369 -1.1356 -1.5509
   74SLPC  H18S 6602   6.353   0.511   8.988  0.8916 -1.4241 -0.8304
   74SLPC  H18T 6603   6.532   0.469   9.032 -0.6608 -0.3774 -1.3749
   74SLPC   C33 6604   5.829   1.253  10.452 -0.0299 -0.5549 -0.2878
   74SLPC   H3X 6605   5.939   1.240  10.437 -0.1343 -0.2068 -1.4719
   74SLPC   H3Y 6606   5.815   1.326  10.535  0.2356  0.1398 -0.8462
   74SLPC   C34 6607   5.785   1.310  10.326 -0.8289 -0.3386  0.4021
   74SLPC   H4X 6608   5.842   1.406  10.317  2.1944 -2.2098 -2.6551
   74SLPC   H4Y 6609   5.676   1.329  10.321 -0.3324  2.8688 -0.9699
   74SLPC   C35 6610   5.823   1.233  10.200  0.8150  0.0711  0.4227
   74SLPC   H5X 6611   5.772   1.134  10.199 -0.6946  0.8171  0.7417
   74SLPC   H5Y 6612   5.930   1.206  10.198  0.5396 -1.0487 -0.5078
   74SLPC   C36 6613   5.795   1.316  10.070  0.0471  0.1089 -0.7103
   74SLPC   H6X 6614   5.858   1.406  10.084  0.0356 -0.1546  1.3705
   74SLPC   H6Y 6615   5.688   1.346  10.068  0.1023  0.3927  0.0731
   74SLPC   C37 6616   5.826   1.252   9.940  0.1990 -0.9944  0.6139
   74SLPC   H7X 6617   5.746   1.181   9.911  0.1445 -0.2177 -1.2710
   74SLPC   H7Y 6618   5.926   1.203   9.940  1.8616  2.0821 -0.9586
   74SLPC   C38 6619   5.831   1.347   9.822  1.0711 -0.3973 -0.2954
   74SLPC   H8X 6620   5.884   1.442   9.843 -0.9231  0.4143  1.4838
   74SLPC   H8Y 6621   5.724   1.374   9.809  0.7432 -2.0988 -1.5835
   74SLPC   C39 6622   5.891   1.285   9.693 -0.2556  0.1353  0.2004
   74SLPC   H9X 6623   5.827   1.206   9.648  1.4761 -0.1936 -1.8345
   74SLPC   H9Y 6624   5.993   1.242   9.697 -0.0583 -0.4890 -4.9072
   74SLPC  C310 6625   5.882   1.387   9.579 -0.4887 -0.4440 -0.0664
   74SLPC  H10X 6626   5.975   1.446   9.582  0.6135 -2.1236 -0.0807
   74SLPC  H10Y 6627   5.794   1.456   9.585  1.5068  2.3081 -0.6443
   74SLPC  C311 6628   5.874   1.326   9.433 -0.6883 -0.0655  0.0217
   74SLPC  H11X 6629   5.780   1.268   9.442 -0.1407 -1.1692 -0.9693
   74SLPC  H11Y 6630   5.954   1.252   9.410 -1.0953 -0.5168  0.0432
   74SLPC  C312 6631   5.864   1.420   9.312  0.0540  0.8792  0.1746
   74SLPC  H12X 6632   5.969   1.450   9.290  0.3907 -1.6102 -2.2293
   74SLPC  H12Y 6633   5.804   1.510   9.337  1.4304  1.2907  2.1959
   74SLPC  C313 6634   5.823   1.354   9.175 -0.0879 -0.6339 -0.1427
   74SLPC  H13X 6635   5.716   1.325   9.164  0.1094 -0.6299 -2.5705
   74SLPC  H13Y 6636   5.882   1.262   9.160  1.7979  0.2550  1.4302
   74SLPC  C314 6637   5.861   1.446   9.053  0.4398  0.2879 -0.5842
   74SLPC  H14X 6638   5.970   1.465   9.041  0.6403 -0.5476 -0.1976
   74SLPC  H14Y 6639   5.810   1.542   9.076  0.3434  0.5598 -1.8811
   74SLPC  C315 6640   5.807   1.388   8.923  0.7875  0.2783 -0.2396
   74SLPC  H15X 6641   5.708   1.343   8.946  0.3009  1.4277 -0.0079
   74SLPC  H15Y 6642   5.883   1.310   8.902  0.8926  0.7965 -1.8454
   74SLPC  C316 6643   5.786   1.485   8.812  0.6379 -0.2440 -0.3427
   74SLPC  H16X 6644   5.856   1.570   8.819  1.1071 -0.6617  0.1468
   74SLPC  H16Y 6645   5.688   1.534   8.828  0.6663  0.1156 -1.2239
   74SLPC  C317 6646   5.782   1.428   8.665  0.4425  0.7509  0.3594
   74SLPC  H17X 6647   5.697   1.357   8.657 -0.1270  1.5497 -1.0032
   74SLPC  H17Y 6648   5.867   1.360   8.646 -0.6449 -0.2942 -0.9907
   74SLPC  C318 6649   5.755   1.550   8.569  0.0419  0.4288 -0.2506
   74SLPC  H18X 6650   5.772   1.511   8.466  1.8451 -3.3445  1.3238
   74SLPC  H18Y 6651   5.830   1.628   8.593  1.0322 -0.7823  0.6857
   74SLPC  H18Z 6652   5.656   1.597   8.589  0.2242  0.6975  0.0295
   75SLPC     N 6653   0.343   0.016   5.847 -0.5831 -0.8257 -0.7365
   75SLPC   C13 6654   0.483  -0.022   5.812 -0.2548 -0.1689  0.4102
   75SLPC  H13A 6655   0.557   0.053   5.837 -0.3150  0.2361 -0.5568
   75SLPC  H13B 6656   0.514  -0.109   5.867  2.0000 -0.4679 -1.1619
   75SLPC  H13C 6657   0.497  -0.045   5.707 -0.2361 -0.0246  0.3812
   75SLPC   C14 6658   0.248  -0.090   5.805 -0.4692  0.3651 -0.5422
   75SLPC  H14A 6659   0.263  -0.105   5.699 -0.2933  0.6776 -0.5614
   75SLPC  H14B 6660   0.294  -0.180   5.846 -0.4179 -1.1954 -3.7216
   75SLPC  H14C 6661   0.146  -0.069   5.834 -0.8646 -0.4576 -1.3028
   75SLPC   C15 6662   0.314   0.137   5.773  0.2353 -0.0994  0.4115
   75SLPC  H15A 6663   0.368   0.223   5.811 -0.0989  0.0319  0.5948
   75SLPC  H15B 6664   0.337   0.124   5.668  0.5301 -0.0777  0.4707
   75SLPC  H15C 6665   0.211   0.168   5.778  0.9207  2.5192  0.0177
   75SLPC   C12 6666   0.343   0.037   6.001  0.2464  0.1383  0.1509
   75SLPC  H12A 6667   0.352  -0.057   6.053 -0.5036 -0.1920 -0.3074
   75SLPC  H12B 6668   0.251   0.085   6.030 -0.0353 -0.8028  0.8501
   75SLPC   C11 6669   0.444   0.143   6.057  0.2443  1.0846 -0.3644
   75SLPC  H11A 6670   0.548   0.120   6.025  0.2989  1.2434 -0.3017
   75SLPC  H11B 6671   0.441   0.132   6.168  1.0083  1.7746 -0.2643
   75SLPC     P 6672   0.308   0.362   6.101  0.2049  0.0181  0.6026
   75SLPC   O13 6673   0.372   0.423   6.217  0.1552  0.0807 -0.1550
   75SLPC   O14 6674   0.241   0.455   6.010  0.1936  0.1256 -0.2565
   75SLPC   O12 6675   0.408   0.272   6.020 -0.4139 -0.2878 -0.2385
   75SLPC   O11 6676   0.203   0.254   6.149  0.3692 -0.0480  0.2894
   75SLPC    C1 6677   0.125   0.282   6.262 -0.1414  0.2672 -0.3654
   75SLPC    HA 6678   0.085   0.386   6.255 -1.2130 -0.0670  0.5577
   75SLPC    HB 6679   0.036   0.217   6.267  1.1627 -1.4698  2.0612
   75SLPC    C2 6680   0.199   0.244   6.390 -0.4464 -0.1419 -0.4481
   75SLPC    HS 6681   0.296   0.297   6.398  1.4372 -3.2790 -0.6877
   75SLPC   O21 6682   0.221   0.101   6.389 -0.0058  0.0937 -0.6595
   75SLPC   C21 6683   0.343   0.056   6.430 -0.1245  0.3211  0.8622
   75SLPC   O22 6684   0.432   0.125   6.473  0.3493  1.0283  0.9530
   75SLPC   C22 6685   0.353  -0.092   6.394  0.3113 -0.8547  0.2286
   75SLPC   H2R 6686   0.334  -0.099   6.285  1.3412 -0.6045  0.0179
   75SLPC   H2S 6687   0.458  -0.128   6.406 -0.0202 -0.9891  3.5961
   75SLPC    C3 6688   0.115   0.264   6.517  0.0525  0.3474 -0.5489
   75SLPC    HX 6689   0.021   0.208   6.498  0.4029 -0.3335 -0.3184
   75SLPC    HY 6690   0.101   0.373   6.533  0.7457  0.0838  2.5321
   75SLPC   O31 6691   0.181   0.207   6.634  0.0997 -0.3133 -0.6285
   75SLPC   C31 6692   0.283   0.281   6.682  0.4510 -0.4974 -0.0474
   75SLPC   O32 6693   0.315   0.392   6.639  0.2709 -0.0747 -0.1811
   75SLPC   C32 6694   0.354   0.204   6.792 -0.3736  0.5603 -0.0245
   75SLPC   H2X 6695   0.433   0.137   6.751 -1.9603 -0.9402 -0.7473
   75SLPC   H2Y 6696   0.280   0.135   6.838 -0.2729  0.1088 -0.5292
   75SLPC   C23 6697   0.275  -0.193   6.472  0.1848  0.9581  0.0471
   75SLPC   H3R 6698   0.249  -0.268   6.395  0.5535  0.1173  0.7217
   75SLPC   H3S 6699   0.184  -0.142   6.509  0.6743  2.2414 -0.4782
   75SLPC   C24 6700   0.336  -0.267   6.599 -0.7237 -0.3446  0.0267
   75SLPC   H4R 6701   0.425  -0.322   6.563 -0.4718 -1.8649  2.7061
   75SLPC   H4S 6702   0.266  -0.340   6.643 -2.3215  0.0917 -1.6925
   75SLPC   C25 6703   0.366  -0.154   6.706 -0.3953 -0.3120  0.3253
   75SLPC   H5R 6704   0.266  -0.110   6.728  0.0374  0.8395  0.0425
   75SLPC   H5S 6705   0.429  -0.073   6.663  0.8215 -0.0617  2.4514
   75SLPC   C26 6706   0.440  -0.216   6.819  0.1666 -0.0904 -0.0262
   75SLPC   H6R 6707   0.533  -0.267   6.786  0.0646 -2.3593  2.7776
   75SLPC   H6S 6708   0.373  -0.287   6.873 -0.5555  1.0995  0.6976
   75SLPC   C27 6709   0.503  -0.113   6.922  0.5619 -0.6278  0.1907
   75SLPC   H7R 6710   0.429  -0.031   6.916  1.0585 -0.2805 -2.1790
   75SLPC   H7S 6711   0.594  -0.065   6.879 -0.0343 -0.3165 -0.7334
   75SLPC   C28 6712   0.538  -0.159   7.061  0.0968 -0.2517 -0.9846
   75SLPC   H8R 6713   0.632  -0.112   7.096 -1.2456  0.2108  2.3701
   75SLPC   H8S 6714   0.572  -0.265   7.053  0.3432 -0.1935 -0.7320
   75SLPC   C29 6715   0.420  -0.157   7.156  0.0155 -0.5068  0.1190
   75SLPC   H9R 6716   0.330  -0.165   7.093  0.4073  0.6794 -0.6166
   75SLPC  C210 6717   0.398  -0.130   7.285  0.3649 -0.1102 -0.5852
   75SLPC  H10R 6718   0.296  -0.137   7.325  1.3963 -2.2523  1.9596
   75SLPC  C211 6719   0.498  -0.094   7.390 -0.2419  0.0615 -0.0367
   75SLPC  H11R 6720   0.598  -0.085   7.341  0.8177  0.9760  2.1171
   75SLPC  H11S 6721   0.507  -0.175   7.465  0.9379 -0.0945 -0.3264
   75SLPC  C212 6722   0.462   0.041   7.444 -0.0595 -0.0958  0.3744
   75SLPC  H12R 6723   0.431   0.114   7.368 -2.7658 -0.1520  1.2974
   75SLPC  C213 6724   0.441   0.073   7.575  0.0660 -0.6396  0.6008
   75SLPC  H13R 6725   0.410   0.175   7.601 -1.7166 -0.9040 -0.3131
   75SLPC  C214 6726   0.475  -0.017   7.686  1.0038 -0.5208 -0.1027
   75SLPC  H14R 6727   0.514   0.029   7.780  0.9201 -1.2153  0.2831
   75SLPC  H14S 6728   0.560  -0.085   7.661 -0.7463 -2.8165 -0.1278
   75SLPC  C215 6729   0.354  -0.101   7.737  0.9324 -0.4822 -0.4534
   75SLPC  H15R 6730   0.390  -0.194   7.786 -2.9841 -1.5822  0.6542
   75SLPC  H15S 6731   0.293  -0.131   7.650  0.2661 -1.0995  0.2169
   75SLPC  C216 6732   0.271  -0.035   7.849  0.0247 -0.0243  0.6960
   75SLPC  H16R 6733   0.252   0.068   7.809  0.7627 -0.0894  0.1436
   75SLPC  H16S 6734   0.331  -0.012   7.940  4.6941 -1.9155 -1.6075
   75SLPC  C217 6735   0.142  -0.113   7.880  0.0311 -0.4521  0.8822
   75SLPC  H17R 6736   0.167  -0.210   7.928  1.5758 -0.1322  0.8043
   75SLPC  H17S 6737   0.087  -0.130   7.785  0.6883  0.5760  0.2935
   75SLPC  C218 6738   0.044  -0.041   7.974  0.2503  0.4425  0.2067
   75SLPC  H18R 6739  -0.027  -0.104   8.032  0.3257  1.8593  1.9164
   75SLPC  H18S 6740  -0.021   0.025   7.913 -1.1032  0.0533  1.1922
   75SLPC  H18T 6741   0.101   0.017   8.050 -0.8406  3.0999 -0.8849
   75SLPC   C33 6742   0.401   0.303   6.902  0.0500 -0.0936 -0.1475
   75SLPC   H3X 6743   0.486   0.362   6.862  1.7542 -1.5398  1.1898
   75SLPC   H3Y 6744   0.317   0.371   6.928 -0.6868 -0.6215 -1.0417
   75SLPC   C34 6745   0.468   0.230   7.017  0.3703 -0.0132 -0.0461
   75SLPC   H4X 6746   0.552   0.179   6.966  0.1533 -0.1239 -0.2938
   75SLPC   H4Y 6747   0.394   0.156   7.055 -0.2651  1.1533  1.1191
   75SLPC   C35 6748   0.525   0.319   7.124  0.6331  0.0973  0.1847
   75SLPC   H5X 6749   0.623   0.360   7.093 -0.4057  1.3957 -1.5147
   75SLPC   H5Y 6750   0.549   0.241   7.200 -1.1674 -2.4661 -1.7194
   75SLPC   C36 6751   0.430   0.424   7.185 -0.0668 -0.7761  0.4995
   75SLPC   H6X 6752   0.328   0.380   7.194 -0.1026 -0.8416 -0.1174
   75SLPC   H6Y 6753   0.419   0.510   7.115 -1.8718 -1.5799 -0.2772
   75SLPC   C37 6754   0.466   0.484   7.324  0.2272 -0.0811  0.0457
   75SLPC   H7X 6755   0.549   0.555   7.304 -1.4483  2.3300  1.1699
   75SLPC   H7Y 6756   0.502   0.411   7.399  0.2112  0.6659  0.7953
   75SLPC   C38 6757   0.360   0.565   7.394 -0.0345 -0.7730 -0.0266
   75SLPC   H8X 6758   0.285   0.490   7.426 -0.2658 -1.0180 -1.1036
   75SLPC   H8Y 6759   0.309   0.628   7.318 -0.9946 -4.0795 -2.3277
   75SLPC   C39 6760   0.397   0.644   7.527  0.0364 -0.3405 -1.1026
   75SLPC   H9X 6761   0.463   0.728   7.495  1.9429 -0.2891  2.5038
   75SLPC   H9Y 6762   0.447   0.574   7.597 -3.7807 -1.3385  0.8692
   75SLPC  C310 6763   0.284   0.709   7.597  0.6186  0.8055  0.9241
   75SLPC  H10X 6764   0.201   0.636   7.602 -0.1798  1.5771 -0.4036
   75SLPC  H10Y 6765   0.237   0.774   7.520 -0.9895  0.9869  2.0109
   75SLPC  C311 6766   0.317   0.788   7.721  0.4262  0.2517 -0.3229
   75SLPC  H11X 6767   0.263   0.885   7.725 -1.6486 -0.8844  1.6480
   75SLPC  H11Y 6768   0.425   0.813   7.723  0.1543  1.5207 -0.4923
   75SLPC  C312 6769   0.308   0.696   7.851 -0.2377 -0.3454 -0.6096
   75SLPC  H12X 6770   0.366   0.606   7.822  1.3549  0.2103  0.7394
   75SLPC  H12Y 6771   0.201   0.674   7.871  0.1121 -0.1087  1.8638
   75SLPC  C313 6772   0.374   0.766   7.969  0.2374  0.3449 -0.8613
   75SLPC  H13X 6773   0.305   0.844   8.009 -2.0269 -1.3020 -1.3690
   75SLPC  H13Y 6774   0.473   0.813   7.947  1.0989 -0.7920  0.4544
   75SLPC  C314 6775   0.407   0.673   8.087 -0.0769 -0.2387 -0.2744
   75SLPC  H14X 6776   0.465   0.587   8.047 -0.3967  0.4473 -2.3800
   75SLPC  H14Y 6777   0.316   0.618   8.116 -1.5077  0.8496 -2.4559
   75SLPC  C315 6778   0.471   0.741   8.214 -0.0067  0.2062  0.6481
   75SLPC  H15X 6779   0.423   0.840   8.232  2.1689  1.6348 -0.8689
   75SLPC  H15Y 6780   0.578   0.764   8.194  0.0814 -0.7182  0.0112
   75SLPC  C316 6781   0.464   0.655   8.341 -0.2881 -0.4895 -0.2889
   75SLPC  H16X 6782   0.455   0.726   8.426  1.3426 -1.3732  0.6745
   75SLPC  H16Y 6783   0.558   0.597   8.354  0.5826  0.8084 -0.7172
   75SLPC  C317 6784   0.341   0.567   8.359 -0.4194  0.8211 -0.2049
   75SLPC  H17X 6785   0.366   0.480   8.294  0.1239 -1.8657  3.2957
   75SLPC  H17Y 6786   0.259   0.627   8.312  0.2502  1.3791 -0.6778
   75SLPC  C318 6787   0.320   0.528   8.505 -0.3439  0.3035  0.8253
   75SLPC  H18X 6788   0.415   0.498   8.553  0.4364 -0.7498 -1.2538
   75SLPC  H18Y 6789   0.242   0.449   8.511 -0.5205  0.5669  2.5949
   75SLPC  H18Z 6790   0.280   0.618   8.556 -0.9486  0.8836 -0.6095
   76SLPC     N 6791   3.273   0.972   5.685  0.2229  0.4335 -0.1393
   76SLPC   C13 6792   3.371   0.859   5.680 -0.0428 -1.1489  0.3008
   76SLPC  H13A 6793   3.419   0.849   5.776  2.9050 -0.7093 -1.0364
   76SLPC  H13B 6794   3.325   0.766   5.648  1.3160 -1.8330  0.2656
   76SLPC  H13C 6795   3.438   0.879   5.598 -1.3228 -1.4916 -0.8589
   76SLPC   C14 6796   3.202   0.980   5.551 -0.2784  0.2056 -0.7676
   76SLPC  H14A 6797   3.132   1.062   5.548 -0.5624  0.1476  1.7602
   76SLPC  H14B 6798   3.266   0.978   5.464 -0.5848  1.2670 -1.0330
   76SLPC  H14C 6799   3.140   0.892   5.543 -0.0968 -0.0828  0.7177
   76SLPC   C15 6800   3.344   1.102   5.714  0.0784 -0.3127 -0.1972
   76SLPC  H15A 6801   3.283   1.180   5.670  0.0787 -0.1512  0.0879
   76SLPC  H15B 6802   3.372   1.118   5.817 -0.6409  1.4214 -0.2389
   76SLPC  H15C 6803   3.444   1.117   5.674  1.5588 -2.7630  2.2537
   76SLPC   C12 6804   3.159   0.957   5.790 -0.3497  0.0667  0.0515
   76SLPC  H12A 6805   3.127   0.854   5.781 -2.8676  0.6196  1.7426
   76SLPC  H12B 6806   3.072   1.013   5.757  0.0786  0.8147  0.1811
   76SLPC   C11 6807   3.186   0.995   5.940 -0.1029  0.3485  0.6283
   76SLPC  H11A 6808   3.097   0.972   6.002 -1.1124  2.3465  0.0395
   76SLPC  H11B 6809   3.191   1.106   5.944  0.4270  0.4133 -1.1008
   76SLPC     P 6810   3.302   0.790   6.043  0.0655  0.1769 -0.0839
   76SLPC   O13 6811   3.192   0.711   5.978  0.2792  0.1619 -0.0255
   76SLPC   O14 6812   3.439   0.733   6.030  0.4931  0.2276  0.0815
   76SLPC   O12 6813   3.306   0.936   5.995  0.0911  0.1127  0.3839
   76SLPC   O11 6814   3.248   0.811   6.189 -0.2120  0.1858  0.3391
   76SLPC    C1 6815   3.261   0.927   6.262 -0.6154 -0.2273 -0.6672
   76SLPC    HA 6816   3.314   1.017   6.223  0.0838  0.6026  1.9597
   76SLPC    HB 6817   3.162   0.963   6.298 -1.1502 -0.5279 -1.7836
   76SLPC    C2 6818   3.341   0.876   6.388 -0.5174 -1.0241 -0.5103
   76SLPC    HS 6819   3.445   0.850   6.357  0.5770  0.5722  1.6010
   76SLPC   O21 6820   3.265   0.771   6.453  0.6440 -0.6246  0.2872
   76SLPC   C21 6821   3.332   0.653   6.472 -0.3562  0.3047 -0.7076
   76SLPC   O22 6822   3.443   0.622   6.434  0.9313  0.0096  0.1763
   76SLPC   C22 6823   3.238   0.561   6.545  0.2763 -0.0790 -0.2426
   76SLPC   H2R 6824   3.144   0.541   6.489 -0.6420 -0.8077  1.5041
   76SLPC   H2S 6825   3.286   0.464   6.568 -0.5169 -0.2248  0.8668
   76SLPC    C3 6826   3.374   0.986   6.489 -0.6016  0.1119  0.3592
   76SLPC    HX 6827   3.275   1.021   6.526 -0.3479  2.5906 -1.0406
   76SLPC    HY 6828   3.421   1.076   6.443 -0.7136 -0.2260 -0.4224
   76SLPC   O31 6829   3.440   0.930   6.607  0.2216  0.0487  0.5479
   76SLPC   C31 6830   3.568   0.944   6.607 -0.2341 -0.2273 -0.1250
   76SLPC   O32 6831   3.637   1.004   6.526  0.8952 -0.4267  0.3629
   76SLPC   C32 6832   3.628   0.874   6.731 -0.8955 -0.3709  0.2936
   76SLPC   H2X 6833   3.730   0.835   6.708 -0.7608  0.6519 -0.9104
   76SLPC   H2Y 6834   3.563   0.786   6.746 -2.7206  0.7924 -0.5148
   76SLPC   C23 6835   3.200   0.625   6.681  0.0048  0.2792  0.4187
   76SLPC   H3R 6836   3.124   0.556   6.723 -3.0606  3.0869 -0.1571
   76SLPC   H3S 6837   3.155   0.726   6.676 -0.1378  0.2375  0.8195
   76SLPC   C24 6838   3.310   0.615   6.784 -0.5329  0.1638 -0.3896
   76SLPC   H4R 6839   3.411   0.640   6.745 -0.4950  0.6832  0.0313
   76SLPC   H4S 6840   3.315   0.509   6.818 -1.3735  0.8696  2.1321
   76SLPC   C25 6841   3.280   0.702   6.910 -0.5455 -0.5237 -0.2540
   76SLPC   H5R 6842   3.174   0.687   6.941 -0.9463  1.3718 -0.5695
   76SLPC   H5S 6843   3.286   0.806   6.871  1.7072 -0.9572 -1.2371
   76SLPC   C26 6844   3.373   0.679   7.032 -0.2663  0.1445  0.1806
   76SLPC   H6R 6845   3.475   0.704   6.997 -0.4956  2.2667  0.8683
   76SLPC   H6S 6846   3.359   0.576   7.071 -0.1658  1.9141  5.8530
   76SLPC   C27 6847   3.338   0.772   7.149 -1.0188  0.4555  0.3888
   76SLPC   H7R 6848   3.235   0.748   7.184 -1.4581  0.8326 -0.5920
   76SLPC   H7S 6849   3.341   0.877   7.113  0.1086  0.5148  0.6238
   76SLPC   C28 6850   3.444   0.751   7.262 -0.6120 -1.1313  0.2081
   76SLPC   H8R 6851   3.433   0.644   7.292  1.7420 -1.0650  1.6080
   76SLPC   H8S 6852   3.543   0.763   7.213 -0.5346  1.0582  0.8232
   76SLPC   C29 6853   3.425   0.852   7.373 -0.4970  0.0510  0.6849
   76SLPC   H9R 6854   3.435   0.956   7.337 -3.4569 -0.1974 -1.2582
   76SLPC  C210 6855   3.380   0.836   7.498 -0.6053 -0.2588  0.0437
   76SLPC  H10R 6856   3.352   0.926   7.555 -2.4349 -0.3122 -0.7067
   76SLPC  C211 6857   3.360   0.704   7.567  1.0986 -0.6591  0.0344
   76SLPC  H11R 6858   3.395   0.721   7.671  0.8321  1.6245 -0.1854
   76SLPC  H11S 6859   3.438   0.636   7.527  0.6142 -0.7201 -0.8207
   76SLPC  C212 6860   3.220   0.632   7.566 -0.3579  0.4014  0.4548
   76SLPC  H12R 6861   3.184   0.586   7.472 -2.1701 -1.7839  2.0944
   76SLPC  C213 6862   3.152   0.620   7.680  0.0452  0.5578  0.4179
   76SLPC  H13R 6863   3.053   0.573   7.676  1.2666 -2.2840  0.9498
   76SLPC  C214 6864   3.200   0.664   7.813 -0.7814 -0.4277 -0.0704
   76SLPC  H14R 6865   3.253   0.761   7.809 -1.0606 -0.2356  0.7037
   76SLPC  H14S 6866   3.274   0.594   7.856  0.3331  0.5611 -0.3428
   76SLPC  C215 6867   3.081   0.695   7.907 -0.3569  0.4750 -0.0311
   76SLPC  H15R 6868   3.020   0.603   7.918  0.3120 -0.0290 -0.4587
   76SLPC  H15S 6869   3.002   0.766   7.873  0.2215  0.3490 -1.7664
   76SLPC  C216 6870   3.128   0.751   8.049  0.3092 -0.1792  0.2021
   76SLPC  H16R 6871   3.040   0.763   8.116  0.5252  0.6528  0.3509
   76SLPC  H16S 6872   3.189   0.844   8.045  1.3100 -0.7395  1.6520
   76SLPC  C217 6873   3.226   0.656   8.129 -0.1466 -0.1272  0.7715
   76SLPC  H17R 6874   3.318   0.655   8.066  1.4360 -2.3322  2.9017
   76SLPC  H17S 6875   3.179   0.556   8.119 -2.0639  0.9272 -2.0381
   76SLPC  C218 6876   3.249   0.692   8.276 -0.0617  0.0049  0.2346
   76SLPC  H18R 6877   3.153   0.683   8.331 -0.9847 -2.0799 -1.5256
   76SLPC  H18S 6878   3.279   0.798   8.286 -0.3281 -0.0123  1.3169
   76SLPC  H18T 6879   3.325   0.620   8.314 -0.6085 -2.2048 -2.4939
   76SLPC   C33 6880   3.620   0.965   6.846  0.1286 -0.4051 -0.1471
   76SLPC   H3X 6881   3.517   0.970   6.888  1.1125  1.3140  2.3331
   76SLPC   H3Y 6882   3.656   1.068   6.824 -1.9166  0.1039 -1.3840
   76SLPC   C34 6883   3.707   0.916   6.964  0.7112  0.9680  1.0024
   76SLPC   H4X 6884   3.815   0.897   6.945 -0.0777 -2.1386 -1.1801
   76SLPC   H4Y 6885   3.680   0.811   6.990  1.2551  0.2070 -1.2181
   76SLPC   C35 6886   3.687   1.011   7.081 -0.5431  0.1605 -0.1465
   76SLPC   H5X 6887   3.580   0.998   7.110 -1.4002  1.6983 -2.3244
   76SLPC   H5Y 6888   3.703   1.116   7.050  0.0972  0.7290  1.9407
   76SLPC   C36 6889   3.781   0.986   7.200  0.0228 -0.2484 -0.1418
   76SLPC   H6X 6890   3.880   0.957   7.160 -1.3847 -1.2455 -3.1899
   76SLPC   H6Y 6891   3.745   0.909   7.271 -0.8131  1.8398  1.8578
   76SLPC   C37 6892   3.792   1.109   7.290 -0.4909 -0.5853 -0.3123
   76SLPC   H7X 6893   3.702   1.169   7.317  0.6930 -0.0440  2.7494
   76SLPC   H7Y 6894   3.865   1.174   7.239 -2.3481 -0.7799 -3.5520
   76SLPC   C38 6895   3.870   1.055   7.417 -0.3805  0.8406 -0.2494
   76SLPC   H8X 6896   3.946   1.120   7.466 -2.6092  2.2380  1.5779
   76SLPC   H8Y 6897   3.926   0.969   7.374 -2.1385  0.3308 -1.6353
   76SLPC   C39 6898   3.772   1.007   7.528  0.5411  0.6961  0.4750
   76SLPC   H9X 6899   3.703   0.937   7.477  1.7837 -0.5623  0.4635
   76SLPC   H9Y 6900   3.733   1.097   7.579  1.3115  2.0927 -1.2725
   76SLPC  C310 6901   3.850   0.911   7.617 -0.9009 -0.1654 -0.0414
   76SLPC  H10X 6902   3.923   0.970   7.677  1.0748 -1.8566 -0.6581
   76SLPC  H10Y 6903   3.910   0.840   7.557  0.3506  0.1961  0.7267
   76SLPC  C311 6904   3.759   0.834   7.713  0.0831 -0.0404 -0.0291
   76SLPC  H11X 6905   3.666   0.815   7.655  0.4885 -0.3863 -0.5702
   76SLPC  H11Y 6906   3.725   0.894   7.801 -2.1425 -1.1749 -0.0488
   76SLPC  C312 6907   3.830   0.711   7.762 -0.0167  0.7438 -0.1584
   76SLPC  H12X 6908   3.916   0.742   7.825  0.4558 -2.7983  1.1732
   76SLPC  H12Y 6909   3.850   0.636   7.682 -1.9620 -0.9460  0.8515
   76SLPC  C313 6910   3.738   0.627   7.857  0.6594  0.7849 -0.0486
   76SLPC  H13X 6911   3.667   0.587   7.781  0.0909 -0.6568  1.2057
   76SLPC  H13Y 6912   3.683   0.693   7.927 -3.9426 -1.0970 -1.4525
   76SLPC  C314 6913   3.828   0.526   7.924 -0.5263  1.1305 -0.5268
   76SLPC  H14X 6914   3.906   0.573   7.988  0.8124 -2.6319  0.8752
   76SLPC  H14Y 6915   3.875   0.466   7.843  0.8146  1.7348 -0.2114
   76SLPC  C315 6916   3.754   0.433   8.018  0.8681  0.9649 -0.3786
   76SLPC  H15X 6917   3.660   0.399   7.970 -0.9525  3.7251  1.0136
   76SLPC  H15Y 6918   3.704   0.494   8.096 -1.1758 -1.3934  0.2891
   76SLPC  C316 6919   3.829   0.310   8.075 -0.1254 -0.2276  0.4771
   76SLPC  H16X 6920   3.927   0.348   8.114 -0.2226 -0.1087  0.6073
   76SLPC  H16Y 6921   3.847   0.227   8.004  1.0742 -0.5475  1.1103
   76SLPC  C317 6922   3.761   0.250   8.203 -0.0166  0.1369  0.1718
   76SLPC  H17X 6923   3.816   0.159   8.236 -0.3104 -0.3903 -0.7367
   76SLPC  H17Y 6924   3.656   0.220   8.186 -0.3200 -0.0111  2.1050
   76SLPC  C318 6925   3.770   0.342   8.326  0.1499 -0.1726  0.6047
   76SLPC  H18X 6926   3.878   0.368   8.337 -0.1577  1.1294  0.7019
   76SLPC  H18Y 6927   3.726   0.283   8.409 -2.5548 -2.8255 -2.4580
   76SLPC  H18Z 6928   3.713   0.437   8.313 -0.9536 -1.1057 -1.9340
   77SLPC     N 6929   1.142   4.495   6.273 -0.3327  0.2038 -0.1486
   77SLPC   C13 6930   1.037   4.401   6.222  0.0711 -0.2068 -0.1292
   77SLPC  H13A 6931   1.044   4.395   6.114 -0.5794  0.6079 -0.2271
   77SLPC  H13B 6932   1.048   4.296   6.244 -1.8906 -0.9203 -2.2016
   77SLPC  H13C 6933   0.939   4.429   6.256 -0.5050 -0.7641 -1.2724
   77SLPC   C14 6934   1.114   4.628   6.217 -0.0475  0.2702  0.0202
   77SLPC  H14A 6935   1.187   4.700   6.252 -0.1763  0.8407 -0.8417
   77SLPC  H14B 6936   1.129   4.619   6.111  1.7279 -0.8812  0.3217
   77SLPC  H14C 6937   1.013   4.661   6.237 -0.5114 -1.0320 -0.0899
   77SLPC   C15 6938   1.280   4.444   6.234  0.7035  0.3735  0.9451
   77SLPC  H15A 6939   1.352   4.479   6.306  2.0312 -0.0727 -0.1270
   77SLPC  H15B 6940   1.277   4.336   6.235  0.6474  0.3583  0.0594
   77SLPC  H15C 6941   1.314   4.480   6.138 -2.0263  0.0093 -0.2711
   77SLPC   C12 6942   1.149   4.513   6.426 -0.5673  0.2677 -1.2308
   77SLPC  H12A 6943   1.213   4.598   6.443 -0.3082  0.1332 -1.5339
   77SLPC  H12B 6944   1.188   4.424   6.474 -0.2631  1.1846  0.2756
   77SLPC   C11 6945   1.025   4.545   6.503  0.1189 -0.1199  0.0783
   77SLPC  H11A 6946   1.040   4.515   6.609 -2.1515  1.1007  0.8039
   77SLPC  H11B 6947   0.940   4.480   6.473  1.0047 -1.5654  0.5698
   77SLPC     P 6948   1.083   4.790   6.571 -0.5362 -0.3380 -0.3385
   77SLPC   O13 6949   1.226   4.760   6.569  0.0158  0.5536  0.0480
   77SLPC   O14 6950   1.047   4.923   6.507  0.3422 -0.3000 -0.3055
   77SLPC   O12 6951   0.991   4.683   6.500 -0.1712 -0.1882  0.3099
   77SLPC   O11 6952   1.032   4.794   6.718  0.5418 -0.6352 -0.5564
   77SLPC    C1 6953   0.897   4.779   6.755  0.9042 -0.5657 -0.2638
   77SLPC    HA 6954   0.825   4.812   6.677  2.6065  0.1342 -1.6025
   77SLPC    HB 6955   0.876   4.670   6.762 -2.1359 -0.2481 -2.3434
   77SLPC    C2 6956   0.860   4.859   6.883 -0.3090 -0.1273  0.1586
   77SLPC    HS 6957   0.870   4.967   6.857 -0.5924 -0.3595 -0.9527
   77SLPC   O21 6958   0.956   4.835   6.987  0.2519 -0.5712 -0.5055
   77SLPC   C21 6959   0.956   4.917   7.093 -0.3931 -0.1915 -0.2436
   77SLPC   O22 6960   0.885   5.016   7.107  0.3022  0.7036 -0.2729
   77SLPC   C22 6961   1.050   4.853   7.197 -0.2607  0.4523 -0.5364
   77SLPC   H2R 6962   1.076   4.747   7.175 -2.7471 -0.2993 -0.1641
   77SLPC   H2S 6963   1.149   4.902   7.197  0.1102 -0.2732  0.3396
   77SLPC    C3 6964   0.701   4.846   6.919  0.1893  0.3115  0.6595
   77SLPC    HX 6965   0.639   4.858   6.827 -0.2687  0.1202  0.9379
   77SLPC    HY 6966   0.662   4.929   6.982 -0.7600  0.3490  0.0525
   77SLPC   O31 6967   0.673   4.719   6.982 -0.4301  0.6111  0.1298
   77SLPC   C31 6968   0.640   4.621   6.900  0.1659 -0.3012  0.0860
   77SLPC   O32 6969   0.614   4.632   6.787  0.1158 -0.3528  0.1050
   77SLPC   C32 6970   0.630   4.486   6.976 -0.0253 -0.5183 -0.0491
   77SLPC   H2X 6971   0.714   4.419   6.947 -0.9463 -1.6489 -0.2059
   77SLPC   H2Y 6972   0.544   4.426   6.940 -0.9786 -0.4972  2.0659
   77SLPC   C23 6973   0.970   4.869   7.332 -0.3943  0.0196  0.2378
   77SLPC   H3R 6974   0.869   4.822   7.338 -0.9159  1.1757  0.7082
   77SLPC   H3S 6975   0.959   4.977   7.353 -1.1742 -0.0916  0.4473
   77SLPC   C24 6976   1.058   4.796   7.434  0.5010 -0.3974 -0.8947
   77SLPC   H4R 6977   1.156   4.846   7.451  0.2402 -0.1226 -0.1605
   77SLPC   H4S 6978   1.071   4.690   7.403  2.0396 -0.0809 -1.4172
   77SLPC   C25 6979   0.979   4.800   7.566  0.6304  0.5292  0.2743
   77SLPC   H5R 6980   0.893   4.730   7.558  0.0311  1.2443  0.3516
   77SLPC   H5S 6981   0.940   4.904   7.572 -1.8339 -0.3500  0.6869
   77SLPC   C26 6982   1.055   4.770   7.691 -0.1938 -0.1493 -0.0023
   77SLPC   H6R 6983   1.140   4.842   7.694  0.4533 -0.8730 -0.6203
   77SLPC   H6S 6984   1.092   4.665   7.692  1.6942  0.4738 -0.5181
   77SLPC   C27 6985   0.969   4.778   7.822  0.5801 -0.3900  0.3550
   77SLPC   H7R 6986   0.906   4.686   7.825 -0.9366  0.5878 -0.2423
   77SLPC   H7S 6987   0.902   4.866   7.820 -1.2118 -1.6643  1.0979
   77SLPC   C28 6988   1.060   4.779   7.945  0.1618 -0.0933  0.9671
   77SLPC   H8R 6989   0.987   4.794   8.027 -0.6079  1.0268  0.0880
   77SLPC   H8S 6990   1.120   4.873   7.943 -0.4045  0.2534 -0.6762
   77SLPC   C29 6991   1.160   4.672   7.970 -0.0668 -0.1392 -0.3297
   77SLPC   H9R 6992   1.226   4.649   7.886  0.9794 -0.8408  0.6477
   77SLPC  C210 6993   1.189   4.604   8.084  0.0523 -1.1592  0.0075
   77SLPC  H10R 6994   1.264   4.523   8.085  0.5044 -0.7866 -1.2303
   77SLPC  C211 6995   1.101   4.622   8.205  0.0937  0.7888 -0.3052
   77SLPC  H11R 6996   1.008   4.568   8.181 -0.4905  2.5308 -2.2454
   77SLPC  H11S 6997   1.084   4.731   8.222  0.9952  0.7874  0.7769
   77SLPC  C212 6998   1.158   4.571   8.336  0.0355  0.0581  0.6391
   77SLPC  H12R 6999   1.258   4.609   8.361 -0.3512  1.0586  0.7163
   77SLPC  C213 7000   1.096   4.496   8.426 -0.4955  0.6531  0.3932
   77SLPC  H13R 7001   1.145   4.458   8.518  1.9668  1.1361 -0.6394
   77SLPC  C214 7002   0.952   4.445   8.418  0.0443  1.0332 -0.5862
   77SLPC  H14R 7003   0.946   4.338   8.388  2.2668  0.6731  0.0435
   77SLPC  H14S 7004   0.897   4.495   8.336 -1.8799 -1.8814 -1.2401
   77SLPC  C215 7005   0.876   4.461   8.550  0.9888  0.2742  0.1409
   77SLPC  H15R 7006   0.943   4.421   8.629  1.8970  1.9625  0.2698
   77SLPC  H15S 7007   0.784   4.399   8.546  1.9615 -1.2318  0.1402
   77SLPC  C216 7008   0.823   4.605   8.574 -0.8255 -0.2126 -0.0457
   77SLPC  H16R 7009   0.899   4.686   8.563 -0.2072 -0.4395  2.1361
   77SLPC  H16S 7010   0.790   4.611   8.680  1.1555 -0.7407  0.6420
   77SLPC  C217 7011   0.697   4.650   8.482 -0.7214  0.5041 -0.7065
   77SLPC  H17R 7012   0.626   4.695   8.555 -2.8802 -0.9395 -1.7911
   77SLPC  H17S 7013   0.657   4.549   8.457  1.7379 -0.8799  0.5701
   77SLPC  C218 7014   0.723   4.749   8.372 -0.6127  0.6337  0.7602
   77SLPC  H18R 7015   0.631   4.782   8.319 -0.9605  0.4852  1.2594
   77SLPC  H18S 7016   0.801   4.700   8.310 -0.2059  0.9397  1.0283
   77SLPC  H18T 7017   0.776   4.840   8.406  0.8551  0.9638 -2.1535
   77SLPC   C33 7018   0.636   4.490   7.126  0.1456  0.3731 -0.7846
   77SLPC   H3X 7019   0.590   4.394   7.157  0.3878  1.2970  3.0060
   77SLPC   H3Y 7020   0.568   4.569   7.165  1.4026  0.8182  0.5944
   77SLPC   C34 7021   0.779   4.489   7.201 -0.1162  0.2127 -0.6438
   77SLPC   H4X 7022   0.832   4.585   7.185 -1.3427  1.7530  3.3887
   77SLPC   H4Y 7023   0.846   4.413   7.155  0.4926  0.9117 -0.9385
   77SLPC   C35 7024   0.771   4.466   7.354  0.0452  0.0890 -0.7589
   77SLPC   H5X 7025   0.875   4.476   7.390  0.5520  1.1706 -2.4028
   77SLPC   H5Y 7026   0.729   4.366   7.377  1.7795 -0.4705  0.1251
   77SLPC   C36 7027   0.693   4.567   7.436  0.0212  0.4440  0.0966
   77SLPC   H6X 7028   0.589   4.580   7.401  0.9027 -0.1152 -3.0373
   77SLPC   H6Y 7029   0.739   4.669   7.432 -1.1038  0.9536 -0.1874
   77SLPC   C37 7030   0.676   4.516   7.577 -0.5131 -0.1567 -0.0397
   77SLPC   H7X 7031   0.777   4.473   7.598 -0.2082 -1.1605 -3.0610
   77SLPC   H7Y 7032   0.605   4.431   7.573  1.8479 -2.2034 -1.2914
   77SLPC   C38 7033   0.642   4.618   7.684 -0.2535 -0.0570 -0.1601
   77SLPC   H8X 7034   0.543   4.658   7.654  0.8434  2.0596 -1.1657
   77SLPC   H8Y 7035   0.716   4.699   7.665 -0.5438 -0.1137 -1.6580
   77SLPC   C39 7036   0.643   4.571   7.823 -0.0724  0.3596 -0.5400
   77SLPC   H9X 7037   0.651   4.658   7.891  1.7505 -1.8892  2.3720
   77SLPC   H9Y 7038   0.734   4.512   7.846  1.2951  2.2865 -0.7277
   77SLPC  C310 7039   0.522   4.492   7.859  0.1397 -0.0956 -0.2894
   77SLPC  H10X 7040   0.517   4.390   7.815 -0.2827 -0.4831  0.6093
   77SLPC  H10Y 7041   0.435   4.546   7.816  0.2235 -1.4264 -2.2606
   77SLPC  C311 7042   0.488   4.468   8.010 -0.1062 -0.4196 -0.0151
   77SLPC  H11X 7043   0.577   4.442   8.071 -0.2557  0.1354  0.4480
   77SLPC  H11Y 7044   0.418   4.382   8.015  1.5291 -1.7368  2.8967
   77SLPC  C312 7045   0.413   4.592   8.066  0.3510 -0.7047 -0.8075
   77SLPC  H12X 7046   0.318   4.599   8.010 -0.3148 -1.5834  0.1812
   77SLPC  H12Y 7047   0.479   4.675   8.032  0.4309 -0.9464 -1.2479
   77SLPC  C313 7048   0.402   4.604   8.215 -0.1731 -0.6746  0.0811
   77SLPC  H13X 7049   0.346   4.699   8.232 -0.6423 -0.0839 -3.8816
   77SLPC  H13Y 7050   0.496   4.614   8.273  0.3179  3.2561 -1.1013
   77SLPC  C314 7051   0.316   4.499   8.275 -0.5022  0.9478  0.2031
   77SLPC  H14X 7052   0.371   4.403   8.279 -0.5337  0.9208 -0.0257
   77SLPC  H14Y 7053   0.228   4.478   8.210 -1.4529  2.2858  1.0167
   77SLPC  C315 7054   0.266   4.522   8.421 -0.1142  0.4307  0.3545
   77SLPC  H15X 7055   0.182   4.593   8.404 -1.2568 -1.3006 -1.7130
   77SLPC  H15Y 7056   0.335   4.585   8.482 -1.0466  2.8372 -0.9715
   77SLPC  C316 7057   0.235   4.391   8.502  0.4631 -0.8186  0.1995
   77SLPC  H16X 7058   0.178   4.418   8.594 -1.0450 -0.7767 -0.7189
   77SLPC  H16Y 7059   0.338   4.350   8.509  1.6235  1.2885 -2.7367
   77SLPC  C317 7060   0.142   4.296   8.428 -0.0876 -0.2296  0.4725
   77SLPC  H17X 7061   0.188   4.266   8.331 -3.1545  0.7863 -1.4763
   77SLPC  H17Y 7062   0.054   4.359   8.403  1.0216  1.7029  1.2301
   77SLPC  C318 7063   0.093   4.167   8.506 -0.7615 -0.4646  0.4526
   77SLPC  H18X 7064   0.056   4.093   8.431 -1.3618 -0.4130  0.6948
   77SLPC  H18Y 7065   0.019   4.188   8.587  1.2170  2.1531  1.7354
   77SLPC  H18Z 7066   0.181   4.123   8.557 -0.3189 -1.1005 -0.8132
   78SLPC     N 7067   4.558   6.396   6.258 -0.1772  0.3798 -0.2952
   78SLPC   C13 7068   4.561   6.254   6.296 -0.4045  0.4709 -0.2510
   78SLPC  H13A 7069   4.522   6.254   6.397  0.6622  3.0609  0.2426
   78SLPC  H13B 7070   4.507   6.193   6.225  2.1568 -1.2348 -0.9038
   78SLPC  H13C 7071   4.662   6.214   6.299 -1.4737 -2.5007 -0.5666
   78SLPC   C14 7072   4.645   6.425   6.137 -0.1175 -0.0822 -0.8185
   78SLPC  H14A 7073   4.612   6.375   6.047  1.9858 -2.4255 -0.4077
   78SLPC  H14B 7074   4.644   6.531   6.116 -0.1249 -0.4158 -2.6983
   78SLPC  H14C 7075   4.749   6.402   6.157 -0.0541  1.5270  1.0720
   78SLPC   C15 7076   4.615   6.474   6.369  0.2244 -0.6325 -0.5723
   78SLPC  H15A 7077   4.559   6.470   6.461  2.0975  0.2707  0.6562
   78SLPC  H15B 7078   4.714   6.448   6.402  0.1590 -0.2410 -0.0520
   78SLPC  H15C 7079   4.628   6.574   6.329  0.6172 -0.6881 -0.5812
   78SLPC   C12 7080   4.411   6.432   6.237  0.0075  0.5842  0.5642
   78SLPC  H12A 7081   4.348   6.370   6.299 -1.2317  1.0030 -0.2196
   78SLPC  H12B 7082   4.386   6.411   6.134 -0.4237  0.7800  0.6271
   78SLPC   C11 7083   4.352   6.567   6.275 -0.0258  0.1158 -0.6189
   78SLPC  H11A 7084   4.375   6.594   6.380  0.9431  1.7292 -1.2010
   78SLPC  H11B 7085   4.243   6.548   6.266  0.4155 -2.6719 -0.9278
   78SLPC     P 7086   4.505   6.767   6.169  0.2656 -0.5581  0.0215
   78SLPC   O13 7087   4.604   6.707   6.070  0.4526  0.0289 -0.4294
   78SLPC   O14 7088   4.454   6.904   6.144 -0.3787 -0.2499 -0.0346
   78SLPC   O12 7089   4.381   6.666   6.177 -0.5333  0.0534  0.7724
   78SLPC   O11 7090   4.561   6.763   6.315  0.4189  0.7614 -0.1515
   78SLPC    C1 7091   4.626   6.868   6.386 -0.2738 -0.7315  0.0987
   78SLPC    HA 7092   4.716   6.898   6.328 -0.3505 -0.9832 -0.1547
   78SLPC    HB 7093   4.565   6.961   6.389  1.2981  0.3267  1.1139
   78SLPC    C2 7094   4.661   6.832   6.529 -0.1713 -0.0914  0.4306
   78SLPC    HS 7095   4.719   6.915   6.573  1.2449 -1.4583  1.2402
   78SLPC   O21 7096   4.752   6.721   6.536  0.1404  0.3893 -0.2980
   78SLPC   C21 7097   4.878   6.755   6.524 -0.4719 -0.0793 -0.8056
   78SLPC   O22 7098   4.920   6.870   6.499 -0.1006 -0.0500  0.3001
   78SLPC   C22 7099   4.975   6.641   6.568  0.3966  0.3749  0.0392
   78SLPC   H2R 7100   4.912   6.562   6.615  1.1839 -0.3150 -0.0466
   78SLPC   H2S 7101   5.018   6.601   6.473 -1.4388 -1.2117 -0.1820
   78SLPC    C3 7102   4.540   6.812   6.626  0.9964 -1.0094 -0.0305
   78SLPC    HX 7103   4.468   6.745   6.574 -1.7595  2.9672 -1.7661
   78SLPC    HY 7104   4.493   6.912   6.639 -0.8517 -1.7045 -0.9763
   78SLPC   O31 7105   4.570   6.754   6.753 -0.5116 -0.4884 -0.1919
   78SLPC   C31 7106   4.560   6.619   6.763 -0.3278  0.2394 -0.2405
   78SLPC   O32 7107   4.520   6.549   6.674  0.7147 -0.3828  0.1569
   78SLPC   C32 7108   4.644   6.578   6.881  0.4492  0.1499  0.0274
   78SLPC   H2X 7109   4.752   6.594   6.863  0.6310 -0.7275  0.2823
   78SLPC   H2Y 7110   4.621   6.469   6.882  1.4910 -0.0908 -0.6816
   78SLPC   C23 7111   5.094   6.690   6.654 -0.0691  0.6266 -0.3535
   78SLPC   H3R 7112   5.136   6.784   6.612 -0.9307  1.7200  1.1313
   78SLPC   H3S 7113   5.174   6.613   6.643 -0.6526 -0.2454  1.0993
   78SLPC   C24 7114   5.053   6.704   6.804  0.0527 -0.1892  0.1356
   78SLPC   H4R 7115   4.943   6.709   6.800  0.0784 -0.2018 -0.7986
   78SLPC   H4S 7116   5.097   6.798   6.843 -1.9424  1.9108 -2.3063
   78SLPC   C25 7117   5.096   6.582   6.881 -0.2981  0.4665  0.3301
   78SLPC   H5R 7118   5.202   6.566   6.851 -0.9929 -3.0677 -0.6371
   78SLPC   H5S 7119   5.044   6.487   6.859 -0.0841  0.2679  0.6663
   78SLPC   C26 7120   5.080   6.599   7.034  0.0534 -0.0231  0.4221
   78SLPC   H6R 7121   4.976   6.638   7.031 -0.1300 -0.5417 -1.0881
   78SLPC   H6S 7122   5.140   6.685   7.068 -0.1788  1.4484 -2.5276
   78SLPC   C27 7123   5.088   6.470   7.115  0.1456  0.5448  1.3793
   78SLPC   H7R 7124   5.190   6.430   7.096  0.4722  2.6185 -2.3082
   78SLPC   H7S 7125   5.022   6.402   7.056  1.0805  0.0714  0.8457
   78SLPC   C28 7126   5.035   6.488   7.259  0.4647  0.0787  0.1156
   78SLPC   H8R 7127   4.924   6.494   7.252  0.2298 -3.6661 -2.6820
   78SLPC   H8S 7128   5.065   6.592   7.283  0.9583 -0.2897  1.1468
   78SLPC   C29 7129   5.070   6.394   7.373 -0.4026 -0.5231 -0.8133
   78SLPC   H9R 7130   5.060   6.287   7.351  1.1799 -0.9771  0.5236
   78SLPC  C210 7131   5.120   6.424   7.491  0.0329  0.0210 -0.0209
   78SLPC  H10R 7132   5.144   6.341   7.560  2.3015 -0.5962 -1.4101
   78SLPC  C211 7133   5.142   6.562   7.550 -0.3632 -0.6442 -0.3671
   78SLPC  H11R 7134   5.189   6.627   7.473  0.2127 -1.7836 -0.9964
   78SLPC  H11S 7135   5.217   6.550   7.630 -1.3855  0.3611  0.7982
   78SLPC  C212 7136   5.014   6.620   7.607  0.0563 -0.4475 -0.5489
   78SLPC  H12R 7137   4.946   6.667   7.534  0.2029 -0.5933 -0.7791
   78SLPC  C213 7138   4.980   6.622   7.741  0.0852  0.3256 -0.0350
   78SLPC  H13R 7139   4.883   6.666   7.768 -0.1238  0.5967 -1.1769
   78SLPC  C214 7140   5.060   6.561   7.855  0.2060 -0.7899 -0.3393
   78SLPC  H14R 7141   5.101   6.652   7.902  0.9862 -0.8966 -0.7980
   78SLPC  H14S 7142   5.146   6.498   7.824 -0.2356 -1.0142 -1.1403
   78SLPC  C215 7143   4.973   6.476   7.951  0.3267  0.0312  0.2404
   78SLPC  H15R 7144   4.917   6.399   7.894  2.4038 -0.5867 -1.0503
   78SLPC  H15S 7145   4.902   6.533   8.016  0.3412 -0.5203  0.7541
   78SLPC  C216 7146   5.075   6.395   8.040  0.4568 -0.5430 -0.5590
   78SLPC  H16R 7147   5.156   6.463   8.074 -0.3958 -0.8327  2.3932
   78SLPC  H16S 7148   5.126   6.312   7.987 -0.1512  1.0942 -3.9437
   78SLPC  C217 7149   5.013   6.353   8.173  0.6083 -0.7904 -0.8016
   78SLPC  H17R 7150   5.064   6.262   8.211 -0.8879 -0.9413  0.9745
   78SLPC  H17S 7151   4.910   6.318   8.148 -0.3638  0.7397  0.8067
   78SLPC  C218 7152   5.009   6.463   8.278 -0.1587 -0.2300 -0.3908
   78SLPC  H18R 7153   5.102   6.522   8.295 -0.8392  0.2894  1.9188
   78SLPC  H18S 7154   4.977   6.414   8.372  0.2957 -0.3552 -0.2958
   78SLPC  H18T 7155   4.939   6.542   8.245  2.0804  1.1701 -2.0608
   78SLPC   C33 7156   4.602   6.640   7.020  0.2416  0.3492  0.9252
   78SLPC   H3X 7157   4.495   6.612   7.025  0.6625 -1.5054  0.2468
   78SLPC   H3Y 7158   4.615   6.750   7.016  0.8821  0.2484 -0.1164
   78SLPC   C34 7159   4.668   6.572   7.140  0.3810  1.0104 -0.2327
   78SLPC   H4X 7160   4.779   6.577   7.131  0.4949 -1.8315 -1.3981
   78SLPC   H4Y 7161   4.643   6.464   7.139  0.2124  1.0105  1.5063
   78SLPC   C35 7162   4.619   6.621   7.274 -0.5649  0.5721  0.0042
   78SLPC   H5X 7163   4.509   6.637   7.281 -0.5567  2.1430 -2.2757
   78SLPC   H5Y 7164   4.666   6.721   7.288  1.8634 -0.7891  2.3710
   78SLPC   C36 7165   4.667   6.546   7.403  0.6316  0.5028  0.7650
   78SLPC   H6X 7166   4.776   6.528   7.413  0.1719 -2.0617  1.6825
   78SLPC   H6Y 7167   4.630   6.442   7.404  0.3488  0.6065  1.2170
   78SLPC   C37 7168   4.613   6.626   7.522 -0.0381  0.2434  0.0374
   78SLPC   H7X 7169   4.508   6.656   7.504 -0.9186 -1.3734  2.0672
   78SLPC   H7Y 7170   4.682   6.711   7.538  1.3045 -0.4920 -1.5708
   78SLPC   C38 7171   4.607   6.538   7.648  0.3810 -0.4956  0.2580
   78SLPC   H8X 7172   4.716   6.523   7.665  0.2091 -0.7451  1.1470
   78SLPC   H8Y 7173   4.561   6.439   7.628 -1.3710  0.1639  0.8670
   78SLPC   C39 7174   4.539   6.599   7.773  0.3113  0.3047  0.3872
   78SLPC   H9X 7175   4.435   6.563   7.756  0.5807  0.1933 -1.1654
   78SLPC   H9Y 7176   4.536   6.710   7.783  2.9849  0.3282  1.9244
   78SLPC  C310 7177   4.597   6.557   7.911 -0.2816 -0.4056  1.0059
   78SLPC  H10X 7178   4.704   6.586   7.920 -0.5766  1.1439 -0.0904
   78SLPC  H10Y 7179   4.583   6.447   7.907  1.2426 -0.6320  1.1874
   78SLPC  C311 7180   4.520   6.616   8.031  0.0992 -0.1022 -0.1115
   78SLPC  H11X 7181   4.415   6.578   8.030  0.1930 -0.4777  1.4351
   78SLPC  H11Y 7182   4.518   6.727   8.036  2.2412 -0.0381  0.1558
   78SLPC  C312 7183   4.587   6.556   8.148 -0.2573  0.4524 -0.0338
   78SLPC  H12X 7184   4.695   6.578   8.160  0.1181 -0.2400 -1.8408
   78SLPC  H12Y 7185   4.581   6.446   8.133 -0.0937  0.8475 -4.1313
   78SLPC  C313 7186   4.526   6.601   8.279 -0.3856  0.1708 -0.1675
   78SLPC  H13X 7187   4.416   6.610   8.267 -0.6269  2.6826  2.5501
   78SLPC  H13Y 7188   4.565   6.699   8.314 -0.5964 -0.4218  1.8910
   78SLPC  C314 7189   4.549   6.507   8.392  0.1207  0.0158  0.5391
   78SLPC  H14X 7190   4.647   6.523   8.441 -0.5179 -0.4710  2.0446
   78SLPC  H14Y 7191   4.541   6.405   8.349  0.0343  0.9124 -1.6892
   78SLPC  C315 7192   4.447   6.507   8.507 -0.1288 -0.4756 -0.4883
   78SLPC  H15X 7193   4.480   6.428   8.578 -1.3571 -0.1341  0.5115
   78SLPC  H15Y 7194   4.346   6.479   8.469 -0.8116  0.0861  0.8264
   78SLPC  C316 7195   4.437   6.647   8.575  0.1927 -0.8592 -0.4539
   78SLPC  H16X 7196   4.400   6.719   8.499 -0.4856 -1.3097 -0.5556
   78SLPC  H16Y 7197   4.539   6.682   8.600  0.4263 -1.4597 -0.5608
   78SLPC  C317 7198   4.350   6.671   8.700 -0.5827 -0.2666  0.7350
   78SLPC  H17X 7199   4.401   6.749   8.761  0.8331 -1.4082  1.0429
   78SLPC  H17Y 7200   4.364   6.577   8.757 -0.6691 -1.0180 -0.4362
   78SLPC  C318 7201   4.202   6.697   8.665  0.8990  0.2739 -0.6866
   78SLPC  H18X 7202   4.195   6.779   8.590  0.8076  1.3867  0.4907
   78SLPC  H18Y 7203   4.138   6.733   8.749 -0.6537 -2.5661 -0.5223
   78SLPC  H18Z 7204   4.152   6.601   8.641 -0.2363  0.6008  0.2582
   79SLPC     N 7205   1.529   1.312   6.373 -0.3427  0.2100  0.4617
   79SLPC   C13 7206   1.612   1.216   6.293  0.0959  0.4153 -0.4117
   79SLPC  H13A 7207   1.604   1.124   6.349 -2.1553  1.5441  1.2937
   79SLPC  H13B 7208   1.569   1.206   6.194 -1.4883  2.2899  0.0326
   79SLPC  H13C 7209   1.713   1.251   6.277  0.7450 -0.9367  0.5137
   79SLPC   C14 7210   1.606   1.348   6.497 -0.0173 -0.2705 -0.4140
   79SLPC  H14A 7211   1.569   1.302   6.588  0.5030  0.8770  0.4082
   79SLPC  H14B 7212   1.713   1.333   6.502 -0.2918 -4.4202 -2.7527
   79SLPC  H14C 7213   1.583   1.452   6.518 -1.0004 -0.6467  0.4437
   79SLPC   C15 7214   1.406   1.243   6.417 -0.4066  0.2262  0.7694
   79SLPC  H15A 7215   1.402   1.172   6.499 -0.4218 -0.3542  0.2733
   79SLPC  H15B 7216   1.333   1.310   6.460 -2.8784 -1.7415 -0.0935
   79SLPC  H15C 7217   1.355   1.200   6.333  3.5209 -2.5575 -0.4660
   79SLPC   C12 7218   1.500   1.431   6.291 -0.4970 -0.0516 -0.5096
   79SLPC  H12A 7219   1.461   1.401   6.195 -2.7431  1.4556 -0.1600
   79SLPC  H12B 7220   1.598   1.476   6.279 -0.0984 -0.9279 -0.5843
   79SLPC   C11 7221   1.408   1.545   6.352 -0.3080  0.5621  0.6111
   79SLPC  H11A 7222   1.393   1.618   6.269  1.3928  0.5992  0.3148
   79SLPC  H11B 7223   1.471   1.592   6.429  0.5791  0.4295 -0.0163
   79SLPC     P 7224   1.183   1.597   6.457  0.0697 -0.0939 -0.4350
   79SLPC   O13 7225   1.170   1.694   6.348 -0.6651 -0.4249 -0.1439
   79SLPC   O14 7226   1.057   1.531   6.494 -0.4024 -0.2530 -0.3257
   79SLPC   O12 7227   1.289   1.497   6.414 -0.4470  0.3658  0.2500
   79SLPC   O11 7228   1.249   1.667   6.575 -0.0103 -0.2858  0.2630
   79SLPC    C1 7229   1.318   1.593   6.678 -0.4003  0.6372 -0.0006
   79SLPC    HA 7230   1.356   1.493   6.646  2.5208  0.5051  3.3144
   79SLPC    HB 7231   1.402   1.657   6.710  1.1013 -0.5871 -1.3222
   79SLPC    C2 7232   1.240   1.577   6.820 -0.9121 -0.0087 -0.3337
   79SLPC    HS 7233   1.147   1.518   6.805 -1.4447  0.4380  1.0578
   79SLPC   O21 7234   1.216   1.711   6.872  0.6433  0.3128  0.0191
   79SLPC   C21 7235   1.090   1.740   6.922  0.1176  0.2153  0.0529
   79SLPC   O22 7236   0.996   1.664   6.918  0.1981 -0.1556  0.4578
   79SLPC   C22 7237   1.090   1.886   6.978 -0.0835  0.3103 -0.3615
   79SLPC   H2R 7238   1.196   1.917   6.993  0.1799 -0.3462 -0.8152
   79SLPC   H2S 7239   1.050   1.957   6.904  2.3359  1.7489 -0.3986
   79SLPC    C3 7240   1.319   1.482   6.916 -0.1239  0.3632 -0.3427
   79SLPC    HX 7241   1.417   1.526   6.945 -1.1764  1.8759  1.1251
   79SLPC    HY 7242   1.333   1.392   6.852  0.8597  1.3549 -1.5814
   79SLPC   O31 7243   1.245   1.464   7.038  0.4037  0.0971  0.2113
   79SLPC   C31 7244   1.177   1.344   7.045 -0.4056  0.4427 -0.4615
   79SLPC   O32 7245   1.177   1.250   6.966 -0.1093 -0.7257  0.0465
   79SLPC   C32 7246   1.090   1.352   7.170  0.2693  0.3442 -0.8837
   79SLPC   H2X 7247   1.002   1.399   7.120 -0.6289  0.3059  0.6205
   79SLPC   H2Y 7248   1.147   1.425   7.231 -0.9086  1.1030 -0.6525
   79SLPC   C23 7249   1.015   1.897   7.115  0.0869  0.4113  1.0128
   79SLPC   H3R 7250   0.907   1.871   7.108 -0.3618  2.4899 -1.7934
   79SLPC   H3S 7251   1.012   2.007   7.131  1.7106  0.3218  2.1578
   79SLPC   C24 7252   1.086   1.830   7.234 -0.3578 -0.5837 -0.1255
   79SLPC   H4R 7253   1.191   1.867   7.236 -0.5992  0.0916  1.1780
   79SLPC   H4S 7254   1.092   1.723   7.204  1.3018 -0.9150  1.2423
   79SLPC   C25 7255   1.004   1.835   7.365 -0.1634  0.1219 -0.1035
   79SLPC   H5R 7256   0.921   1.762   7.364  0.0911 -0.3798  3.0276
   79SLPC   H5S 7257   0.965   1.935   7.393  1.0246 -0.1234  2.7701
   79SLPC   C26 7258   1.090   1.795   7.487 -0.3007 -1.2268  0.0761
   79SLPC   H6R 7259   1.164   1.718   7.455 -0.9022 -0.5076 -3.4086
   79SLPC   H6S 7260   1.027   1.754   7.569 -0.2244 -2.7888 -0.6083
   79SLPC   C27 7261   1.169   1.915   7.545 -0.2405 -0.3106 -0.1777
   79SLPC   H7R 7262   1.101   2.003   7.549  0.4056  0.1816  0.1456
   79SLPC   H7S 7263   1.255   1.937   7.478  0.7959 -1.4737  0.7352
   79SLPC   C28 7264   1.202   1.882   7.691  0.3940 -0.2052 -0.3037
   79SLPC   H8R 7265   1.103   1.868   7.739  1.1891  1.7888  2.0715
   79SLPC   H8S 7266   1.252   1.970   7.735  0.1780 -0.7033  0.9949
   79SLPC   C29 7267   1.293   1.765   7.715 -0.0976 -0.0612  0.3760
   79SLPC   H9R 7268   1.259   1.661   7.703  0.8993 -0.3484 -0.0011
   79SLPC  C210 7269   1.414   1.781   7.776  0.6104  0.2103 -0.0766
   79SLPC  H10R 7270   1.459   1.682   7.796  0.5010  0.0059 -0.8103
   79SLPC  C211 7271   1.495   1.909   7.816  0.8773  0.4567 -0.2847
   79SLPC  H11R 7272   1.432   1.984   7.868 -1.1981  0.1818 -2.2578
   79SLPC  H11S 7273   1.533   1.961   7.725 -0.0345  0.0951 -0.8848
   79SLPC  C212 7274   1.613   1.880   7.906  0.1489 -0.6442  1.0812
   79SLPC  H12R 7275   1.592   1.838   8.005 -1.6443  0.7358  1.3569
   79SLPC  C213 7276   1.740   1.917   7.884  0.2630 -0.2421 -0.5067
   79SLPC  H13R 7277   1.806   1.895   7.969 -2.4156  2.2581  2.4681
   79SLPC  C214 7278   1.795   1.992   7.768 -0.4828  0.4527  0.3626
   79SLPC  H14R 7279   1.834   2.091   7.799  1.6786 -0.1935 -0.1619
   79SLPC  H14S 7280   1.719   2.010   7.689 -1.7488 -0.0018  1.4373
   79SLPC  C215 7281   1.918   1.926   7.703 -0.0040  0.3858  0.4304
   79SLPC  H15R 7282   1.925   1.990   7.613 -0.5845  1.2816  1.0095
   79SLPC  H15S 7283   1.909   1.818   7.675  1.3118  0.6232 -1.0941
   79SLPC  C216 7284   2.047   1.958   7.783 -0.2134  0.0737  0.1092
   79SLPC  H16R 7285   2.033   1.910   7.882  0.3322  0.7463  0.5114
   79SLPC  H16S 7286   2.053   2.066   7.807 -1.1744 -0.3496  2.5314
   79SLPC  C217 7287   2.171   1.910   7.703 -0.0767  0.3068 -0.3222
   79SLPC  H17R 7288   2.169   1.983   7.619 -1.4921  0.7189  0.0412
   79SLPC  H17S 7289   2.160   1.812   7.652  1.8661  0.0791 -0.3784
   79SLPC  C218 7290   2.301   1.900   7.783 -0.0873 -0.4874  0.2292
   79SLPC  H18R 7291   2.326   2.006   7.805 -0.2856 -0.1859 -0.9818
   79SLPC  H18S 7292   2.383   1.845   7.732  0.7587 -0.1239  1.1553
   79SLPC  H18T 7293   2.295   1.842   7.878  3.5011 -2.0233 -0.3195
   79SLPC   C33 7294   1.057   1.221   7.238 -0.6391  0.2031 -0.3350
   79SLPC   H3X 7295   0.997   1.156   7.169  0.1204  0.0316 -0.8416
   79SLPC   H3Y 7296   0.987   1.242   7.322  0.8480  0.5995  0.8259
   79SLPC   C34 7297   1.180   1.156   7.297  0.0800  0.2601 -0.5459
   79SLPC   H4X 7298   1.234   1.239   7.346  2.1268 -1.2303 -0.1421
   79SLPC   H4Y 7299   1.245   1.108   7.220  1.8935  1.1221  0.3825
   79SLPC   C35 7300   1.135   1.058   7.413 -1.1091 -0.5610  0.4891
   79SLPC   H5X 7301   1.091   0.969   7.363 -1.2811 -0.5674  0.6476
   79SLPC   H5Y 7302   1.059   1.112   7.474 -2.2886  0.7418 -2.0009
   79SLPC   C36 7303   1.259   1.017   7.498  0.3060 -0.6357 -0.5857
   79SLPC   H6X 7304   1.213   0.978   7.592 -0.1881 -0.6251 -0.8221
   79SLPC   H6Y 7305   1.308   1.114   7.522  0.0164 -0.0008 -2.4278
   79SLPC   C37 7306   1.361   0.918   7.434 -0.9387  0.6145  0.3626
   79SLPC   H7X 7307   1.410   0.960   7.343 -2.0309  0.7973 -0.1533
   79SLPC   H7Y 7308   1.310   0.827   7.397 -0.0228 -1.4372  3.7833
   79SLPC   C38 7309   1.468   0.875   7.530  0.0622  0.2546  0.0424
   79SLPC   H8X 7310   1.463   0.928   7.627  1.0043  0.4866 -0.0300
   79SLPC   H8Y 7311   1.568   0.884   7.484  0.8006 -1.9728  1.0855
   79SLPC   C39 7312   1.457   0.720   7.562  0.4546  0.2003  0.3114
   79SLPC   H9X 7313   1.554   0.688   7.606  1.0269 -1.0582 -1.7347
   79SLPC   H9Y 7314   1.443   0.657   7.472 -0.4569 -0.0475  0.6100
   79SLPC  C310 7315   1.330   0.684   7.653  0.0318  0.6372  0.0418
   79SLPC  H10X 7316   1.239   0.691   7.589 -0.0113 -1.2608 -0.1508
   79SLPC  H10Y 7317   1.314   0.757   7.735 -3.0278 -0.6836  0.7760
   79SLPC  C311 7318   1.319   0.530   7.687 -0.4016 -0.5610  0.1564
   79SLPC  H11X 7319   1.419   0.495   7.722 -0.1336  0.6516  0.6625
   79SLPC  H11Y 7320   1.300   0.469   7.596  2.6111  2.9836 -3.2513
   79SLPC  C312 7321   1.201   0.504   7.787  0.1734  0.7103 -0.6421
   79SLPC  H12X 7322   1.109   0.552   7.748  0.4743  0.4918 -1.6699
   79SLPC  H12Y 7323   1.223   0.569   7.874  0.9633  0.7564 -0.8666
   79SLPC  C313 7324   1.172   0.352   7.822 -0.1739  0.4207  0.0130
   79SLPC  H13X 7325   1.272   0.315   7.854 -1.3503 -2.5844  0.5301
   79SLPC  H13Y 7326   1.134   0.294   7.735 -0.2851  2.3561 -1.2810
   79SLPC  C314 7327   1.084   0.333   7.955 -0.5226 -0.0830  0.4530
   79SLPC  H14X 7328   0.977   0.356   7.938 -0.6992 -0.0537  1.5229
   79SLPC  H14Y 7329   1.121   0.416   8.019  1.1794 -1.0503  0.7849
   79SLPC  C315 7330   1.121   0.207   8.025  0.8910 -0.1213 -0.5985
   79SLPC  H15X 7331   1.227   0.214   8.056  1.2495 -1.8288 -1.3159
   79SLPC  H15Y 7332   1.123   0.132   7.943  2.3792  0.6859 -1.3279
   79SLPC  C316 7333   1.030   0.153   8.138  0.5437  0.5744 -0.4982
   79SLPC  H16X 7334   0.929   0.149   8.092  0.7830 -2.8382 -0.9465
   79SLPC  H16Y 7335   1.032   0.221   8.226 -1.1943 -0.6919  0.5855
   79SLPC  C317 7336   1.065   0.015   8.187 -0.0667  0.0065  0.3670
   79SLPC  H17X 7337   1.047  -0.050   8.100  2.7463  1.2073 -1.2704
   79SLPC  H17Y 7338   1.004  -0.006   8.278  0.7481  1.0870  1.2060
   79SLPC  C318 7339   1.207  -0.008   8.232  0.3187 -0.0730  0.6955
   79SLPC  H18X 7340   1.250   0.070   8.299 -1.2080  2.1674 -0.7886
   79SLPC  H18Y 7341   1.273  -0.001   8.142  0.0360  0.9186  0.5476
   79SLPC  H18Z 7342   1.218  -0.104   8.286 -1.1048 -1.2115 -0.9603
   80SLPC     N 7343   1.491   5.340   6.002  0.5473  0.0112 -0.1964
   80SLPC   C13 7344   1.552   5.368   6.131  0.0324 -0.9534  0.2162
   80SLPC  H13A 7345   1.641   5.428   6.124 -0.1094 -0.6177  1.1012
   80SLPC  H13B 7346   1.485   5.413   6.203 -0.4911  0.4304 -1.0831
   80SLPC  H13C 7347   1.582   5.275   6.177 -1.5745 -2.0797 -0.8810
   80SLPC   C14 7348   1.374   5.255   6.031 -1.0010 -0.1470  0.2361
   80SLPC  H14A 7349   1.321   5.231   5.940  1.5190  1.0548 -1.6920
   80SLPC  H14B 7350   1.407   5.169   6.087  2.1394 -0.3165 -1.6511
   80SLPC  H14C 7351   1.310   5.311   6.098 -2.2352 -1.1333 -0.0919
   80SLPC   C15 7352   1.582   5.271   5.907  0.1053 -0.3415 -0.9571
   80SLPC  H15A 7353   1.548   5.261   5.805 -0.1641 -1.3162 -0.7804
   80SLPC  H15B 7354   1.676   5.324   5.907 -0.6554  1.0546 -0.0411
   80SLPC  H15C 7355   1.612   5.170   5.932  1.6388  0.2566 -0.2559
   80SLPC   C12 7356   1.438   5.470   5.939 -0.2953 -0.2224  1.1002
   80SLPC  H12A 7357   1.379   5.431   5.858  0.0824  1.0491  0.1831
   80SLPC  H12B 7358   1.526   5.518   5.898 -0.6930  0.1843  0.7144
   80SLPC   C11 7359   1.362   5.570   6.021 -0.4381  0.1299 -0.2557
   80SLPC  H11A 7360   1.323   5.647   5.951 -0.1606  0.6199  0.1277
   80SLPC  H11B 7361   1.434   5.628   6.081  0.5498 -0.5507 -0.7451
   80SLPC     P 7362   1.241   5.573   6.244  0.0748  0.1742 -0.0436
   80SLPC   O13 7363   1.235   5.718   6.242 -0.1796 -0.4156 -0.4105
   80SLPC   O14 7364   1.131   5.500   6.309 -0.4956 -0.0141  0.0751
   80SLPC   O12 7365   1.257   5.518   6.106 -0.9933 -0.2328  0.3160
   80SLPC   O11 7366   1.373   5.530   6.316 -0.4896  0.3227  0.7471
   80SLPC    C1 7367   1.394   5.420   6.411 -0.2566  0.3506  0.0762
   80SLPC    HA 7368   1.339   5.328   6.383 -1.1661  0.4058  1.5716
   80SLPC    HB 7369   1.504   5.403   6.421 -0.3060  0.8616  1.7873
   80SLPC    C2 7370   1.342   5.466   6.552 -0.6344 -0.4634 -0.2621
   80SLPC    HS 7371   1.231   5.473   6.550 -0.7000 -1.3249 -0.3720
   80SLPC   O21 7372   1.405   5.586   6.597  0.5537  0.0580 -0.4045
   80SLPC   C21 7373   1.329   5.672   6.656  0.8952  0.7216  0.5285
   80SLPC   O22 7374   1.205   5.681   6.657 -0.7541  0.4127 -0.0091
   80SLPC   C22 7375   1.422   5.761   6.738 -0.2378 -0.3072 -0.3010
   80SLPC   H2R 7376   1.447   5.695   6.823  0.4115 -1.2316 -1.1982
   80SLPC   H2S 7377   1.514   5.782   6.680 -0.2360  1.8450  0.3713
   80SLPC    C3 7378   1.380   5.356   6.650 -0.0069  0.0857 -0.6308
   80SLPC    HX 7379   1.490   5.356   6.665 -0.1214  0.5377  0.3107
   80SLPC    HY 7380   1.356   5.257   6.607 -1.2703  1.0500 -2.2435
   80SLPC   O31 7381   1.326   5.375   6.787  0.3903 -0.3050 -0.2690
   80SLPC   C31 7382   1.207   5.327   6.805  0.4862 -0.8173  0.1005
   80SLPC   O32 7383   1.139   5.268   6.720  0.5377  0.1380 -0.1119
   80SLPC   C32 7384   1.158   5.374   6.941 -0.1469 -0.1584 -0.2365
   80SLPC   H2X 7385   1.233   5.431   6.999 -2.0213 -1.6326  4.0431
   80SLPC   H2Y 7386   1.143   5.279   6.997 -1.3899 -1.2833 -2.3281
   80SLPC   C23 7387   1.364   5.898   6.785 -0.5826 -0.4692  0.9673
   80SLPC   H3R 7388   1.278   5.884   6.854 -1.2248 -1.3480  0.0350
   80SLPC   H3S 7389   1.347   5.965   6.698  1.7997  2.0997  2.3197
   80SLPC   C24 7390   1.473   5.979   6.864  0.7216 -0.2704 -0.1645
   80SLPC   H4R 7391   1.565   5.955   6.806  0.4653 -2.9475  0.4145
   80SLPC   H4S 7392   1.486   5.940   6.967 -0.5703 -0.2032  0.0357
   80SLPC   C25 7393   1.454   6.133   6.870 -0.3783  0.1956 -0.2121
   80SLPC   H5R 7394   1.356   6.153   6.919 -1.1115 -2.9562 -0.1589
   80SLPC   H5S 7395   1.462   6.170   6.766  2.4136 -0.7109 -0.4131
   80SLPC   C26 7396   1.569   6.213   6.940  0.1426  0.4147  0.5147
   80SLPC   H6R 7397   1.539   6.318   6.964  0.6429  0.7074 -0.1307
   80SLPC   H6S 7398   1.658   6.225   6.875 -1.7629  1.4262 -2.0990
   80SLPC   C27 7399   1.591   6.173   7.087  0.3120  0.2580 -0.6781
   80SLPC   H7R 7400   1.676   6.233   7.126  1.5982 -1.2211 -1.1023
   80SLPC   H7S 7401   1.625   6.068   7.096 -0.3271  0.1065 -0.0067
   80SLPC   C28 7402   1.462   6.195   7.169 -0.7787 -0.5744  1.0507
   80SLPC   H8R 7403   1.377   6.162   7.105  1.8790 -2.5515 -1.7778
   80SLPC   H8S 7404   1.449   6.305   7.172 -0.1230 -0.2645 -2.5587
   80SLPC   C29 7405   1.457   6.123   7.300  0.1371  0.5361  0.2884
   80SLPC   H9R 7406   1.424   6.019   7.288 -1.0273  0.7234  1.7061
   80SLPC  C210 7407   1.455   6.165   7.431 -0.0342  0.6815 -0.0911
   80SLPC  H10R 7408   1.450   6.088   7.510 -2.2302  0.5123 -0.3376
   80SLPC  C211 7409   1.483   6.308   7.475 -0.5756  0.1977 -0.1607
   80SLPC  H11R 7410   1.399   6.328   7.546 -0.5203 -1.8171  0.5405
   80SLPC  H11S 7411   1.482   6.384   7.395  2.9595 -1.4350 -1.9899
   80SLPC  C212 7412   1.612   6.328   7.546 -0.2127 -0.6697 -0.5712
   80SLPC  H12R 7413   1.684   6.373   7.476 -0.7468  0.5954 -0.3378
   80SLPC  C213 7414   1.634   6.320   7.673  0.1193 -0.0424  0.5410
   80SLPC  H13R 7415   1.735   6.325   7.716  0.1648 -0.4599  0.4880
   80SLPC  C214 7416   1.533   6.289   7.782 -0.3458  0.4488 -0.2618
   80SLPC  H14R 7417   1.428   6.283   7.746 -0.7018  1.7386  0.4775
   80SLPC  H14S 7418   1.520   6.380   7.845  0.2172  1.0811 -1.0428
   80SLPC  C215 7419   1.561   6.164   7.865 -0.2787 -0.4393  0.3163
   80SLPC  H15R 7420   1.666   6.173   7.903 -0.1206 -0.3033 -0.1485
   80SLPC  H15S 7421   1.554   6.074   7.800 -1.9851 -0.4813  0.5303
   80SLPC  C216 7422   1.467   6.152   7.981  0.1903 -0.0900 -0.2384
   80SLPC  H16R 7423   1.372   6.100   7.953  0.6320 -0.7256 -0.6022
   80SLPC  H16S 7424   1.453   6.248   8.035  0.7422 -0.6849  1.0032
   80SLPC  C217 7425   1.525   6.046   8.077 -0.0498 -0.3558  0.4073
   80SLPC  H17R 7426   1.618   6.084   8.123  1.0619 -1.6146 -0.7220
   80SLPC  H17S 7427   1.548   5.957   8.015  0.0064  1.7340 -2.7435
   80SLPC  C218 7428   1.422   6.009   8.192 -0.2637  0.4124 -0.0883
   80SLPC  H18R 7429   1.326   5.992   8.140 -0.4382 -0.6195  0.5287
   80SLPC  H18S 7430   1.418   6.077   8.280 -0.2889  0.3937 -0.0746
   80SLPC  H18T 7431   1.440   5.905   8.228 -2.6973  0.1670  0.5823
   80SLPC   C33 7432   1.025   5.450   6.932 -0.2098  0.1151 -0.6482
   80SLPC   H3X 7433   0.961   5.393   6.861 -2.0667  1.5326 -0.2003
   80SLPC   H3Y 7434   1.033   5.549   6.882  0.6354  0.0107 -0.7244
   80SLPC   C34 7435   0.954   5.451   7.070  0.1295  0.8637  0.1353
   80SLPC   H4X 7436   0.953   5.351   7.118 -0.6412  0.7860 -0.0338
   80SLPC   H4Y 7437   0.849   5.477   7.047  0.8927  3.4239 -0.7377
   80SLPC   C35 7438   1.036   5.533   7.174 -0.5209 -0.0072 -0.7692
   80SLPC   H5X 7439   1.047   5.643   7.161  1.7055 -0.0929 -0.0293
   80SLPC   H5Y 7440   1.140   5.494   7.166 -0.3531  0.3819 -0.4770
   80SLPC   C36 7441   1.007   5.502   7.321 -0.0962 -0.3231  0.4256
   80SLPC   H6X 7442   1.058   5.408   7.352  0.6993 -0.6899 -1.8289
   80SLPC   H6Y 7443   0.896   5.496   7.327 -0.1858  0.7831 -0.0543
   80SLPC   C37 7444   1.059   5.623   7.410  0.4460 -0.0682  0.3623
   80SLPC   H7X 7445   1.018   5.721   7.376  1.6717  1.0438  1.9127
   80SLPC   H7Y 7446   1.167   5.638   7.388  0.3051  1.2459  0.4580
   80SLPC   C38 7447   1.037   5.595   7.568 -0.4049 -1.1087  0.1224
   80SLPC   H8X 7448   1.056   5.692   7.618 -0.1646 -1.1600  0.1344
   80SLPC   H8Y 7449   1.124   5.540   7.610 -0.6018 -1.5086  0.0165
   80SLPC   C39 7450   0.902   5.542   7.609  0.4550  0.2807  0.2621
   80SLPC   H9X 7451   0.888   5.450   7.550  1.0640  0.0005  0.5448
   80SLPC   H9Y 7452   0.813   5.608   7.601 -0.2975 -0.6077  1.0795
   80SLPC  C310 7453   0.913   5.496   7.763  0.1705  0.4833 -0.0350
   80SLPC  H10X 7454   1.018   5.465   7.784  0.0688 -0.1651 -0.4644
   80SLPC  H10Y 7455   0.839   5.415   7.778  0.1982  0.3549 -0.5940
   80SLPC  C311 7456   0.865   5.603   7.865 -0.2676  0.2679  0.6487
   80SLPC  H11X 7457   0.763   5.629   7.830 -0.4672  0.2770  1.2389
   80SLPC  H11Y 7458   0.923   5.698   7.868 -0.9373  0.8941 -2.4513
   80SLPC  C312 7459   0.857   5.539   8.005  0.7729  0.0316  0.2456
   80SLPC  H12X 7460   0.830   5.433   7.992  0.1431  0.2779 -0.4914
   80SLPC  H12Y 7461   0.769   5.588   8.052  0.1529 -1.7296  1.0052
   80SLPC  C313 7462   0.988   5.562   8.083  0.3882 -0.1279 -0.3264
   80SLPC  H13X 7463   0.985   5.673   8.091 -1.6537 -0.1899  0.1550
   80SLPC  H13Y 7464   1.072   5.519   8.025  2.6010  2.7573  0.4449
   80SLPC  C314 7465   0.985   5.504   8.228  0.2155  0.1000 -0.1005
   80SLPC  H14X 7466   0.961   5.395   8.228 -1.8106  0.4883  1.8036
   80SLPC  H14Y 7467   0.894   5.556   8.265  0.0616  1.6050 -2.4090
   80SLPC  C315 7468   1.097   5.533   8.325  0.2549 -0.4352  0.1803
   80SLPC  H15X 7469   1.078   5.470   8.414  2.0553 -1.2306  0.0401
   80SLPC  H15Y 7470   1.104   5.640   8.358  0.4438 -0.0544 -1.0582
   80SLPC  C316 7471   1.245   5.502   8.277 -0.1421 -0.2047 -0.0114
   80SLPC  H16X 7472   1.244   5.542   8.173 -1.5027  0.9157  0.4036
   80SLPC  H16Y 7473   1.263   5.393   8.265 -1.5514 -0.3156 -1.3864
   80SLPC  C317 7474   1.366   5.559   8.359 -0.2379  0.7716 -0.5824
   80SLPC  H17X 7475   1.336   5.548   8.466  0.8162 -1.2320 -0.4320
   80SLPC  H17Y 7476   1.378   5.669   8.350 -1.0932  1.2004  2.3079
   80SLPC  C318 7477   1.501   5.491   8.338 -0.0662 -0.2357 -0.3099
   80SLPC  H18X 7478   1.519   5.497   8.228 -0.8098 -1.8629 -0.5505
   80SLPC  H18Y 7479   1.494   5.383   8.362 -1.9325 -0.7416 -2.7379
   80SLPC  H18Z 7480   1.584   5.535   8.398 -1.6528 -0.4633  2.1426
   81SAPS     N 7481   3.271   3.971  11.068 -0.3318  0.6504  0.4104
   81SAPS   HN1 7482   3.297   3.890  11.127  4.1362  0.8345 -0.9180
   81SAPS   HN2 7483   3.322   3.960  10.978  0.5204 -0.7894  1.0363
   81SAPS   HN3 7484   3.299   4.065  11.102  1.0123  0.8158 -1.0295
   81SAPS   C12 7485   3.117   3.970  11.031  0.4998 -0.0374 -0.9076
   81SAPS  H12A 7486   3.099   3.889  10.961 -4.0243 -0.2472  0.2029
   81SAPS   C13 7487   3.031   3.930  11.149 -0.5272 -0.9669  0.2733
   81SAPS  O13A 7488   3.087   3.890  11.252  0.0941  0.0200 -0.8432
   81SAPS  O13B 7489   2.908   3.924  11.130 -0.1245 -0.1385 -0.1754
   81SAPS   C11 7490   3.077   4.103  10.965  0.1703  0.1093 -0.3396
   81SAPS  H11A 7491   3.098   4.195  11.022  0.2181 -0.8030  1.1866
   81SAPS  H11B 7492   2.967   4.103  10.945  0.0117  0.7759  0.4859
   81SAPS     P 7493   3.083   4.091  10.707 -0.2745  0.4029 -0.5515
   81SAPS   O13 7494   3.189   4.098  10.601 -0.1316 -1.0844 -0.0400
   81SAPS   O14 7495   3.005   3.967  10.724 -0.7455  0.2711  0.0470
   81SAPS   O12 7496   3.156   4.117  10.845 -0.0796  0.2253 -0.0267
   81SAPS   O11 7497   2.980   4.212  10.696  0.3186  0.7830  0.0774
   81SAPS    C1 7498   3.024   4.344  10.704 -0.7207  0.2507  0.1380
   81SAPS    HA 7499   3.004   4.381  10.806  1.7325  1.1024  0.3884
   81SAPS    HB 7500   3.133   4.366  10.700 -0.4472 -1.0585 -0.0449
   81SAPS    C2 7501   2.957   4.431  10.594 -1.0632  0.8179  0.1994
   81SAPS    HS 7502   3.024   4.516  10.572  1.5050 -1.4665 -1.3959
   81SAPS   O21 7503   2.821   4.464  10.639 -0.5586  0.0083  0.2773
   81SAPS   C21 7504   2.778   4.577  10.586 -0.1017  0.3526  0.1559
   81SAPS   O22 7505   2.847   4.666  10.532  0.1817 -0.4741 -0.0705
   81SAPS   C22 7506   2.619   4.566  10.592 -0.3339 -0.1485 -0.4119
   81SAPS   H2R 7507   2.595   4.460  10.569 -0.9116 -0.3408  1.0431
   81SAPS   H2S 7508   2.606   4.585  10.700  0.5398  0.9902 -0.4839
   81SAPS    C3 7509   2.948   4.354  10.461 -0.4017  0.4066  0.7551
   81SAPS    HX 7510   2.875   4.271  10.468  0.8848 -1.0067 -1.4303
   81SAPS    HY 7511   3.047   4.308  10.440  1.9282  4.1027  2.5125
   81SAPS   O31 7512   2.903   4.441  10.357 -0.8277 -0.5724 -0.6572
   81SAPS   C31 7513   3.000   4.495  10.285 -0.6514 -0.0321 -0.3499
   81SAPS   O32 7514   3.116   4.489  10.317  0.6540  0.3182 -0.6129
   81SAPS   C32 7515   2.944   4.588  10.178 -0.2192 -0.2506  0.4872
   81SAPS   H2X 7516   3.002   4.682  10.173 -0.7473  0.0236 -0.7446
   81SAPS   H2Y 7517   2.845   4.622  10.215 -0.4055 -1.7848  1.5333
   81SAPS   C23 7518   2.549   4.651  10.489 -0.3300  0.4038 -0.3393
   81SAPS   H3R 7519   2.586   4.756  10.498 -2.3175  1.1857 -0.6950
   81SAPS   H3S 7520   2.441   4.654  10.513 -0.1674  2.1169  0.3345
   81SAPS   C24 7521   2.563   4.627  10.339  0.4938  0.1801 -0.8011
   81SAPS   H4R 7522   2.672   4.639  10.319  0.7958  1.0612  1.1007
   81SAPS   H4S 7523   2.501   4.696  10.278  0.2295 -1.0071 -1.9197
   81SAPS   C25 7524   2.504   4.497  10.298  0.2760  0.5209 -0.1654
   81SAPS   H5R 7525   2.502   4.417  10.374 -1.5221  0.4841 -0.2174
   81SAPS   C26 7526   2.452   4.461  10.183  0.2470  0.5077  0.3529
   81SAPS   H6R 7527   2.397   4.366  10.178  0.0114  0.7053 -1.0619
   81SAPS   C27 7528   2.432   4.544  10.057  0.3287 -0.5057 -0.0631
   81SAPS   H7R 7529   2.443   4.653  10.076 -1.1187  0.4833 -4.0501
   81SAPS   H7S 7530   2.327   4.520  10.030  0.4394  0.3853 -1.3404
   81SAPS   C28 7531   2.524   4.480   9.953  0.9165  0.4928  0.2899
   81SAPS   H8R 7532   2.595   4.404   9.991 -1.0514 -1.3424  0.4878
   81SAPS   C29 7533   2.537   4.523   9.821 -0.3189  0.4168 -0.4016
   81SAPS   H9R 7534   2.616   4.482   9.756 -0.8971 -0.1484 -0.7679
   81SAPS  C210 7535   2.451   4.622   9.754  0.2997  0.1679 -0.2525
   81SAPS  H10R 7536   2.406   4.697   9.822  0.5582  1.9010 -1.9102
   81SAPS  H10S 7537   2.378   4.563   9.694  2.1873 -1.1539 -1.3676
   81SAPS  C211 7538   2.545   4.708   9.668  0.8212  0.1341  0.0709
   81SAPS  H11R 7539   2.574   4.804   9.713 -1.1167  0.5801  0.4415
   81SAPS  C212 7540   2.594   4.674   9.546 -0.0072  0.3667 -0.1830
   81SAPS  H12R 7541   2.639   4.749   9.479 -1.5760 -0.7356 -2.5972
   81SAPS  C213 7542   2.554   4.537   9.483 -0.3915  0.2686 -0.0933
   81SAPS  H13R 7543   2.444   4.531   9.480 -0.3074 -1.0483 -1.7166
   81SAPS  H13S 7544   2.581   4.447   9.542 -2.8327 -0.4080  0.0675
   81SAPS  C214 7545   2.622   4.508   9.350  0.5883 -0.0208 -0.0509
   81SAPS  H14R 7546   2.701   4.432   9.356 -0.9752 -1.5921  2.3163
   81SAPS  C215 7547   2.607   4.570   9.235 -0.0317 -0.3884  0.6357
   81SAPS  H15R 7548   2.665   4.534   9.149 -1.4009 -2.1282  0.3705
   81SAPS  C216 7549   2.510   4.681   9.213  0.5201  0.6935 -0.0701
   81SAPS  H16R 7550   2.577   4.763   9.180 -0.1831  0.5481 -2.0397
   81SAPS  H16S 7551   2.447   4.713   9.299  0.4852  1.0867 -0.2392
   81SAPS  C217 7552   2.419   4.658   9.096 -0.4922  0.1675  0.2391
   81SAPS  H17R 7553   2.487   4.640   9.011 -1.7254 -1.3599 -0.4719
   81SAPS  H17S 7554   2.351   4.744   9.076  0.0097  0.4896 -0.0855
   81SAPS  C218 7555   2.317   4.548   9.112 -0.4672 -0.2087 -0.5406
   81SAPS  H18R 7556   2.251   4.576   9.197  0.2534  0.0816 -0.0602
   81SAPS  H18S 7557   2.363   4.451   9.143  0.5483  0.5680  0.4353
   81SAPS  C219 7558   2.225   4.528   8.979  0.1808 -0.2668 -0.2419
   81SAPS  H19R 7559   2.280   4.471   8.901 -1.0339  1.9009 -2.8265
   81SAPS  H19S 7560   2.206   4.623   8.926  0.9086  0.7867  1.3241
   81SAPS  C220 7561   2.088   4.463   9.011 -0.1490 -0.7342  0.0886
   81SAPS  H20R 7562   2.107   4.392   9.095 -0.9347 -0.4003  0.5655
   81SAPS  H20S 7563   2.066   4.402   8.921 -1.8308 -0.9618  0.6004
   81SAPS  H20T 7564   2.011   4.538   9.040  1.4953  1.1598 -0.2865
   81SAPS   C33 7565   2.928   4.512  10.050 -0.0077 -0.8566 -0.1440
   81SAPS   H3X 7566   2.883   4.582   9.977  0.6201  0.8215  1.0197
   81SAPS   H3Y 7567   2.877   4.417  10.076  0.9032 -1.5146 -0.7215
   81SAPS   C34 7568   3.068   4.486   9.998  0.8601 -0.1361 -0.3718
   81SAPS   H4X 7569   3.121   4.430  10.077 -0.5012 -2.8406 -1.2586
   81SAPS   H4Y 7570   3.124   4.581   9.979  0.6934  0.1027  0.3220
   81SAPS   C35 7571   3.058   4.415   9.864  0.6773  0.3459 -0.0362
   81SAPS   H5X 7572   3.039   4.306   9.876  1.4346  0.4014  2.3083
   81SAPS   H5Y 7573   3.163   4.401   9.830  0.6611  1.9090 -0.8028
   81SAPS   C36 7574   2.979   4.481   9.758  0.8349  0.3727  0.5603
   81SAPS   H6X 7575   3.007   4.589   9.754  0.8673  0.5343  3.0901
   81SAPS   H6Y 7576   2.872   4.468   9.783  1.1359 -1.2057  1.1625
   81SAPS   C37 7577   3.009   4.411   9.623 -0.1495  0.6956  0.0258
   81SAPS   H7X 7578   2.973   4.306   9.620  1.4100  0.1534 -1.0722
   81SAPS   H7Y 7579   3.119   4.407   9.608 -0.3826 -0.9439 -1.7218
   81SAPS   C38 7580   2.956   4.485   9.503  0.2064 -0.1506 -0.7168
   81SAPS   H8X 7581   2.971   4.588   9.542 -1.9154  0.0549 -0.3024
   81SAPS   H8Y 7582   2.845   4.486   9.496  0.0701  2.0003  0.5595
   81SAPS   C39 7583   3.019   4.451   9.371  1.0511  0.1626  0.2734
   81SAPS   H9X 7584   2.978   4.354   9.337 -1.7288  0.9661  1.0932
   81SAPS   H9Y 7585   3.128   4.429   9.370  0.6913 -1.8559 -1.4165
   81SAPS  C310 7586   2.991   4.561   9.261  0.1202 -0.3848 -0.2070
   81SAPS  H10X 7587   3.064   4.644   9.273  0.9692 -1.1636  0.2170
   81SAPS  H10Y 7588   2.885   4.590   9.274 -0.1371 -1.5677  0.5027
   81SAPS  C311 7589   3.019   4.515   9.113  0.6588 -0.4672  0.3908
   81SAPS  H11X 7590   2.970   4.416   9.101  1.5849 -1.1535  1.9045
   81SAPS  H11Y 7591   3.130   4.515   9.100  0.6127  0.4867 -0.0647
   81SAPS  C312 7592   2.967   4.611   9.003  0.0880 -0.6999 -0.4873
   81SAPS  H12X 7593   3.012   4.708   9.032 -1.9332 -0.4833  2.3733
   81SAPS  H12Y 7594   2.858   4.629   9.017  0.0791 -1.3690  0.3823
   81SAPS  C313 7595   3.004   4.559   8.868 -0.5065  0.9440  0.6196
   81SAPS  H13X 7596   2.959   4.459   8.857 -0.0050  0.7556  0.2377
   81SAPS  H13Y 7597   3.113   4.564   8.847 -0.4967  0.7900  0.6361
   81SAPS  C314 7598   2.941   4.639   8.749 -0.3926  0.4263  0.2893
   81SAPS  H14X 7599   2.998   4.733   8.738 -1.5964  1.1372  0.0371
   81SAPS  H14Y 7600   2.833   4.659   8.764  0.1283  4.4556 -0.3165
   81SAPS  C315 7601   2.957   4.565   8.616 -0.0414  0.0415  0.2814
   81SAPS  H15X 7602   2.889   4.477   8.623 -1.0509  0.7769 -0.0864
   81SAPS  H15Y 7603   3.064   4.536   8.603  0.3568  0.5164  2.1958
   81SAPS  C316 7604   2.928   4.657   8.493  0.6211 -0.3361  0.0651
   81SAPS  H16X 7605   2.981   4.621   8.403 -0.3703  1.8713 -1.4818
   81SAPS  H16Y 7606   2.973   4.758   8.506  0.3978 -0.3173  0.7305
   81SAPS  C317 7607   2.782   4.681   8.471  0.0914 -0.1261 -0.4019
   81SAPS  H17X 7608   2.777   4.768   8.402 -1.1680  1.3793  1.4934
   81SAPS  H17Y 7609   2.719   4.710   8.558 -0.3889 -2.1601 -0.0039
   81SAPS  C318 7610   2.708   4.557   8.420 -0.1189 -1.0002  0.2609
   81SAPS  H18X 7611   2.756   4.496   8.341  0.1844 -0.6586  0.1843
   81SAPS  H18Y 7612   2.620   4.598   8.367 -1.2026 -1.1308  1.8837
   81SAPS  H18Z 7613   2.682   4.494   8.508 -0.2187 -0.5236  0.5726
   82SAPS     N 7614   1.201   3.572  11.127  0.8757 -0.4297  0.0630
   82SAPS   HN1 7615   1.251   3.622  11.052  0.2080 -0.3672 -0.3475
   82SAPS   HN2 7616   1.137   3.631  11.185  1.1427  0.7966 -0.8743
   82SAPS   HN3 7617   1.275   3.534  11.190 -0.5674 -1.0041  1.4940
   82SAPS   C12 7618   1.135   3.459  11.051 -0.0474 -0.3060 -0.2766
   82SAPS  H12A 7619   1.205   3.415  10.981  0.0467 -0.2043 -0.2454
   82SAPS   C13 7620   1.090   3.332  11.140 -0.0781 -1.0747  0.4182
   82SAPS  O13A 7621   1.149   3.308  11.250  0.3339  0.2548  0.3461
   82SAPS  O13B 7622   1.041   3.242  11.073 -0.7657 -0.3424 -0.2049
   82SAPS   C11 7623   1.003   3.506  10.968 -0.0677  0.0654 -0.2324
   82SAPS  H11A 7624   0.938   3.543  11.050 -0.4536  0.0956 -0.5492
   82SAPS  H11B 7625   0.966   3.412  10.922  0.5267 -1.2349  1.8043
   82SAPS     P 7626   0.989   3.750  10.885  0.0977  0.1916  0.2967
   82SAPS   O13 7627   0.856   3.776  10.944 -0.1330 -0.3909  0.1415
   82SAPS   O14 7628   1.107   3.815  10.946  0.1088  0.0373  0.0444
   82SAPS   O12 7629   1.016   3.594  10.863 -0.0982 -0.1189  0.1775
   82SAPS   O11 7630   0.985   3.789  10.733 -0.3431 -0.7133  0.6324
   82SAPS    C1 7631   1.097   3.750  10.651 -0.2066  0.3698  0.3334
   82SAPS    HA 7632   1.163   3.672  10.694  1.7289  0.9978 -1.3398
   82SAPS    HB 7633   1.060   3.716  10.552 -1.0101  0.6373  0.5353
   82SAPS    C2 7634   1.196   3.870  10.633  0.1640  0.6292  0.0426
   82SAPS    HS 7635   1.216   3.900  10.739 -2.0977  0.3045  0.6051
   82SAPS   O21 7636   1.133   3.977  10.570  0.3994 -0.4277 -0.1876
   82SAPS   C21 7637   1.168   4.097  10.599 -0.9015 -0.0478 -0.0898
   82SAPS   O22 7638   1.263   4.128  10.672  0.0767 -0.8575 -0.0152
   82SAPS   C22 7639   1.064   4.190  10.543 -0.8444 -0.1058 -0.6091
   82SAPS   H2R 7640   1.036   4.155  10.442 -1.4857 -2.8028  0.4238
   82SAPS   H2S 7641   0.970   4.195  10.602  0.0525  3.2985  0.8088
   82SAPS    C3 7642   1.336   3.841  10.562 -0.4204  0.0983  0.2353
   82SAPS    HX 7643   1.383   3.768  10.631 -0.1660  1.2024  1.2750
   82SAPS    HY 7644   1.392   3.937  10.562 -1.3639  0.7586 -2.4839
   82SAPS   O31 7645   1.323   3.803  10.421  0.2894  0.7020  0.1572
   82SAPS   C31 7646   1.304   3.673  10.398 -0.5344  1.0576 -0.4582
   82SAPS   O32 7647   1.305   3.589  10.488  0.1909 -0.0962 -0.0062
   82SAPS   C32 7648   1.275   3.654  10.252 -0.0165  0.3166 -0.2299
   82SAPS   H2X 7649   1.349   3.710  10.192  2.0747  0.1434  2.0363
   82SAPS   H2Y 7650   1.172   3.694  10.240 -0.3242  0.8468  3.2322
   82SAPS   C23 7651   1.115   4.334  10.538  0.3148  0.2898  0.4117
   82SAPS   H3R 7652   1.207   4.349  10.476 -0.1552  1.4005 -0.0410
   82SAPS   H3S 7653   1.140   4.361  10.643  0.6194 -1.3213  0.7875
   82SAPS   C24 7654   1.009   4.419  10.476  0.6546  0.2613  0.4615
   82SAPS   H4R 7655   1.010   4.520  10.522 -0.3194 -0.0154  1.1064
   82SAPS   H4S 7656   0.903   4.389  10.491 -0.1757  1.1712 -2.6970
   82SAPS   C25 7657   1.024   4.443  10.328 -0.2670  0.6857  0.4430
   82SAPS   H5R 7658   1.124   4.481  10.300  0.4831 -0.5566  1.3739
   82SAPS   C26 7659   0.946   4.424  10.222  0.5829 -0.0562 -1.1889
   82SAPS   H6R 7660   0.982   4.453  10.122 -0.5799 -0.4722 -1.7492
   82SAPS   C27 7661   0.812   4.360  10.216 -0.0446 -0.0418 -0.1520
   82SAPS   H7R 7662   0.757   4.427  10.146 -0.9287  0.3984  0.9231
   82SAPS   H7S 7663   0.748   4.382  10.305 -0.4950 -0.4054 -0.3872
   82SAPS   C28 7664   0.810   4.212  10.181 -0.0584 -0.1623  0.0306
   82SAPS   H8R 7665   0.836   4.141  10.261 -0.9899 -0.7746 -0.1884
   82SAPS   C29 7666   0.788   4.163  10.054  0.7400  0.5638 -0.5034
   82SAPS   H9R 7667   0.797   4.054  10.041 -0.0714  0.3674  0.4083
   82SAPS  C210 7668   0.739   4.237   9.929 -0.3045  0.5390  0.1584
   82SAPS  H10R 7669   0.831   4.243   9.867 -0.6222 -0.8533 -0.4881
   82SAPS  H10S 7670   0.687   4.331   9.956 -4.0120 -1.4730  0.7808
   82SAPS  C211 7671   0.639   4.158   9.845  0.0695  0.1359  0.0990
   82SAPS  H11R 7672   0.534   4.185   9.867  0.0599  0.8376 -0.7623
   82SAPS  C212 7673   0.652   4.078   9.738 -0.3230 -0.0197  0.2526
   82SAPS  H12R 7674   0.561   4.036   9.693  0.5297 -3.0233  1.0900
   82SAPS  C213 7675   0.780   4.028   9.677  0.1091  0.9095 -0.5520
   82SAPS  H13R 7676   0.861   4.021   9.752 -1.4135  0.5283  1.1160
   82SAPS  H13S 7677   0.818   4.111   9.614  0.2962  1.1415 -0.1320
   82SAPS  C214 7678   0.769   3.892   9.612 -0.6045  0.7696  0.5403
   82SAPS  H14R 7679   0.708   3.818   9.665 -1.7017  2.2882  1.4827
   82SAPS  C215 7680   0.829   3.859   9.493  0.4898  0.0590  0.6225
   82SAPS  H15R 7681   0.813   3.758   9.453  1.1420 -0.0787  0.6852
   82SAPS  C216 7682   0.917   3.940   9.400 -0.2670  0.1244  0.0135
   82SAPS  H16R 7683   0.989   3.884   9.336  0.8781 -0.4054  1.6987
   82SAPS  H16S 7684   0.986   4.010   9.452 -0.0637  0.2355 -0.4037
   82SAPS  C217 7685   0.820   4.015   9.305  0.4082  0.0828 -0.7980
   82SAPS  H17R 7686   0.888   4.060   9.229  1.0781  1.6476  0.6688
   82SAPS  H17S 7687   0.761   4.090   9.361  0.8636  0.2150 -0.4921
   82SAPS  C218 7688   0.703   3.934   9.234  0.4675 -0.1029  0.0147
   82SAPS  H18R 7689   0.639   4.020   9.203 -2.1728 -1.4833  1.2762
   82SAPS  H18S 7690   0.648   3.880   9.314  3.4238 -0.9804  1.6038
   82SAPS  C219 7691   0.741   3.852   9.111  0.6050  0.6180 -0.3385
   82SAPS  H19R 7692   0.662   3.776   9.094  0.5900  0.4428  0.4538
   82SAPS  H19S 7693   0.832   3.788   9.124 -0.8878 -1.6130 -0.4262
   82SAPS  C220 7694   0.777   3.935   8.984  0.7911  1.0400 -0.1422
   82SAPS  H20R 7695   0.787   3.862   8.901 -1.5424  0.5939 -0.1230
   82SAPS  H20S 7696   0.871   3.993   8.995  1.1054  0.6156 -0.5881
   82SAPS  H20T 7697   0.694   4.007   8.965 -1.7173 -0.8507  2.7042
   82SAPS   C33 7698   1.270   3.505  10.201 -0.1260  0.6808  0.5753
   82SAPS   H3X 7699   1.218   3.445  10.279  0.7992 -2.3348 -0.9631
   82SAPS   H3Y 7700   1.375   3.478  10.179 -0.5228  2.2296 -4.2161
   82SAPS   C34 7701   1.192   3.478  10.070  0.2904 -0.0525  0.1482
   82SAPS   H4X 7702   1.084   3.464  10.094  0.1741  0.4962 -0.0453
   82SAPS   H4Y 7703   1.215   3.379  10.025  1.3448  0.9895 -1.7072
   82SAPS   C35 7704   1.210   3.582   9.959  1.0009 -0.0592  0.9716
   82SAPS   H5X 7705   1.314   3.591   9.920  0.3406 -0.5042 -1.0068
   82SAPS   H5Y 7706   1.171   3.684   9.978  1.2355  0.3844 -0.6998
   82SAPS   C36 7707   1.112   3.553   9.839  0.0195 -0.2062 -0.2390
   82SAPS   H6X 7708   1.004   3.568   9.861 -0.2420 -1.6077 -0.4855
   82SAPS   H6Y 7709   1.118   3.442   9.833 -3.0317 -0.6240  2.1951
   82SAPS   C37 7710   1.155   3.610   9.711 -0.8099 -0.1753  1.3125
   82SAPS   H7X 7711   1.265   3.602   9.701 -0.9798 -0.8658 -0.2163
   82SAPS   H7Y 7712   1.124   3.715   9.694 -0.0239 -0.1611 -0.1685
   82SAPS   C38 7713   1.105   3.527   9.595 -0.0643 -0.0190  0.4717
   82SAPS   H8X 7714   0.995   3.531   9.581 -0.0931  2.5418  1.1054
   82SAPS   H8Y 7715   1.139   3.421   9.594 -3.1368 -1.3636 -4.6874
   82SAPS   C39 7716   1.154   3.590   9.460 -0.2665  0.4993 -0.1174
   82SAPS   H9X 7717   1.265   3.600   9.462  0.0120  0.7076 -5.2268
   82SAPS   H9Y 7718   1.099   3.686   9.457  0.6032  0.9871 -0.7471
   82SAPS  C310 7719   1.134   3.502   9.336 -0.0821  0.3150  0.4105
   82SAPS  H10X 7720   1.146   3.394   9.363 -0.3324  0.1223 -0.2359
   82SAPS  H10Y 7721   1.208   3.539   9.262  0.1659 -0.7947  0.0835
   82SAPS  C311 7722   0.992   3.536   9.277 -0.0611  0.0758 -0.2072
   82SAPS  H11X 7723   0.973   3.645   9.273  1.0757  0.2483 -2.1255
   82SAPS  H11Y 7724   0.920   3.511   9.358  0.2864 -0.0634  0.0638
   82SAPS  C312 7725   0.963   3.483   9.136  0.0783  0.0971 -0.1551
   82SAPS  H12X 7726   0.854   3.493   9.118 -0.3419  1.4948  2.6297
   82SAPS  H12Y 7727   0.995   3.376   9.132  1.3968  0.2548  3.1398
   82SAPS  C313 7728   1.039   3.573   9.030 -0.5567 -0.1486 -0.0672
   82SAPS  H13X 7729   1.148   3.551   9.025 -0.5985 -0.3140 -0.2502
   82SAPS  H13Y 7730   1.015   3.681   9.037  1.7883  0.5977 -1.9317
   82SAPS  C314 7731   0.987   3.546   8.881  0.0020  0.0173 -0.1102
   82SAPS  H14X 7732   0.876   3.553   8.885 -0.0171 -0.4984  0.2419
   82SAPS  H14Y 7733   0.995   3.438   8.856 -1.0064 -0.0813 -0.0818
   82SAPS  C315 7734   1.044   3.635   8.766 -0.3242 -0.1668  1.1478
   82SAPS  H15X 7735   1.138   3.584   8.737 -0.6883  0.6532 -1.7921
   82SAPS  H15Y 7736   1.064   3.737   8.804 -1.3130  0.5602 -0.2053
   82SAPS  C316 7737   0.937   3.657   8.656 -0.4831 -0.3500 -0.2999
   82SAPS  H16X 7738   0.862   3.723   8.706 -0.3034  1.3687 -2.1516
   82SAPS  H16Y 7739   0.894   3.556   8.638 -0.0243 -1.0066  2.0402
   82SAPS  C317 7740   0.976   3.727   8.524  0.3031 -0.3928  0.2427
   82SAPS  H17X 7741   1.062   3.669   8.484  1.2210  1.1073 -0.0508
   82SAPS  H17Y 7742   0.998   3.835   8.541 -3.1917  0.2423  1.5204
   82SAPS  C318 7743   0.875   3.719   8.409  1.1965  0.4349 -0.2368
   82SAPS  H18X 7744   0.866   3.615   8.373 -0.5072 -0.2661  1.9692
   82SAPS  H18Y 7745   0.908   3.780   8.322  1.4456 -0.2935 -0.6616
   82SAPS  H18Z 7746   0.777   3.753   8.449  2.6661  4.2519  0.6402
   83SAPS     N 7747   3.839   4.659  11.020 -0.4081 -0.1388  0.2941
   83SAPS   HN1 7748   3.919   4.724  11.008  0.9824 -2.0431 -1.4159
   83SAPS   HN2 7749   3.844   4.598  11.104 -0.2020 -1.0105 -0.3285
   83SAPS   HN3 7750   3.843   4.592  10.940  0.0542  0.6367 -0.3490
   83SAPS   C12 7751   3.708   4.730  11.027 -0.4248 -0.3405 -0.3977
   83SAPS  H12A 7752   3.630   4.656  11.023 -1.4980  0.8012 -1.5611
   83SAPS   C13 7753   3.688   4.816  11.151  0.0752  0.4983 -0.3800
   83SAPS  O13A 7754   3.768   4.791  11.247 -0.1318 -0.4179 -0.1136
   83SAPS  O13B 7755   3.575   4.859  11.172  0.8208 -0.0504 -0.4560
   83SAPS   C11 7756   3.700   4.818  10.899 -0.4858  0.6760 -0.7239
   83SAPS  H11A 7757   3.794   4.870  10.872 -2.0913  3.6155 -1.0364
   83SAPS  H11B 7758   3.623   4.893  10.926  0.4067  1.4401 -0.2424
   83SAPS     P 7759   3.525   4.750  10.713  0.2768 -0.2735  0.0712
   83SAPS   O13 7760   3.532   4.659  10.601 -0.0828 -0.1711  0.5097
   83SAPS   O14 7761   3.416   4.740  10.813  0.2078 -0.3311  0.5574
   83SAPS   O12 7762   3.665   4.743  10.787 -0.4253  0.2603  0.2942
   83SAPS   O11 7763   3.537   4.904  10.664 -0.1100  0.3412 -0.6028
   83SAPS    C1 7764   3.414   4.968  10.646  0.0213  0.6350  0.6580
   83SAPS    HA 7765   3.326   4.900  10.655  0.2772  0.4322  1.8480
   83SAPS    HB 7766   3.416   5.055  10.715  0.8838  0.8194  0.4137
   83SAPS    C2 7767   3.404   5.027  10.501 -0.1288  0.7807  0.1428
   83SAPS    HS 7768   3.308   5.079  10.482 -1.3613 -1.6501 -0.6835
   83SAPS   O21 7769   3.433   4.935  10.394  0.1086  0.5234 -0.7341
   83SAPS   C21 7770   3.359   4.825  10.388  0.7766 -0.4914  0.0453
   83SAPS   O22 7771   3.282   4.784  10.473  0.1464  0.1685 -0.0445
   83SAPS   C22 7772   3.398   4.748  10.256 -0.4348 -0.1279  0.3696
   83SAPS   H2R 7773   3.509   4.756  10.262 -0.4082 -0.5847  0.5200
   83SAPS   H2S 7774   3.358   4.645  10.268 -1.7095  0.5739  2.7317
   83SAPS    C3 7775   3.508   5.131  10.496 -0.5120  1.3498  0.0037
   83SAPS    HX 7776   3.600   5.082  10.532 -0.6817  1.0668  0.0547
   83SAPS    HY 7777   3.473   5.210  10.566 -0.9695  0.0004  1.3571
   83SAPS   O31 7778   3.519   5.193  10.366 -0.2056  0.5340  0.2035
   83SAPS   C31 7779   3.587   5.299  10.362  0.2357  0.2925  0.1705
   83SAPS   O32 7780   3.623   5.370  10.452 -0.1353 -0.3746  0.1491
   83SAPS   C32 7781   3.622   5.326  10.214  0.5255  0.3236 -0.1150
   83SAPS   H2X 7782   3.688   5.415  10.208  1.4357 -0.2751  0.7547
   83SAPS   H2Y 7783   3.524   5.351  10.168 -0.6815  1.9987  3.0775
   83SAPS   C23 7784   3.344   4.822  10.134 -0.0048 -0.0712  0.3944
   83SAPS   H3R 7785   3.359   4.932  10.148  1.8374 -0.5393  2.6609
   83SAPS   H3S 7786   3.233   4.818  10.139  0.0169 -2.6150 -0.2723
   83SAPS   C24 7787   3.376   4.778   9.988  0.5994 -0.0464 -0.1413
   83SAPS   H4R 7788   3.338   4.674   9.979  1.9104 -0.5930  0.3537
   83SAPS   H4S 7789   3.486   4.767   9.973  0.1774 -1.5651 -2.9833
   83SAPS   C25 7790   3.323   4.857   9.874 -0.6389 -0.5417  0.2083
   83SAPS   H5R 7791   3.294   4.959   9.903 -0.5231 -0.5692  0.4216
   83SAPS   C26 7792   3.302   4.827   9.743  0.1492  0.2033  0.0054
   83SAPS   H6R 7793   3.246   4.898   9.680  0.2415 -0.3645 -0.7183
   83SAPS   C27 7794   3.350   4.697   9.682  0.4061  0.6229 -0.0331
   83SAPS   H7R 7795   3.270   4.653   9.619 -0.4117  1.7760  0.1538
   83SAPS   H7S 7796   3.357   4.618   9.760  0.9863  1.4016  0.7201
   83SAPS   C28 7797   3.479   4.711   9.613 -0.1690 -0.6759 -0.7562
   83SAPS   H8R 7798   3.561   4.726   9.684  0.6570 -1.8172 -1.4425
   83SAPS   C29 7799   3.507   4.725   9.482  0.2118  0.5821 -0.4550
   83SAPS   H9R 7800   3.612   4.729   9.449  0.0439  0.0704 -1.0999
   83SAPS  C210 7801   3.403   4.723   9.376  0.2596 -0.5559 -0.3624
   83SAPS  H10R 7802   3.306   4.694   9.422 -0.1317  1.2646  0.0409
   83SAPS  H10S 7803   3.419   4.630   9.318  0.8713 -0.0928 -0.9549
   83SAPS  C211 7804   3.394   4.850   9.297  0.6038 -0.0009 -0.4822
   83SAPS  H11R 7805   3.390   4.945   9.352 -0.0204 -0.7616  0.8296
   83SAPS  C212 7806   3.408   4.863   9.164 -0.2301 -0.1321 -0.9977
   83SAPS  H12R 7807   3.393   4.958   9.112  1.6385  0.6687 -0.1578
   83SAPS  C213 7808   3.424   4.751   9.058 -0.2594 -1.0013 -1.0156
   83SAPS  H13R 7809   3.405   4.648   9.095 -1.0663  0.2153  2.2816
   83SAPS  H13S 7810   3.533   4.760   9.038  0.0148  1.1113  1.0282
   83SAPS  C214 7811   3.339   4.781   8.937  0.2702  0.2504  0.2849
   83SAPS  H14R 7812   3.230   4.781   8.951 -0.1215 -0.4303 -2.2023
   83SAPS  C215 7813   3.381   4.813   8.810  1.2700  0.1224 -0.1386
   83SAPS  H15R 7814   3.305   4.843   8.736  1.2825  1.5113  0.3809
   83SAPS  C216 7815   3.514   4.819   8.756  0.0776  0.6502 -0.2242
   83SAPS  H16R 7816   3.518   4.749   8.671  1.1081  1.4343 -0.8443
   83SAPS  H16S 7817   3.586   4.786   8.834 -1.6585 -4.5576 -0.4332
   83SAPS  C217 7818   3.566   4.959   8.714 -0.9121  0.8868 -0.4263
   83SAPS  H17R 7819   3.498   4.985   8.630 -2.2981 -0.6212  0.1557
   83SAPS  H17S 7820   3.665   4.947   8.666 -1.3943 -1.5760 -0.9683
   83SAPS  C218 7821   3.561   5.061   8.820 -0.4179  0.0240  0.1175
   83SAPS  H18R 7822   3.625   5.021   8.902  3.6993  0.7045 -2.4652
   83SAPS  H18S 7823   3.454   5.072   8.849 -1.7483 -1.5374 -3.6714
   83SAPS  C219 7824   3.633   5.195   8.779 -0.4256 -0.1985 -0.5980
   83SAPS  H19R 7825   3.562   5.253   8.715 -2.2678 -1.4020  0.2811
   83SAPS  H19S 7826   3.709   5.169   8.703  0.7832 -0.5431  0.6972
   83SAPS  C220 7827   3.667   5.296   8.888 -0.0691 -0.4251 -0.4292
   83SAPS  H20R 7828   3.708   5.384   8.833 -1.8018 -1.2065 -3.1610
   83SAPS  H20S 7829   3.742   5.254   8.959 -1.8274 -2.4003  0.3689
   83SAPS  H20T 7830   3.579   5.315   8.952  0.6332 -0.8865  0.7065
   83SAPS   C33 7831   3.679   5.202  10.140 -0.2974 -0.6315 -0.1514
   83SAPS   H3X 7832   3.639   5.106  10.180  0.7191 -1.3167 -0.7285
   83SAPS   H3Y 7833   3.790   5.205  10.145 -0.1845 -2.2105 -1.0110
   83SAPS   C34 7834   3.632   5.206   9.996  0.2394  0.3495 -1.3376
   83SAPS   H4X 7835   3.655   5.310   9.965 -0.9859  1.7119  1.8820
   83SAPS   H4Y 7836   3.521   5.201   9.990 -0.0660 -0.0082  2.5059
   83SAPS   C35 7837   3.684   5.105   9.900  0.6779  0.6923  0.9403
   83SAPS   H5X 7838   3.648   5.000   9.913  2.1479  0.1860  1.2104
   83SAPS   H5Y 7839   3.795   5.096   9.902  0.6354  0.1743  2.2215
   83SAPS   C36 7840   3.650   5.136   9.749 -0.3648 -0.2870 -0.4397
   83SAPS   H6X 7841   3.676   5.046   9.690 -0.9209 -0.1969 -0.8316
   83SAPS   H6Y 7842   3.720   5.212   9.709  0.4113  0.6734  2.4618
   83SAPS   C37 7843   3.505   5.167   9.710  0.2039 -0.3950  0.2053
   83SAPS   H7X 7844   3.466   5.243   9.781 -1.5959  0.3397 -1.4944
   83SAPS   H7Y 7845   3.437   5.081   9.731  1.6817 -0.9684  3.3306
   83SAPS   C38 7846   3.478   5.227   9.575  0.4606 -0.1936 -0.7561
   83SAPS   H8X 7847   3.539   5.169   9.502  0.6896 -1.4505  0.4050
   83SAPS   H8Y 7848   3.516   5.331   9.583 -0.2612  0.0144  0.0826
   83SAPS   C39 7849   3.332   5.229   9.544 -0.0333 -0.3199  0.2382
   83SAPS   H9X 7850   3.275   5.299   9.609 -1.8632 -1.4872 -0.0546
   83SAPS   H9Y 7851   3.282   5.134   9.570 -0.8104  0.1235  0.4159
   83SAPS  C310 7852   3.313   5.270   9.394  0.0804 -0.1137  0.0562
   83SAPS  H10X 7853   3.338   5.181   9.331 -1.6679 -1.0596  0.6252
   83SAPS  H10Y 7854   3.375   5.357   9.364 -0.9341  0.5544 -0.1374
   83SAPS  C311 7855   3.163   5.306   9.370  0.4067 -0.5992  0.7748
   83SAPS  H11X 7856   3.154   5.394   9.437  1.2890  0.0379  0.0779
   83SAPS  H11Y 7857   3.090   5.234   9.414 -1.3267  1.1401  0.8934
   83SAPS  C312 7858   3.121   5.340   9.228 -0.1534  0.7069  0.2875
   83SAPS  H12X 7859   3.191   5.413   9.183 -0.0543  0.0657 -0.6470
   83SAPS  H12Y 7860   3.020   5.386   9.224  0.0645  1.1479 -0.2141
   83SAPS  C313 7861   3.123   5.221   9.131 -0.2929 -0.7357  0.1688
   83SAPS  H13X 7862   3.057   5.138   9.166 -0.0290 -0.9184  0.2406
   83SAPS  H13Y 7863   3.228   5.184   9.124 -0.2741 -0.3892 -2.6568
   83SAPS  C314 7864   3.088   5.258   8.986  0.5132  0.3952 -0.0859
   83SAPS  H14X 7865   3.162   5.327   8.940  0.2483 -1.2944 -3.3313
   83SAPS  H14Y 7866   2.996   5.320   8.977  0.6997  0.9542  1.5446
   83SAPS  C315 7867   3.090   5.133   8.899  0.0986  0.9846 -0.2390
   83SAPS  H15X 7868   3.062   5.047   8.964 -3.3825  1.1055 -1.4078
   83SAPS  H15Y 7869   3.198   5.117   8.877  0.1493  2.4029 -1.1097
   83SAPS  C316 7870   2.989   5.144   8.783 -0.0209  0.0864  0.3164
   83SAPS  H16X 7871   3.041   5.207   8.707 -0.1243 -0.0765  0.1070
   83SAPS  H16Y 7872   2.897   5.192   8.822  0.6453  1.3066  0.4415
   83SAPS  C317 7873   2.947   5.008   8.726  0.3058 -0.7825  0.1001
   83SAPS  H17X 7874   2.905   4.966   8.820  0.7378 -0.0388  0.6310
   83SAPS  H17Y 7875   3.038   4.947   8.707  1.1994  0.6174 -0.2430
   83SAPS  C318 7876   2.841   5.020   8.618  0.3888 -0.7570  0.3425
   83SAPS  H18X 7877   2.882   5.099   8.552 -2.0016  0.9272  0.7340
   83SAPS  H18Y 7878   2.746   5.047   8.668 -0.8151 -1.9223 -1.2181
   83SAPS  H18Z 7879   2.823   4.919   8.575 -0.0779 -1.7715  2.7521
   84SAPS     N 7880   4.569   4.958  10.998  0.6525 -0.2742  0.5336
   84SAPS   HN1 7881   4.590   5.043  10.941  0.2823 -0.4339  0.1500
   84SAPS   HN2 7882   4.655   4.904  11.019 -0.3069 -1.3216  1.8681
   84SAPS   HN3 7883   4.511   4.905  10.930 -2.7001  3.5433  0.0135
   84SAPS   C12 7884   4.489   4.983  11.125  0.7824 -0.0055  0.0430
   84SAPS  H12A 7885   4.470   4.891  11.180  1.3950  0.7654  1.6081
   84SAPS   C13 7886   4.565   5.066  11.230  0.4101 -0.1764  0.1993
   84SAPS  O13A 7887   4.673   5.124  11.203 -0.3563 -0.3899 -0.3723
   84SAPS  O13B 7888   4.516   5.061  11.341  0.6888 -0.5368 -0.1439
   84SAPS   C11 7889   4.350   5.041  11.086 -0.3224  0.0580  0.3747
   84SAPS  H11A 7890   4.354   5.145  11.045  0.8387  0.4513  1.4437
   84SAPS  H11B 7891   4.306   5.047  11.188 -0.3745  0.6808  0.3183
   84SAPS     P 7892   4.128   4.955  10.984 -0.1217  0.2177 -0.2820
   84SAPS   O13 7893   4.082   4.825  10.926  0.6429  0.2633  0.2135
   84SAPS   O14 7894   4.077   4.994  11.114  0.0172 -0.1126 -1.1391
   84SAPS   O12 7895   4.286   4.957  10.981  0.0345 -0.5767 -0.4374
   84SAPS   O11 7896   4.107   5.065  10.876 -0.2959 -0.2358  0.0838
   84SAPS    C1 7897   4.166   5.062  10.750 -0.3018  0.1799 -0.8410
   84SAPS    HA 7898   4.250   5.134  10.746  0.4271 -0.5548  0.3407
   84SAPS    HB 7899   4.204   4.961  10.725  0.4501  0.4357 -0.7636
   84SAPS    C2 7900   4.071   5.097  10.634 -0.4481  0.2378  0.1531
   84SAPS    HS 7901   4.131   5.051  10.552  1.0474 -0.8579  1.7859
   84SAPS   O21 7902   4.072   5.236  10.611  0.5395  0.1979 -0.2436
   84SAPS   C21 7903   4.032   5.266  10.485 -0.2569  0.1694  0.6343
   84SAPS   O22 7904   4.034   5.190  10.389 -0.0394 -0.5734 -0.2494
   84SAPS   C22 7905   4.005   5.413  10.464  0.0804 -0.4409  0.6861
   84SAPS   H2R 7906   3.900   5.446  10.478  0.1928  1.4699 -2.0885
   84SAPS   H2S 7907   4.070   5.466  10.537  1.2953 -1.4311  0.3755
   84SAPS    C3 7908   3.927   5.046  10.654 -0.7861 -0.5128 -0.2971
   84SAPS    HX 7909   3.893   5.126  10.722  0.3690 -0.7561  0.5868
   84SAPS    HY 7910   3.934   4.958  10.721  0.7723  0.2575  0.6250
   84SAPS   O31 7911   3.836   5.034  10.542  0.0758  0.2985  0.2826
   84SAPS   C31 7912   3.875   4.933  10.466  0.4472  0.2814 -0.0801
   84SAPS   O32 7913   3.968   4.859  10.501 -0.0582  0.4245 -0.0469
   84SAPS   C32 7914   3.801   4.927  10.335 -0.8214 -0.0214 -0.2317
   84SAPS   H2X 7915   3.826   5.022  10.282 -1.3567  1.0106  1.2704
   84SAPS   H2Y 7916   3.692   4.946  10.347 -0.3497  2.4164  0.9852
   84SAPS   C23 7917   4.030   5.458  10.319 -0.3810 -0.5046 -0.3315
   84SAPS   H3R 7918   3.983   5.388  10.247  2.7517 -1.3103 -1.7438
   84SAPS   H3S 7919   4.138   5.457  10.295 -0.8630  0.1863 -2.7507
   84SAPS   C24 7920   3.989   5.614  10.290 -0.1001  0.6495 -0.3021
   84SAPS   H4R 7921   3.880   5.631  10.295  0.1813  2.2888  1.4508
   84SAPS   H4S 7922   4.025   5.624  10.185  0.6688 -3.4406 -0.6128
   84SAPS   C25 7923   4.064   5.696  10.393  0.2195  0.2781 -0.1332
   84SAPS   H5R 7924   4.152   5.645  10.435  1.1528  0.2951 -1.9579
   84SAPS   C26 7925   4.036   5.827  10.431 -0.6402  0.5515  0.9841
   84SAPS   H6R 7926   4.096   5.880  10.506 -0.8867  1.6321  0.4466
   84SAPS   C27 7927   3.926   5.913  10.379 -0.5368 -0.3805  1.1279
   84SAPS   H7R 7928   3.859   5.934  10.465 -0.6559  1.2193  0.6811
   84SAPS   H7S 7929   3.873   5.859  10.298  2.5135 -3.7101  1.0749
   84SAPS   C28 7930   3.976   6.048  10.332  0.0830 -0.7082  0.6798
   84SAPS   H8R 7931   3.998   6.121  10.412 -0.2455  0.1692 -0.0056
   84SAPS   C29 7932   3.989   6.099  10.202 -0.8938  0.2812 -0.3398
   84SAPS   H9R 7933   3.997   6.207  10.184 -1.2208  0.4799  0.6235
   84SAPS  C210 7934   3.963   6.022  10.080 -0.6137  0.3658 -0.1054
   84SAPS  H10R 7935   4.023   5.929  10.094 -1.4828  0.0188  1.5349
   84SAPS  H10S 7936   4.000   6.081   9.993 -0.8578 -1.8493 -1.7852
   84SAPS  C211 7937   3.818   5.981  10.061  0.4973  0.3427 -0.0434
   84SAPS  H11R 7938   3.750   6.007  10.143  1.0524 -0.8614  0.8338
   84SAPS  C212 7939   3.771   5.908   9.962  0.7885  0.1564 -1.0561
   84SAPS  H12R 7940   3.665   5.883   9.980  0.5387  1.6952 -0.1921
   84SAPS  C213 7941   3.842   5.862   9.841  0.0831 -0.1931  0.4010
   84SAPS  H13R 7942   3.925   5.935   9.832 -0.0818  0.1421  1.4558
   84SAPS  H13S 7943   3.770   5.869   9.756  0.2469 -1.6970  0.1236
   84SAPS  C214 7944   3.900   5.722   9.865  0.4869 -0.3152 -0.1172
   84SAPS  H14R 7945   3.948   5.701   9.962 -0.4056  0.0475  0.4107
   84SAPS  C215 7946   3.880   5.626   9.773 -0.4715 -0.4301  0.5080
   84SAPS  H15R 7947   3.919   5.529   9.804 -2.0713  0.0646  4.6353
   84SAPS  C216 7948   3.798   5.641   9.654  0.0508 -0.3654  0.2498
   84SAPS  H16R 7949   3.834   5.721   9.586 -1.3322 -0.7509 -0.9594
   84SAPS  H16S 7950   3.692   5.663   9.678  0.3419  0.7915  0.5422
   84SAPS  C217 7951   3.805   5.515   9.567 -0.2529 -0.0636 -0.8443
   84SAPS  H17R 7952   3.767   5.426   9.620  0.5787  0.4722  0.7354
   84SAPS  H17S 7953   3.912   5.493   9.546  0.1948  1.9456 -0.9441
   84SAPS  C218 7954   3.736   5.534   9.430  0.0178 -0.0613 -0.4090
   84SAPS  H18R 7955   3.775   5.629   9.390  0.9016 -1.6222 -3.5595
   84SAPS  H18S 7956   3.627   5.552   9.440 -0.3009 -0.6485 -2.4589
   84SAPS  C219 7957   3.789   5.428   9.330 -0.6482 -0.0056 -0.1036
   84SAPS  H19R 7958   3.755   5.324   9.352  1.2203 -0.2525  1.8908
   84SAPS  H19S 7959   3.900   5.435   9.336 -0.5292  1.2669 -2.6166
   84SAPS  C220 7960   3.763   5.452   9.186  0.2640 -0.2238  0.4359
   84SAPS  H20R 7961   3.815   5.370   9.132  0.4177  0.6849 -0.8234
   84SAPS  H20S 7962   3.798   5.554   9.159 -1.9905  0.8286  1.2346
   84SAPS  H20T 7963   3.655   5.441   9.161  0.4200  1.3642 -1.1054
   84SAPS   C33 7964   3.839   4.809  10.249  0.1914 -0.0341 -0.2764
   84SAPS   H3X 7965   3.801   4.713  10.290  0.8015  0.2533  1.0067
   84SAPS   H3Y 7966   3.947   4.790  10.233 -0.1851 -1.6690 -1.0475
   84SAPS   C34 7967   3.789   4.832  10.102  0.0942  0.3101 -0.0982
   84SAPS   H4X 7968   3.799   4.940  10.078 -0.1324  0.5166  0.7159
   84SAPS   H4Y 7969   3.682   4.807  10.086 -0.5044  1.3000  2.0292
   84SAPS   C35 7970   3.872   4.742   9.998 -0.2043 -0.1341  0.1420
   84SAPS   H5X 7971   3.850   4.636  10.020  0.4075 -0.4782 -0.8446
   84SAPS   H5Y 7972   3.982   4.756  10.008 -0.2608  0.5926 -0.1605
   84SAPS   C36 7973   3.837   4.770   9.849  0.0225 -0.2213  0.3923
   84SAPS   H6X 7974   3.869   4.873   9.825 -2.1504  0.1074 -1.3712
   84SAPS   H6Y 7975   3.727   4.756   9.847 -0.0705  0.3688  1.1899
   84SAPS   C37 7976   3.896   4.668   9.747  0.7124  0.5660 -0.0192
   84SAPS   H7X 7977   3.825   4.582   9.744  0.7832  0.5404 -1.2153
   84SAPS   H7Y 7978   3.998   4.636   9.779  0.1916 -1.2200 -0.0020
   84SAPS   C38 7979   3.906   4.722   9.610  0.6479  0.1296  0.5125
   84SAPS   H8X 7980   4.010   4.749   9.581 -0.0690  1.0962 -1.3038
   84SAPS   H8Y 7981   3.838   4.810   9.614 -1.7444 -1.5046 -1.2639
   84SAPS   C39 7982   3.873   4.614   9.510 -0.0349  0.2410  0.6773
   84SAPS   H9X 7983   3.795   4.537   9.532  0.4308 -1.4762 -3.0246
   84SAPS   H9Y 7984   3.964   4.550   9.507 -1.0104 -1.1901  0.5268
   84SAPS  C310 7985   3.867   4.662   9.360 -0.7609 -0.6224 -0.7812
   84SAPS  H10X 7986   3.965   4.708   9.337 -1.7633  3.4146  1.7973
   84SAPS  H10Y 7987   3.792   4.744   9.354  0.1531  0.5777  2.2087
   84SAPS  C311 7988   3.831   4.559   9.254  0.0749  1.0328  0.4626
   84SAPS  H11X 7989   3.728   4.532   9.287  0.1590  2.7229  2.2790
   84SAPS  H11Y 7990   3.897   4.470   9.252  0.5892  1.4240 -0.6447
   84SAPS  C312 7991   3.818   4.610   9.107 -0.3282 -0.8025  0.5691
   84SAPS  H12X 7992   3.738   4.686   9.100  0.8747  0.4954  0.4544
   84SAPS  H12Y 7993   3.786   4.525   9.044 -2.9498  1.1830 -0.9594
   84SAPS  C313 7994   3.945   4.679   9.048  0.0005 -0.6641  0.9430
   84SAPS  H13X 7995   4.039   4.619   9.052  0.2592 -0.3178  0.3432
   84SAPS  H13Y 7996   3.963   4.775   9.100 -1.6646  0.1617  0.0718
   84SAPS  C314 7997   3.930   4.722   8.899 -0.3125  0.2413 -0.4168
   84SAPS  H14X 7998   3.831   4.769   8.879 -1.0857 -0.3744  1.6546
   84SAPS  H14Y 7999   3.931   4.618   8.862  2.5644 -0.5236  1.4291
   84SAPS  C315 8000   4.044   4.794   8.829  0.6455  0.1621  0.1799
   84SAPS  H15X 8001   4.016   4.789   8.722 -0.4597 -2.5659  0.5098
   84SAPS  H15Y 8002   4.133   4.732   8.851  0.7431  0.5117  0.8051
   84SAPS  C316 8003   4.079   4.932   8.882  0.6288 -0.0129 -0.2723
   84SAPS  H16X 8004   4.182   4.966   8.856  0.0207  1.2870 -1.0856
   84SAPS  H16Y 8005   4.069   4.935   8.993 -2.5743  2.2978 -0.4780
   84SAPS  C317 8006   3.973   5.034   8.844  0.4585  0.2808 -0.0902
   84SAPS  H17X 8007   3.884   5.001   8.901  0.8905 -0.1250  0.3568
   84SAPS  H17Y 8008   3.946   5.030   8.736  0.5748  0.0833 -0.1105
   84SAPS  C318 8009   4.006   5.171   8.887 -0.2692  0.4008 -0.0673
   84SAPS  H18X 8010   4.110   5.196   8.856  0.0690  0.2564  0.9071
   84SAPS  H18Y 8011   3.999   5.175   8.998  0.0920 -0.2740 -0.0143
   84SAPS  H18Z 8012   3.935   5.248   8.849  1.0458  1.1261 -1.1453
   85SAPS     N 8013   2.401   6.368  11.046 -0.0892  0.4513  0.2793
   85SAPS   HN1 8014   2.480   6.430  11.072  0.0885  0.6281 -0.6370
   85SAPS   HN2 8015   2.427   6.273  11.013  0.6698  0.4327  0.9169
   85SAPS   HN3 8016   2.344   6.412  10.970 -0.7915  0.4154  0.7772
   85SAPS   C12 8017   2.321   6.350  11.171  0.5505  0.1312  0.3126
   85SAPS  H12A 8018   2.366   6.263  11.217  0.1143 -1.2956 -1.8025
   85SAPS   C13 8019   2.336   6.464  11.275 -0.9291 -0.5972  0.9385
   85SAPS  O13A 8020   2.384   6.575  11.242  0.5242 -0.1424  0.3930
   85SAPS  O13B 8021   2.257   6.453  11.375 -0.0779  0.1014  0.1812
   85SAPS   C11 8022   2.166   6.343  11.129 -0.1161  0.4779  0.4967
   85SAPS  H11A 8023   2.114   6.441  11.124  0.3212  0.6606 -1.6470
   85SAPS  H11B 8024   2.110   6.305  11.217 -1.2241 -1.1264 -0.8446
   85SAPS     P 8025   2.112   6.098  11.058 -0.0124  0.0677 -0.2541
   85SAPS   O13 8026   2.160   6.013  10.945 -0.2276  0.2447  0.0647
   85SAPS   O14 8027   2.172   6.059  11.186  0.0274 -0.4286  0.5807
   85SAPS   O12 8028   2.141   6.252  11.017 -0.1626  0.1884  0.2440
   85SAPS   O11 8029   1.958   6.094  11.073  0.3490 -0.4288  0.6171
   85SAPS    C1 8030   1.854   6.181  11.021 -0.5181 -0.2582 -0.0296
   85SAPS    HA 8031   1.759   6.143  11.062  0.1037 -1.4175  0.3863
   85SAPS    HB 8032   1.884   6.278  11.065  0.1533 -0.5383  0.1458
   85SAPS    C2 8033   1.835   6.186  10.864 -0.0238  0.1076  0.5527
   85SAPS    HS 8034   1.725   6.200  10.852 -0.1016  0.8523  1.8696
   85SAPS   O21 8035   1.892   6.056  10.809 -0.8875  0.2481 -0.3529
   85SAPS   C21 8036   1.827   5.947  10.846 -0.1012 -0.1996  0.7081
   85SAPS   O22 8037   1.720   5.949  10.903 -0.1259  0.8827  0.6451
   85SAPS   C22 8038   1.895   5.831  10.768 -0.1013 -0.3588  0.3143
   85SAPS   H2R 8039   1.944   5.863  10.674  1.1258 -0.4642  0.8956
   85SAPS   H2S 8040   1.972   5.791  10.837  0.4874  0.9567  0.4511
   85SAPS    C3 8041   1.893   6.311  10.805 -0.3732  0.0001 -1.0034
   85SAPS    HX 8042   2.004   6.316  10.808 -0.3333  0.0417 -2.1333
   85SAPS    HY 8043   1.859   6.389  10.877 -0.0937  1.0316 -1.9670
   85SAPS   O31 8044   1.841   6.356  10.678  0.2914  0.1183  0.2846
   85SAPS   C31 8045   1.902   6.308  10.572  0.0576  0.0800 -0.6148
   85SAPS   O32 8046   2.010   6.244  10.573  0.0157  0.1288 -0.5077
   85SAPS   C32 8047   1.819   6.338  10.447 -0.3187 -0.1875 -0.1620
   85SAPS   H2X 8048   1.727   6.397  10.465 -0.7924 -1.5328  2.1585
   85SAPS   H2Y 8049   1.785   6.239  10.409 -1.9286  1.1177 -2.3619
   85SAPS   C23 8050   1.796   5.714  10.746 -0.6043  0.3205 -0.2570
   85SAPS   H3R 8051   1.698   5.722  10.797 -0.8943 -0.3278 -0.6981
   85SAPS   H3S 8052   1.835   5.617  10.785  0.6450  0.5069 -0.9961
   85SAPS   C24 8053   1.765   5.691  10.597  0.0869  0.3313 -0.1185
   85SAPS   H4R 8054   1.703   5.601  10.578  1.8622 -0.6751 -1.5411
   85SAPS   H4S 8055   1.864   5.674  10.549 -0.6485 -0.1197 -1.5211
   85SAPS   C25 8056   1.708   5.828  10.542 -0.2976 -0.4977 -0.4890
   85SAPS   H5R 8057   1.623   5.863  10.603 -0.6082 -3.1614  0.7206
   85SAPS   C26 8058   1.759   5.904  10.444  0.0564  0.1567  0.3380
   85SAPS   H6R 8059   1.703   5.997  10.425 -1.3549 -1.1247 -2.3093
   85SAPS   C27 8060   1.866   5.870  10.340  0.6458 -0.4514 -0.2148
   85SAPS   H7R 8061   1.818   5.813  10.258 -0.2038  1.0752 -0.8183
   85SAPS   H7S 8062   1.947   5.814  10.392  0.3314 -0.6188  0.1035
   85SAPS   C28 8063   1.936   5.997  10.297  0.4397 -0.0929 -0.0495
   85SAPS   H8R 8064   1.962   6.057  10.385  0.6809 -0.8029  0.3726
   85SAPS   C29 8065   1.975   6.033  10.177 -0.1087 -0.0273  0.2787
   85SAPS   H9R 8066   2.023   6.131  10.162 -0.8716  0.4346  0.8073
   85SAPS  C210 8067   1.959   5.954  10.051  0.4283 -0.2938 -0.6236
   85SAPS  H10R 8068   1.895   5.863  10.059  0.7311 -0.6129 -1.6550
   85SAPS  H10S 8069   2.055   5.910  10.018  0.2901 -1.5252  0.5318
   85SAPS  C211 8070   1.904   6.040   9.941 -0.0415  0.0414  0.0407
   85SAPS  H11R 8071   1.871   6.140   9.974  0.0925 -0.0855  0.5555
   85SAPS  C212 8072   1.894   5.998   9.815 -0.0183 -0.4991 -0.1420
   85SAPS  H12R 8073   1.857   6.071   9.741 -1.4329  0.0956  1.0936
   85SAPS  C213 8074   1.942   5.866   9.759  0.0907  0.6901  0.1772
   85SAPS  H13R 8075   1.928   5.783   9.831 -0.5507  1.5594  1.0857
   85SAPS  H13S 8076   2.051   5.873   9.740  0.2887  1.0551  1.3954
   85SAPS  C214 8077   1.858   5.818   9.640 -0.6018 -0.4022  0.8897
   85SAPS  H14R 8078   1.794   5.731   9.660  0.6440 -1.5585  0.0647
   85SAPS  C215 8079   1.863   5.863   9.509 -0.0467  0.0048 -0.1700
   85SAPS  H15R 8080   1.782   5.826   9.444 -0.8859 -0.6894  1.2098
   85SAPS  C216 8081   1.939   5.976   9.444  0.2454 -0.4958  0.3162
   85SAPS  H16R 8082   2.014   6.021   9.513 -0.3958  0.5174  0.3685
   85SAPS  H16S 8083   1.880   6.068   9.421  0.2530 -0.1102  1.6988
   85SAPS  C217 8084   2.032   5.934   9.331 -0.7555 -0.5733 -0.0006
   85SAPS  H17R 8085   2.083   5.837   9.346  1.7786  0.6251 -0.3678
   85SAPS  H17S 8086   2.117   6.002   9.310 -1.5227  0.1604 -0.8350
   85SAPS  C218 8087   1.958   5.913   9.199 -0.4082 -0.0576  0.7678
   85SAPS  H18R 8088   1.868   5.976   9.182 -0.8525 -1.2538 -1.8532
   85SAPS  H18S 8089   1.912   5.812   9.208 -0.1826 -0.3240 -0.7119
   85SAPS  C219 8090   2.060   5.914   9.084 -0.1055 -0.5195  0.3578
   85SAPS  H19R 8091   2.122   5.822   9.093 -0.6398 -0.7384  2.1558
   85SAPS  H19S 8092   2.129   6.000   9.096 -1.3373  0.9236 -1.9740
   85SAPS  C220 8093   2.007   5.924   8.947 -0.5655 -0.0492  0.3338
   85SAPS  H20R 8094   1.978   5.827   8.902 -0.4062  0.4696 -0.9384
   85SAPS  H20S 8095   2.088   5.965   8.882 -0.2371 -0.5679  0.4117
   85SAPS  H20T 8096   1.915   5.985   8.956 -0.7891 -0.6159  2.2772
   85SAPS   C33 8097   1.907   6.400  10.340  0.6585  0.4732  0.4404
   85SAPS   H3X 8098   1.971   6.319  10.301 -0.8610 -0.8519  0.5826
   85SAPS   H3Y 8099   1.970   6.482  10.381  0.1234  0.8920  0.4373
   85SAPS   C34 8100   1.828   6.442  10.214 -0.3203 -0.2055 -0.4151
   85SAPS   H4X 8101   1.764   6.531  10.229 -0.7027 -0.9136  2.8296
   85SAPS   H4Y 8102   1.767   6.352  10.190  1.1254 -1.6419  1.0157
   85SAPS   C35 8103   1.919   6.459  10.098 -0.1957 -0.4866 -0.4066
   85SAPS   H5X 8104   1.974   6.363  10.086  0.9595  0.1728 -0.4446
   85SAPS   H5Y 8105   1.990   6.537  10.134 -0.3032  0.1093 -1.4494
   85SAPS   C36 8106   1.850   6.489   9.965 -0.0444  0.0739 -0.0496
   85SAPS   H6X 8107   1.837   6.598   9.949 -2.3448  0.1697  1.8224
   85SAPS   H6Y 8108   1.750   6.442   9.951 -0.3803  1.0795 -1.1070
   85SAPS   C37 8109   1.924   6.443   9.835  0.1876  0.1709  0.0120
   85SAPS   H7X 8110   1.961   6.342   9.861 -1.2131 -0.6749 -1.1011
   85SAPS   H7Y 8111   2.009   6.509   9.808 -0.4075 -0.4160 -3.9281
   85SAPS   C38 8112   1.830   6.427   9.712 -0.4346  0.2037 -0.5508
   85SAPS   H8X 8113   1.782   6.527   9.704  1.0989  1.1958  1.5236
   85SAPS   H8Y 8114   1.748   6.353   9.714 -1.1893  1.0410  0.7313
   85SAPS   C39 8115   1.912   6.423   9.578  0.4515  0.3311  0.6218
   85SAPS   H9X 8116   1.990   6.347   9.603  0.8327  0.7606  0.7466
   85SAPS   H9Y 8117   1.953   6.522   9.550 -0.3524  1.3237  2.6952
   85SAPS  C310 8118   1.824   6.371   9.464  0.1170  0.0661  0.2495
   85SAPS  H10X 8119   1.728   6.425   9.450 -1.3654 -2.8473 -2.2515
   85SAPS  H10Y 8120   1.786   6.273   9.501  2.3416 -0.4240  1.4108
   85SAPS  C311 8121   1.896   6.329   9.336  0.2447 -0.6277  0.3990
   85SAPS  H11X 8122   1.828   6.259   9.284  0.3415 -2.2857  2.3695
   85SAPS  H11Y 8123   1.984   6.266   9.363 -0.6582 -0.8775  3.1409
   85SAPS  C312 8124   1.931   6.457   9.244  0.4313  0.2138 -0.5902
   85SAPS  H12X 8125   2.015   6.519   9.283 -0.3904  0.0583  1.5678
   85SAPS  H12Y 8126   1.837   6.516   9.253 -0.5078 -1.2214 -0.5917
   85SAPS  C313 8127   1.961   6.411   9.100 -0.6416  0.2817 -0.1591
   85SAPS  H13X 8128   1.959   6.504   9.039 -1.1845 -0.5939 -1.5317
   85SAPS  H13Y 8129   1.888   6.349   9.043  0.5887 -0.2589 -1.1944
   85SAPS  C314 8130   2.092   6.333   9.087 -0.6417 -0.1948  0.4980
   85SAPS  H14X 8131   2.078   6.236   9.139 -4.1320 -0.6131 -0.9128
   85SAPS  H14Y 8132   2.169   6.398   9.133  0.1711 -2.1089  1.9922
   85SAPS  C315 8133   2.144   6.296   8.944 -0.3227  0.3834  0.0357
   85SAPS  H15X 8134   2.149   6.392   8.888  0.0736  0.9692  1.0550
   85SAPS  H15Y 8135   2.073   6.232   8.887 -1.2662  1.0701  0.3981
   85SAPS  C316 8136   2.283   6.234   8.946 -0.3051 -0.2634  0.3187
   85SAPS  H16X 8137   2.287   6.146   9.014 -0.9522 -1.6572 -1.3731
   85SAPS  H16Y 8138   2.346   6.314   8.990  0.7954 -0.4323 -0.8920
   85SAPS  C317 8139   2.337   6.189   8.804  0.1625  0.5244 -0.5119
   85SAPS  H17X 8140   2.254   6.174   8.732  1.2409 -3.3850 -1.1692
   85SAPS  H17Y 8141   2.381   6.087   8.812 -0.5697  0.2258 -0.2651
   85SAPS  C318 8142   2.435   6.292   8.746  0.0776 -0.4195  0.5955
   85SAPS  H18X 8143   2.449   6.270   8.638 -1.5231 -0.4609  0.3682
   85SAPS  H18Y 8144   2.532   6.273   8.797 -0.1322  0.4364  1.3421
   85SAPS  H18Z 8145   2.393   6.393   8.767 -0.9853 -0.4772 -1.0137
   86SAPS     N 8146   4.963   6.540  11.195  0.2828  0.0045  0.0926
   86SAPS   HN1 8147   4.862   6.520  11.202 -0.3246  2.7647  0.2174
   86SAPS   HN2 8148   5.026   6.500  11.268  0.2526  0.9403  0.6467
   86SAPS   HN3 8149   4.958   6.643  11.212  1.8458  0.4232 -1.6185
   86SAPS   C12 8150   4.998   6.529  11.051 -0.3462  0.2366  0.4263
   86SAPS  H12A 8151   5.042   6.623  11.022  1.6718 -0.3888  1.2646
   86SAPS   C13 8152   5.099   6.417  11.022  0.2923  0.0148 -0.1227
   86SAPS  O13A 8153   5.111   6.332  11.114 -0.6221  0.3095  0.1302
   86SAPS  O13B 8154   5.117   6.384  10.904 -0.1271 -0.5531  0.3864
   86SAPS   C11 8155   4.869   6.514  10.969  0.0632  0.0245 -0.0043
   86SAPS  H11A 8156   4.814   6.419  10.985  1.4060 -0.5210  1.6422
   86SAPS  H11B 8157   4.890   6.526  10.860 -0.6340 -1.9165 -0.3973
   86SAPS     P 8158   4.633   6.627  10.956  0.3315 -0.2226  0.0311
   86SAPS   O13 8159   4.562   6.525  11.030 -0.0348  0.6507  0.1100
   86SAPS   O14 8160   4.578   6.768  10.954  0.6530 -0.2491  0.4566
   86SAPS   O12 8161   4.789   6.623  11.002  0.4918  0.1584 -0.0665
   86SAPS   O11 8162   4.652   6.589  10.799 -0.7270 -0.4057 -0.1606
   86SAPS    C1 8163   4.571   6.663  10.701  0.3117  0.2996  0.0071
   86SAPS    HA 8164   4.584   6.773  10.709  0.3946  0.1687  2.0445
   86SAPS    HB 8165   4.613   6.646  10.599 -1.0330 -0.2624 -0.4787
   86SAPS    C2 8166   4.421   6.618  10.689 -0.2317 -0.1013 -0.1937
   86SAPS    HS 8167   4.391   6.616  10.796 -1.4199 -2.5874 -0.5125
   86SAPS   O21 8168   4.411   6.487  10.633 -0.2401  0.4133  0.2155
   86SAPS   C21 8169   4.304   6.421  10.667  0.6698  0.1568  0.1354
   86SAPS   O22 8170   4.212   6.465  10.731  0.0919 -0.1208 -0.1029
   86SAPS   C22 8171   4.312   6.272  10.620 -0.4870 -0.0781  0.1550
   86SAPS   H2R 8172   4.420   6.248  10.606 -0.4673 -0.4674  0.9027
   86SAPS   H2S 8173   4.278   6.212  10.707  0.6411  0.1356  0.7647
   86SAPS    C3 8174   4.328   6.727  10.630  0.4092  0.5159 -0.8054
   86SAPS    HX 8175   4.366   6.828  10.657  0.9165 -0.4857  2.9026
   86SAPS    HY 8176   4.229   6.709  10.677  0.3312  0.3850 -1.0162
   86SAPS   O31 8177   4.302   6.714  10.493  0.3538  0.3086  0.2922
   86SAPS   C31 8178   4.397   6.767  10.416 -0.1054 -0.3738 -1.0003
   86SAPS   O32 8179   4.495   6.837  10.446 -0.2793  0.0212 -0.3577
   86SAPS   C32 8180   4.358   6.744  10.275 -0.5472 -0.0226  0.2444
   86SAPS   H2X 8181   4.277   6.815  10.244  2.0401  1.7522 -3.0541
   86SAPS   H2Y 8182   4.325   6.641  10.251  0.7418 -1.2519  3.2985
   86SAPS   C23 8183   4.225   6.246  10.495  0.2278 -0.0018 -0.2260
   86SAPS   H3R 8184   4.121   6.274  10.522  0.6381  0.6634  0.7288
   86SAPS   H3S 8185   4.223   6.138  10.471  1.8332  0.2662 -1.7702
   86SAPS   C24 8186   4.271   6.331  10.375 -0.1937  0.6100 -0.7327
   86SAPS   H4R 8187   4.231   6.434  10.384 -0.8770  0.3456 -0.7324
   86SAPS   H4S 8188   4.215   6.292  10.287  1.9168  0.1896 -1.9623
   86SAPS   C25 8189   4.419   6.344  10.325  0.1514  0.1622 -0.4731
   86SAPS   H5R 8190   4.478   6.419  10.380  0.2655  0.0146 -0.3926
   86SAPS   C26 8191   4.479   6.276  10.227 -0.1057 -0.1216 -0.4427
   86SAPS   H6R 8192   4.586   6.298  10.217  0.0306 -0.1913  0.7547
   86SAPS   C27 8193   4.413   6.171  10.144  0.0205  0.4767 -0.8652
   86SAPS   H7R 8194   4.328   6.122  10.197  1.0767 -0.6833 -0.1826
   86SAPS   H7S 8195   4.492   6.095  10.128 -0.3726  0.2951 -2.0193
   86SAPS   C28 8196   4.354   6.217  10.014  0.2377  0.0117 -0.6469
   86SAPS   H8R 8197   4.329   6.324  10.018  4.9121  1.2797  2.9623
   86SAPS   C29 8198   4.346   6.150   9.893  0.2182 -0.2093  0.0178
   86SAPS   H9R 8199   4.312   6.206   9.805 -0.5102 -0.3747  0.1855
   86SAPS  C210 8200   4.385   6.008   9.866 -1.2514  0.1483  0.7044
   86SAPS  H10R 8201   4.454   5.972   9.946  1.0820 -0.6096 -1.5224
   86SAPS  H10S 8202   4.448   6.003   9.775 -0.9470  1.3118  0.8355
   86SAPS  C211 8203   4.277   5.915   9.836 -0.4691 -0.0793 -0.3830
   86SAPS  H11R 8204   4.179   5.928   9.885 -0.3281 -0.7246  0.0835
   86SAPS  C212 8205   4.280   5.812   9.753 -0.0552 -0.0173  0.5259
   86SAPS  H12R 8206   4.198   5.738   9.750  0.7117 -0.8378 -0.9044
   86SAPS  C213 8207   4.406   5.748   9.688 -0.2946 -0.4844 -0.0958
   86SAPS  H13R 8208   4.496   5.769   9.748 -1.1344  2.4672  0.2822
   86SAPS  H13S 8209   4.435   5.799   9.593 -0.1901  2.2810  1.3265
   86SAPS  C214 8210   4.399   5.593   9.690  0.2874 -0.1694 -0.6428
   86SAPS  H14R 8211   4.441   5.558   9.785 -1.3906 -0.5944 -0.0346
   86SAPS  C215 8212   4.316   5.519   9.609 -0.2324 -0.0600 -0.3303
   86SAPS  H15R 8213   4.320   5.409   9.612 -3.6605 -0.3450 -1.2733
   86SAPS  C216 8214   4.239   5.586   9.491  0.0956 -0.0238  0.0389
   86SAPS  H16R 8215   4.245   5.696   9.476 -2.0445  0.2474  0.8674
   86SAPS  H16S 8216   4.133   5.553   9.501 -0.3148  0.6963 -1.6029
   86SAPS  C217 8217   4.291   5.530   9.358 -0.8243 -0.1618  0.0377
   86SAPS  H17R 8218   4.305   5.419   9.355 -0.6136 -0.1408  0.1901
   86SAPS  H17S 8219   4.392   5.572   9.339 -0.2289 -1.8569 -0.7197
   86SAPS  C218 8220   4.205   5.568   9.237 -0.0701  0.7700 -0.3273
   86SAPS  H18R 8221   4.210   5.678   9.220 -0.6947  0.7190 -0.8439
   86SAPS  H18S 8222   4.102   5.529   9.245  0.2113  0.3446  1.7552
   86SAPS  C219 8223   4.256   5.501   9.109  0.1791 -0.4180  0.3775
   86SAPS  H19R 8224   4.275   5.394   9.135  2.0275 -0.1019  0.4447
   86SAPS  H19S 8225   4.350   5.553   9.080  0.1641 -0.6036 -0.0054
   86SAPS  C220 8226   4.161   5.522   8.992 -0.3528  0.3369 -0.2435
   86SAPS  H20R 8227   4.071   5.459   9.008  0.2946 -0.6500 -0.4134
   86SAPS  H20S 8228   4.198   5.478   8.897 -2.1768 -1.1236 -0.3294
   86SAPS  H20T 8229   4.120   5.625   8.980 -0.0208  0.6682  1.2092
   86SAPS   C33 8230   4.468   6.776  10.173  0.3655  1.0931 -0.6146
   86SAPS   H3X 8231   4.551   6.703  10.177 -0.2461  0.3438 -1.3650
   86SAPS   H3Y 8232   4.515   6.874  10.200  1.0269  0.3161  1.2472
   86SAPS   C34 8233   4.417   6.769  10.033  0.2322 -0.1849  0.0777
   86SAPS   H4X 8234   4.334   6.842  10.027 -2.5305 -2.9864  1.4279
   86SAPS   H4Y 8235   4.367   6.671  10.018 -2.3945  0.9717  0.6627
   86SAPS   C35 8236   4.523   6.805   9.928 -1.0177  0.5551 -0.2644
   86SAPS   H5X 8237   4.612   6.743   9.955 -0.2592  2.0427  0.8341
   86SAPS   H5Y 8238   4.558   6.910   9.937  2.4796 -0.4787  0.0779
   86SAPS   C36 8239   4.475   6.780   9.789  0.2538 -0.2862  0.2280
   86SAPS   H6X 8240   4.539   6.834   9.716  2.6468 -0.6380  1.9501
   86SAPS   H6Y 8241   4.372   6.821   9.789 -0.0740 -1.0566 -1.3020
   86SAPS   C37 8242   4.477   6.636   9.752  0.0321  1.2881  0.2265
   86SAPS   H7X 8243   4.443   6.573   9.838 -0.7335  0.2254 -0.8179
   86SAPS   H7Y 8244   4.584   6.617   9.730 -0.2875 -0.1618 -0.2320
   86SAPS   C38 8245   4.408   6.596   9.622  0.4813 -1.4499 -1.0305
   86SAPS   H8X 8246   4.464   6.638   9.536 -1.9841 -2.5914 -3.3248
   86SAPS   H8Y 8247   4.307   6.642   9.626  0.3677 -1.7579 -0.1065
   86SAPS   C39 8248   4.395   6.444   9.597  0.4118  0.1735  0.9808
   86SAPS   H9X 8249   4.340   6.425   9.503 -2.3619  1.1942  2.2860
   86SAPS   H9Y 8250   4.325   6.411   9.677  0.6548 -0.5547  0.8972
   86SAPS  C310 8251   4.526   6.365   9.603  0.6012  0.3346 -0.0877
   86SAPS  H10X 8252   4.570   6.383   9.704  4.7720 -0.8719 -1.4743
   86SAPS  H10Y 8253   4.599   6.403   9.529  0.7684 -1.1018 -0.6979
   86SAPS  C311 8254   4.497   6.218   9.586 -0.3675  0.4017 -0.4052
   86SAPS  H11X 8255   4.395   6.204   9.627 -0.3458 -1.3460 -0.8752
   86SAPS  H11Y 8256   4.559   6.156   9.654 -0.8082 -0.5170 -0.8242
   86SAPS  C312 8257   4.485   6.178   9.431  0.3085  0.3394 -0.0824
   86SAPS  H12X 8258   4.587   6.190   9.389  0.0737  0.6620 -0.5656
   86SAPS  H12Y 8259   4.420   6.248   9.374  1.7996  1.5960 -0.3291
   86SAPS  C313 8260   4.428   6.031   9.427 -0.5189  0.3449  0.2709
   86SAPS  H13X 8261   4.357   6.025   9.513 -1.6898 -2.3673 -0.7841
   86SAPS  H13Y 8262   4.509   5.958   9.445 -0.1433  1.2827  2.7792
   86SAPS  C314 8263   4.337   6.000   9.309  0.6060 -0.1892 -0.1526
   86SAPS  H14X 8264   4.299   6.103   9.289  0.4557 -0.1058  0.5127
   86SAPS  H14Y 8265   4.256   5.931   9.341  0.6546  0.1241  0.6947
   86SAPS  C315 8266   4.392   5.942   9.177  0.6217 -0.1286 -0.1976
   86SAPS  H15X 8267   4.406   5.833   9.190  1.4341  0.1289  1.3615
   86SAPS  H15Y 8268   4.493   5.986   9.161  0.9003 -1.2335 -1.6866
   86SAPS  C316 8269   4.305   5.962   9.053  0.2365 -0.5927 -0.2336
   86SAPS  H16X 8270   4.302   6.069   9.025  0.8833 -0.7839 -1.0741
   86SAPS  H16Y 8271   4.198   5.945   9.080  0.4713 -1.9885 -0.1093
   86SAPS  C317 8272   4.331   5.864   8.942  0.6656  0.3417 -0.0116
   86SAPS  H17X 8273   4.234   5.848   8.890 -1.3159  1.7202  2.9721
   86SAPS  H17Y 8274   4.353   5.768   8.994  0.1510  0.6336  0.7575
   86SAPS  C318 8275   4.441   5.898   8.839  0.0621 -0.0849 -0.3664
   86SAPS  H18X 8276   4.457   6.006   8.819  2.8070 -0.0834  1.3926
   86SAPS  H18Y 8277   4.442   5.835   8.748 -0.5199  1.0320 -1.1718
   86SAPS  H18Z 8278   4.534   5.870   8.891  0.3966  1.8986  0.1992
   87SAPS     N 8279   1.765   2.654  10.712  0.7866 -0.8852 -0.2937
   87SAPS   HN1 8280   1.743   2.609  10.621 -0.6780  0.9725 -0.9159
   87SAPS   HN2 8281   1.744   2.587  10.789  0.7485 -0.9088 -0.3245
   87SAPS   HN3 8282   1.714   2.744  10.721  1.0859 -0.8151  0.9421
   87SAPS   C12 8283   1.915   2.660  10.713 -0.3808 -0.4257 -0.0142
   87SAPS  H12A 8284   1.935   2.756  10.758 -1.1972 -0.3425  0.1851
   87SAPS   C13 8285   1.984   2.553  10.805  0.4357 -0.4163  0.3155
   87SAPS  O13A 8286   1.910   2.461  10.852 -0.9039  0.2085  0.4484
   87SAPS  O13B 8287   2.111   2.541  10.808  0.0607 -0.5264 -0.8616
   87SAPS   C11 8288   1.971   2.660  10.568 -0.0176  0.7122  0.1098
   87SAPS  H11A 8289   1.929   2.571  10.517 -1.5036  0.9802  0.7964
   87SAPS  H11B 8290   2.080   2.642  10.572 -0.5062 -2.7893  2.5220
   87SAPS     P 8291   1.969   2.781  10.340 -0.0641  0.1986 -0.2705
   87SAPS   O13 8292   2.012   2.917  10.320 -0.6740 -0.0169 -0.6732
   87SAPS   O14 8293   2.071   2.681  10.303 -0.5347 -0.0583 -0.2921
   87SAPS   O12 8294   1.929   2.771  10.490 -0.4397 -0.2339 -0.3162
   87SAPS   O11 8295   1.834   2.753  10.261  0.2082 -0.1823  0.1734
   87SAPS    C1 8296   1.786   2.625  10.228 -0.4455 -0.3119 -0.7284
   87SAPS    HA 8297   1.797   2.561  10.317 -1.7841  1.5075  0.8354
   87SAPS    HB 8298   1.675   2.635  10.226 -0.6626 -2.3794 -2.3111
   87SAPS    C2 8299   1.811   2.571  10.090  0.1707  0.0165  0.0163
   87SAPS    HS 8300   1.752   2.480  10.067  0.2187 -0.4844  1.7549
   87SAPS   O21 8301   1.948   2.526  10.080  0.6070  0.4786 -0.4559
   87SAPS   C21 8302   1.994   2.425  10.147 -1.2860  0.2226  0.4580
   87SAPS   O22 8303   1.937   2.358  10.225  0.0510  0.1446  0.7999
   87SAPS   C22 8304   2.131   2.390  10.082  0.1504 -0.5933 -0.2780
   87SAPS   H2R 8305   2.210   2.463  10.110  2.8763 -2.7537 -1.7561
   87SAPS   H2S 8306   2.154   2.293  10.132  0.5930 -0.0523  0.5903
   87SAPS    C3 8307   1.772   2.668   9.975 -0.2568  0.3773 -0.1914
   87SAPS    HX 8308   1.828   2.761  10.000  0.2732  0.0292 -0.0851
   87SAPS    HY 8309   1.665   2.697   9.978 -0.2407  0.8631 -2.4044
   87SAPS   O31 8310   1.796   2.609   9.845 -0.3091 -0.2887  0.1318
   87SAPS   C31 8311   1.919   2.633   9.802  0.8851 -0.2115  0.8011
   87SAPS   O32 8312   2.002   2.701   9.858  0.3465 -0.1752  0.2024
   87SAPS   C32 8313   1.935   2.567   9.656 -0.5431 -0.2629  0.0719
   87SAPS   H2X 8314   1.854   2.614   9.595  0.6312  1.9392  0.0967
   87SAPS   H2Y 8315   1.922   2.457   9.664  0.1887 -0.5456 -2.1436
   87SAPS   C23 8316   2.137   2.377   9.925 -0.0022 -0.3980 -0.4592
   87SAPS   H3R 8317   2.242   2.394   9.894 -0.1827  2.0016  0.0105
   87SAPS   H3S 8318   2.080   2.459   9.876 -1.0541 -1.2746 -0.7488
   87SAPS   C24 8319   2.090   2.238   9.885  0.3643  0.6937  0.3955
   87SAPS   H4R 8320   1.984   2.211   9.905  0.3887 -1.8474 -2.1709
   87SAPS   H4S 8321   2.155   2.158   9.926  0.3993  0.7379  0.4257
   87SAPS   C25 8322   2.106   2.221   9.731  0.1876  0.1967 -0.2256
   87SAPS   H5R 8323   2.204   2.245   9.686  0.1895 -2.0918 -1.6400
   87SAPS   C26 8324   2.013   2.168   9.643 -0.3930  0.4792 -0.2624
   87SAPS   H6R 8325   2.045   2.149   9.539  1.2308 -0.0533  0.2883
   87SAPS   C27 8326   1.873   2.124   9.674  0.3381 -0.2993  0.6177
   87SAPS   H7R 8327   1.818   2.203   9.730  1.6738 -0.3405  2.0313
   87SAPS   H7S 8328   1.870   2.027   9.728  1.2112 -1.4205 -1.2621
   87SAPS   C28 8329   1.803   2.101   9.541 -0.4573  0.5067  0.5320
   87SAPS   H8R 8330   1.741   2.188   9.517 -0.1013  0.5371 -0.2988
   87SAPS   C29 8331   1.814   2.006   9.448 -0.3593 -0.4309 -0.4824
   87SAPS   H9R 8332   1.740   2.021   9.369 -0.5802  1.7934  0.0873
   87SAPS  C210 8333   1.888   1.876   9.458 -0.2819  1.0398  0.2648
   87SAPS  H10R 8334   1.817   1.795   9.430  0.5207  1.2625 -2.7261
   87SAPS  H10S 8335   1.915   1.862   9.565 -0.2736  0.7939  0.2301
   87SAPS  C211 8336   2.009   1.890   9.373 -0.1123 -0.3097  0.1882
   87SAPS  H11R 8337   2.089   1.950   9.419 -1.3561  1.3979  0.2455
   87SAPS  C212 8338   2.029   1.844   9.241  0.5069  0.4349  0.6454
   87SAPS  H12R 8339   2.123   1.856   9.185  1.1199 -4.2815  0.2246
   87SAPS  C213 8340   1.936   1.751   9.173  0.4897 -0.3267 -0.1721
   87SAPS  H13R 8341   1.891   1.811   9.091 -1.1239 -0.9237  0.2367
   87SAPS  H13S 8342   1.837   1.728   9.219  0.5313  1.1706  0.7284
   87SAPS  C214 8343   2.009   1.636   9.106 -0.9901 -0.3478 -0.0968
   87SAPS  H14R 8344   2.038   1.561   9.180 -3.2191 -1.3661 -0.1703
   87SAPS  C215 8345   2.028   1.611   8.976 -0.0108 -0.1527  0.4237
   87SAPS  H15R 8346   2.077   1.515   8.953 -0.4526 -0.0490 -1.0741
   87SAPS  C216 8347   1.988   1.691   8.858 -0.0788  0.1125  0.1924
   87SAPS  H16R 8348   1.963   1.796   8.885  1.6776  0.5169  0.3570
   87SAPS  H16S 8349   1.904   1.640   8.805 -0.0870  1.2842 -1.0009
   87SAPS  C217 8350   2.106   1.690   8.754  0.2841 -0.8823 -0.3683
   87SAPS  H17R 8351   2.162   1.594   8.749  0.9294 -0.5350  0.0017
   87SAPS  H17S 8352   2.181   1.764   8.791 -1.1496  2.1108 -2.9504
   87SAPS  C218 8353   2.076   1.731   8.606 -0.3514 -0.2496  0.7379
   87SAPS  H18R 8354   2.172   1.723   8.550 -1.1601 -0.5774 -0.6386
   87SAPS  H18S 8355   2.053   1.840   8.608 -1.2798 -0.4511  1.3813
   87SAPS  C219 8356   1.971   1.650   8.532  0.3015  0.0604 -0.8176
   87SAPS  H19R 8357   1.881   1.649   8.598  1.9122 -1.1267  1.4721
   87SAPS  H19S 8358   2.014   1.549   8.519 -1.4392 -1.2734  2.6057
   87SAPS  C220 8359   1.937   1.689   8.390  0.1066  0.2140 -0.3135
   87SAPS  H20R 8360   1.908   1.796   8.385 -2.3405 -0.3720  0.0025
   87SAPS  H20S 8361   1.848   1.637   8.349  0.0180 -0.6363  0.9060
   87SAPS  H20T 8362   2.020   1.668   8.318  1.2958  3.4039 -0.0025
   87SAPS   C33 8363   2.058   2.610   9.575  0.2059 -0.4557 -0.4629
   87SAPS   H3X 8364   2.144   2.557   9.620  1.1703  0.3867 -1.2431
   87SAPS   H3Y 8365   2.061   2.720   9.594 -0.2548 -0.3745 -0.8386
   87SAPS   C34 8366   2.052   2.582   9.432 -0.3207 -0.2419  0.8488
   87SAPS   H4X 8367   2.154   2.595   9.389  0.2532 -1.4987  1.7698
   87SAPS   H4Y 8368   1.985   2.659   9.388  0.5289 -0.6768 -1.3292
   87SAPS   C35 8369   2.012   2.443   9.388  0.3090 -0.3141  0.0777
   87SAPS   H5X 8370   1.901   2.437   9.391  0.3057 -0.1404  0.2871
   87SAPS   H5Y 8371   2.039   2.360   9.457 -1.8430 -2.2909 -1.3051
   87SAPS   C36 8372   2.069   2.390   9.256  0.2882  0.5898 -0.5112
   87SAPS   H6X 8373   2.180   2.396   9.263  0.2908  0.5929 -0.5513
   87SAPS   H6Y 8374   2.031   2.452   9.173 -0.8585  1.5297  0.6912
   87SAPS   C37 8375   2.036   2.243   9.227 -0.4988 -0.2697  0.0979
   87SAPS   H7X 8376   1.926   2.229   9.231 -0.6056  0.5840  0.3810
   87SAPS   H7Y 8377   2.080   2.181   9.308  0.0103  1.7918  1.4778
   87SAPS   C38 8378   2.102   2.192   9.101 -0.0977 -0.0114 -0.1884
   87SAPS   H8X 8379   2.078   2.249   9.009  2.0589  1.2911 -0.0158
   87SAPS   H8Y 8380   2.052   2.095   9.078  1.4197 -0.6516 -0.8734
   87SAPS   C39 8381   2.257   2.171   9.107  0.1537 -0.1831 -0.5804
   87SAPS   H9X 8382   2.276   2.071   9.151  0.2743  0.0371 -0.1291
   87SAPS   H9Y 8383   2.310   2.253   9.159  0.6759 -0.6159 -0.4282
   87SAPS  C310 8384   2.307   2.170   8.965 -0.0950  0.3015  0.4021
   87SAPS  H10X 8385   2.416   2.151   8.959 -0.4320 -1.5099 -2.5505
   87SAPS  H10Y 8386   2.289   2.266   8.911  1.2611  0.5435  0.3537
   87SAPS  C311 8387   2.241   2.062   8.869 -0.1224  0.3742  0.1499
   87SAPS  H11X 8388   2.139   2.091   8.838 -0.5486 -0.9905  0.2132
   87SAPS  H11Y 8389   2.225   1.965   8.920  2.6053  0.8774  2.2092
   87SAPS  C312 8390   2.307   2.034   8.733  0.2541  0.2079 -0.0027
   87SAPS  H12X 8391   2.253   1.951   8.681  2.2813 -2.6334  2.0912
   87SAPS  H12Y 8392   2.405   1.986   8.752  1.4459  1.4977 -2.4028
   87SAPS  C313 8393   2.320   2.157   8.642  0.3240  0.5465 -0.6534
   87SAPS  H13X 8394   2.392   2.224   8.693  0.3924 -0.3054  0.4161
   87SAPS  H13Y 8395   2.223   2.210   8.630  0.0620  0.0240 -0.8672
   87SAPS  C314 8396   2.390   2.130   8.515  0.7623 -0.1798  0.6354
   87SAPS  H14X 8397   2.489   2.088   8.541  2.3491  2.8935  0.0198
   87SAPS  H14Y 8398   2.407   2.230   8.469  3.9412  0.0502  2.0555
   87SAPS  C315 8399   2.310   2.048   8.410 -0.1386  0.0497 -0.4653
   87SAPS  H15X 8400   2.299   1.941   8.438  1.4447 -0.4662 -1.7159
   87SAPS  H15Y 8401   2.368   2.046   8.316  1.5701  0.7196  0.5325
   87SAPS  C316 8402   2.176   2.104   8.382  0.1920  0.3030 -0.0777
   87SAPS  H16X 8403   2.167   2.212   8.360 -0.2350  0.6048  1.4953
   87SAPS  H16Y 8404   2.125   2.103   8.481  2.9278  1.2218  1.4266
   87SAPS  C317 8405   2.082   2.030   8.281  0.5946  0.5477 -0.2891
   87SAPS  H17X 8406   2.107   1.925   8.305  0.6988  1.0388  2.0142
   87SAPS  H17Y 8407   2.115   2.034   8.175 -0.0314  0.2268 -0.4966
   87SAPS  C318 8408   1.936   2.069   8.276 -0.9928  0.1021  0.2543
   87SAPS  H18X 8409   1.880   2.013   8.354 -0.1730 -1.0187  0.0696
   87SAPS  H18Y 8410   1.894   2.041   8.177  2.1935 -0.1781 -1.1469
   87SAPS  H18Z 8411   1.921   2.179   8.281  3.6486  0.8963  0.8350
   88SAPS     N 8412   5.433   3.744  10.884 -0.0140 -0.4271 -0.5326
   88SAPS   HN1 8413   5.335   3.718  10.864  0.0040 -1.8066  1.0075
   88SAPS   HN2 8414   5.472   3.777  10.793 -0.6478 -0.3551 -0.7773
   88SAPS   HN3 8415   5.481   3.657  10.914 -0.7692 -0.7474 -0.2594
   88SAPS   C12 8416   5.441   3.858  10.984 -0.3358  0.0722  0.4715
   88SAPS  H12A 8417   5.371   3.936  10.958 -1.2422 -0.1463  2.1184
   88SAPS   C13 8418   5.404   3.820  11.129  0.3033 -0.2500  0.2876
   88SAPS  O13A 8419   5.396   3.699  11.159  0.1688 -0.1565  0.1701
   88SAPS  O13B 8420   5.392   3.905  11.216 -0.2324 -0.5217  0.4625
   88SAPS   C11 8421   5.578   3.928  10.994 -0.1565  0.1522 -0.0453
   88SAPS  H11A 8422   5.641   3.880  11.072  1.6539 -1.1781 -2.1821
   88SAPS  H11B 8423   5.556   4.026  11.042 -2.1691 -1.0769  1.6966
   88SAPS     P 8424   5.780   4.035  10.870  0.3676  0.5089  0.2021
   88SAPS   O13 8425   5.747   4.165  10.929 -0.0524  0.3068  0.1841
   88SAPS   O14 8426   5.895   3.964  10.928 -1.0443 -0.1540  0.6342
   88SAPS   O12 8427   5.656   3.935  10.876  0.0970  0.6809  0.1843
   88SAPS   O11 8428   5.797   4.059  10.720 -0.7597  0.3022  0.4501
   88SAPS    C1 8429   5.917   4.119  10.674  0.7428  0.5444 -0.0874
   88SAPS    HA 8430   6.001   4.087  10.739 -0.7641  0.3799  1.8653
   88SAPS    HB 8431   5.942   4.072  10.577 -0.4225 -0.6065  0.1489
   88SAPS    C2 8432   5.908   4.276  10.655  0.5623  0.6487 -0.0057
   88SAPS    HS 8433   5.881   4.332  10.747 -1.6239  0.2330 -0.3194
   88SAPS   O21 8434   5.814   4.300  10.545 -0.0458 -0.0423  0.2861
   88SAPS   C21 8435   5.691   4.310  10.584 -0.3126 -0.1521 -0.0403
   88SAPS   O22 8436   5.644   4.299  10.697 -0.3197 -0.1733  0.2435
   88SAPS   C22 8437   5.600   4.337  10.469 -0.8656 -0.4571 -0.4361
   88SAPS   H2R 8438   5.498   4.303  10.498 -1.3752  2.0540  0.9739
   88SAPS   H2S 8439   5.590   4.447  10.459 -2.9188 -0.6400 -0.9675
   88SAPS    C3 8440   6.043   4.333  10.616  0.4462  0.5069  0.0050
   88SAPS    HX 8441   6.125   4.298  10.683  0.8290 -0.1140 -0.7718
   88SAPS    HY 8442   6.038   4.444  10.622  1.6008  0.5489  0.3676
   88SAPS   O31 8443   6.072   4.289  10.481 -0.6613  0.3933  0.4029
   88SAPS   C31 8444   6.159   4.367  10.416 -0.5686  0.3266  0.3552
   88SAPS   O32 8445   6.230   4.454  10.468  0.1403  0.8549  0.0647
   88SAPS   C32 8446   6.134   4.341  10.276 -0.3517  0.4646 -0.4141
   88SAPS   H2X 8447   6.045   4.398  10.244 -0.6909  0.6699  0.8668
   88SAPS   H2Y 8448   6.097   4.238  10.253  2.0480 -0.2644 -1.4216
   88SAPS   C23 8449   5.618   4.282  10.325  0.9864 -0.2335 -0.4957
   88SAPS   H3R 8450   5.527   4.302  10.264  1.7582  0.2570 -1.5187
   88SAPS   H3S 8451   5.618   4.171  10.322 -0.0085 -0.5214  3.6741
   88SAPS   C24 8452   5.745   4.330  10.249  0.0400  0.6529 -0.5199
   88SAPS   H4R 8453   5.743   4.266  10.159  0.7119  3.2107 -2.4499
   88SAPS   H4S 8454   5.837   4.312  10.310  0.6312  3.3096 -0.5211
   88SAPS   C25 8455   5.740   4.473  10.224  0.3971  0.1942  0.0334
   88SAPS   H5R 8456   5.745   4.552  10.301  1.5205  0.7745 -0.6130
   88SAPS   C26 8457   5.731   4.520  10.091 -0.5173  0.2067  0.0529
   88SAPS   H6R 8458   5.717   4.628  10.072  1.1305  0.1564 -1.7123
   88SAPS   C27 8459   5.729   4.435   9.966 -0.1508  0.3382 -0.6731
   88SAPS   H7R 8460   5.691   4.501   9.885 -0.4929  1.6299  0.4990
   88SAPS   H7S 8461   5.656   4.352   9.971 -0.6153  0.8000  1.4141
   88SAPS   C28 8462   5.866   4.385   9.930  0.0677 -0.5956  0.2139
   88SAPS   H8R 8463   5.945   4.404  10.004 -0.5022  0.6019  0.5421
   88SAPS   C29 8464   5.897   4.335   9.810 -0.2147 -0.8272 -0.2405
   88SAPS   H9R 8465   6.003   4.307   9.798  0.0052 -0.6134  1.1301
   88SAPS  C210 8466   5.810   4.320   9.688 -0.1074 -0.2932  0.3548
   88SAPS  H10R 8467   5.703   4.320   9.720  0.0441  0.0531  0.8885
   88SAPS  H10S 8468   5.826   4.218   9.649 -0.9146 -0.0687 -0.5892
   88SAPS  C211 8469   5.841   4.429   9.583  0.6859  0.3447 -0.1733
   88SAPS  H11R 8470   5.865   4.528   9.626 -0.2674  1.1328 -1.3835
   88SAPS  C212 8471   5.861   4.407   9.457  0.5738 -0.5475  0.6535
   88SAPS  H12R 8472   5.887   4.496   9.397 -1.1875  0.8523  1.8596
   88SAPS  C213 8473   5.835   4.278   9.378  0.3439 -0.7119 -0.2207
   88SAPS  H13R 8474   5.798   4.294   9.275 -0.5875 -0.5398  0.1357
   88SAPS  H13S 8475   5.749   4.227   9.425  0.7687  0.5817  2.1836
   88SAPS  C214 8476   5.945   4.176   9.369 -0.1273 -0.1744 -0.6125
   88SAPS  H14R 8477   6.001   4.159   9.462 -2.6939 -1.0495  0.8683
   88SAPS  C215 8478   5.972   4.099   9.263  0.4503 -0.0758  0.1586
   88SAPS  H15R 8479   6.046   4.020   9.280  1.8888  1.4129  1.0596
   88SAPS  C216 8480   5.902   4.076   9.128 -0.5444  0.3647 -0.1444
   88SAPS  H16R 8481   5.807   4.134   9.124 -0.5917  0.2637 -2.8942
   88SAPS  H16S 8482   5.884   3.966   9.121  3.6127 -0.6784  2.4377
   88SAPS  C217 8483   5.997   4.123   9.013  0.6606  0.7009  0.2246
   88SAPS  H17R 8484   5.960   4.077   8.919  1.4169 -0.6211  0.5479
   88SAPS  H17S 8485   6.098   4.080   9.033 -0.7211 -2.8002  0.2974
   88SAPS  C218 8486   6.016   4.272   8.998 -0.2737 -0.1842 -0.1819
   88SAPS  H18R 8487   6.066   4.304   9.092  0.9776 -2.7890  0.1531
   88SAPS  H18S 8488   5.923   4.332   8.998 -0.2021  0.0638  2.6532
   88SAPS  C219 8489   6.096   4.316   8.879  0.2235 -0.0498  0.5204
   88SAPS  H19R 8490   6.049   4.275   8.786 -1.0579 -0.0032  1.1366
   88SAPS  H19S 8491   6.193   4.264   8.895  0.6198  1.0993  1.9471
   88SAPS  C220 8492   6.122   4.468   8.869  0.6607  0.5290  0.3699
   88SAPS  H20R 8493   6.025   4.517   8.846  0.2299 -0.4737 -0.0180
   88SAPS  H20S 8494   6.176   4.498   8.777 -1.9817  1.0947 -1.0872
   88SAPS  H20T 8495   6.173   4.509   8.959  1.7627 -0.3301  0.1627
   88SAPS   C33 8496   6.258   4.375  10.181 -0.7930 -0.1397 -0.4341
   88SAPS   H3X 8497   6.326   4.289  10.199 -1.3469 -0.3019  1.0153
   88SAPS   H3Y 8498   6.309   4.468  10.214 -0.3089  0.3374 -2.3669
   88SAPS   C34 8499   6.211   4.368  10.035 -0.0918 -0.4089  0.0007
   88SAPS   H4X 8500   6.132   4.444  10.019 -0.1542 -0.5122 -0.1906
   88SAPS   H4Y 8501   6.179   4.267  10.002  0.6297 -0.9782  0.9883
   88SAPS   C35 8502   6.325   4.417   9.937 -0.1802 -0.3630 -0.4933
   88SAPS   H5X 8503   6.411   4.346   9.935 -0.4904 -0.7629  0.1158
   88SAPS   H5Y 8504   6.352   4.523   9.952  1.2181 -0.7366 -0.1311
   88SAPS   C36 8505   6.259   4.419   9.796  0.3382 -0.2452  0.6205
   88SAPS   H6X 8506   6.163   4.475   9.794  0.0566 -0.7301  0.3814
   88SAPS   H6Y 8507   6.248   4.315   9.759 -1.7494  1.2295 -3.6664
   88SAPS   C37 8508   6.335   4.480   9.684 -0.2644  0.0048 -0.1160
   88SAPS   H7X 8509   6.445   4.471   9.694  0.0912  0.3239 -2.8249
   88SAPS   H7Y 8510   6.313   4.589   9.684 -1.1491 -0.0977  2.8940
   88SAPS   C38 8511   6.300   4.423   9.547  0.1836  0.0428  0.2802
   88SAPS   H8X 8512   6.216   4.479   9.500 -2.0823 -2.1277  1.5314
   88SAPS   H8Y 8513   6.256   4.322   9.561  1.4108 -0.4143  0.9787
   88SAPS   C39 8514   6.409   4.400   9.443 -0.3451 -0.6501  0.4656
   88SAPS   H9X 8515   6.373   4.317   9.379  1.3887 -0.4396 -0.8308
   88SAPS   H9Y 8516   6.510   4.377   9.482  1.0041  1.4554 -1.5452
   88SAPS  C310 8517   6.421   4.519   9.350 -0.1726 -0.2503  0.1024
   88SAPS  H10X 8518   6.462   4.592   9.423 -2.5952  0.8129  0.4961
   88SAPS  H10Y 8519   6.322   4.559   9.321 -0.2186 -0.7276 -0.4317
   88SAPS  C311 8520   6.525   4.496   9.234 -0.0737  0.8270 -0.1184
   88SAPS  H11X 8521   6.617   4.469   9.289 -1.6258 -2.9703  0.9671
   88SAPS  H11Y 8522   6.549   4.596   9.192  1.8911  0.4362 -0.0053
   88SAPS  C312 8523   6.491   4.388   9.122  0.1815 -0.2420 -0.2621
   88SAPS  H12X 8524   6.404   4.418   9.059  2.0632  0.7718 -2.5247
   88SAPS  H12Y 8525   6.480   4.292   9.176  1.8531  0.3747  1.2799
   88SAPS  C313 8526   6.600   4.359   9.023  0.0460  0.2034  0.3634
   88SAPS  H13X 8527   6.552   4.280   8.961 -0.4224  0.0493  0.9206
   88SAPS  H13Y 8528   6.693   4.327   9.074 -0.0642 -1.8267 -0.6109
   88SAPS  C314 8529   6.622   4.485   8.934  0.2568 -0.0328  0.5767
   88SAPS  H14X 8530   6.725   4.477   8.893  0.0107 -0.2743 -0.0043
   88SAPS  H14Y 8531   6.619   4.573   9.002 -2.5310  1.4129 -1.2349
   88SAPS  C315 8532   6.524   4.504   8.818  0.5275 -0.0899  0.4568
   88SAPS  H15X 8533   6.417   4.504   8.847  0.0383  0.1713 -1.2293
   88SAPS  H15Y 8534   6.530   4.414   8.754  0.4686  0.5954 -0.5376
   88SAPS  C316 8535   6.552   4.627   8.729 -0.0435 -0.1308 -0.1641
   88SAPS  H16X 8536   6.655   4.623   8.687 -0.3216  0.4621 -0.9051
   88SAPS  H16Y 8537   6.542   4.727   8.775  3.4045  1.5476 -2.5779
   88SAPS  C317 8538   6.455   4.636   8.609  1.0616 -0.5397 -0.5002
   88SAPS  H17X 8539   6.354   4.662   8.648  0.7807 -0.2300 -1.4152
   88SAPS  H17Y 8540   6.437   4.541   8.554 -0.5649 -1.7584  1.9216
   88SAPS  C318 8541   6.505   4.736   8.508  0.2787 -0.4241 -0.6802
   88SAPS  H18X 8542   6.435   4.746   8.422 -1.3073  1.7876  0.7673
   88SAPS  H18Y 8543   6.611   4.713   8.483  0.3487 -3.0065  1.6184
   88SAPS  H18Z 8544   6.498   4.837   8.554  2.7902 -1.3850  2.1147
   89SAPS     N 8545   5.841   0.176  10.505  0.3151 -0.1401 -0.0735
   89SAPS   HN1 8546   5.787   0.220  10.428  1.3333 -0.3747 -0.9508
   89SAPS   HN2 8547   5.936   0.217  10.495 -0.3207  0.8076 -3.4694
   89SAPS   HN3 8548   5.845   0.082  10.460 -1.7465  0.6047 -2.0209
   89SAPS   C12 8549   5.781   0.176  10.643  0.9320  0.0789 -0.3004
   89SAPS  H12A 8550   5.679   0.141  10.633  1.1938 -0.4352 -1.3165
   89SAPS   C13 8551   5.856   0.083  10.744  0.7201  0.2425 -0.0391
   89SAPS  O13A 8552   5.972   0.035  10.724 -1.1968 -1.1325  0.6086
   89SAPS  O13B 8553   5.789   0.035  10.841  0.2652 -0.5008  0.3593
   89SAPS   C11 8554   5.774   0.321  10.698  0.1159  0.5577 -0.0813
   89SAPS  H11A 8555   5.882   0.346  10.706  0.8832 -1.7093 -2.2542
   89SAPS  H11B 8556   5.737   0.311  10.802 -1.6042  0.0303 -0.7137
   89SAPS     P 8557   5.543   0.434  10.639  0.1901 -0.4684 -0.0797
   89SAPS   O13 8558   5.491   0.317  10.717  0.2460 -0.2632 -0.1606
   89SAPS   O14 8559   5.527   0.573  10.688 -0.8401  0.2193 -0.2520
   89SAPS   O12 8560   5.703   0.413  10.613  0.4179 -0.0809 -0.5532
   89SAPS   O11 8561   5.480   0.430  10.495  0.3802 -0.4736  0.2944
   89SAPS    C1 8562   5.511   0.521  10.391 -1.0140  0.0628  0.1046
   89SAPS    HA 8563   5.496   0.623  10.433 -2.0593  1.2505 -2.8980
   89SAPS    HB 8564   5.615   0.508  10.354 -1.3983 -1.3745 -0.5452
   89SAPS    C2 8565   5.395   0.513  10.287 -0.0496 -0.8288  0.3406
   89SAPS    HS 8566   5.300   0.486  10.338  1.1143 -1.1493  2.4453
   89SAPS   O21 8567   5.433   0.432  10.176  0.4671  0.0948 -0.1604
   89SAPS   C21 8568   5.359   0.327  10.155 -0.3394  0.0593 -0.0616
   89SAPS   O22 8569   5.262   0.291  10.219 -0.3983  0.1815 -0.1030
   89SAPS   C22 8570   5.420   0.242  10.039 -0.2945 -0.2400  0.3181
   89SAPS   H2R 8571   5.499   0.177  10.083 -3.1225 -3.8531  0.4667
   89SAPS   H2S 8572   5.344   0.170  10.005  2.0985 -1.4882 -2.9180
   89SAPS    C3 8573   5.346   0.658  10.237  0.7100  0.6319 -0.5183
   89SAPS    HX 8574   5.328   0.727  10.323 -0.4376 -0.0539 -0.1877
   89SAPS    HY 8575   5.249   0.638  10.186  1.9155 -0.7229 -2.3904
   89SAPS   O31 8576   5.451   0.708  10.159  0.1268  1.1163 -0.1677
   89SAPS   C31 8577   5.450   0.714  10.026  0.4200  0.4600  0.8295
   89SAPS   O32 8578   5.353   0.682   9.961 -0.5620  0.4802  0.4076
   89SAPS   C32 8579   5.582   0.748   9.964 -0.7830 -0.3569 -0.2211
   89SAPS   H2X 8580   5.668   0.683   9.990  2.0456  1.8106 -3.3693
   89SAPS   H2Y 8581   5.598   0.851  10.003 -2.3743 -1.0113  2.4621
   89SAPS   C23 8582   5.474   0.324   9.918 -0.4607  0.3580 -0.4092
   89SAPS   H3R 8583   5.411   0.407   9.880 -2.4798 -0.7289  0.3962
   89SAPS   H3S 8584   5.482   0.246   9.840  1.0383 -0.2042  0.2560
   89SAPS   C24 8585   5.614   0.382   9.941 -0.3311  0.3193  0.5268
   89SAPS   H4R 8586   5.621   0.479   9.996  4.1730  0.4996 -0.0047
   89SAPS   H4S 8587   5.649   0.403   9.838 -1.9866 -2.1410 -0.6252
   89SAPS   C25 8588   5.712   0.291  10.004  0.4932 -0.1584  0.1354
   89SAPS   H5R 8589   5.713   0.292  10.114  0.2795  1.5921  0.1512
   89SAPS   C26 8590   5.802   0.211   9.939 -0.4315 -0.3648  0.5088
   89SAPS   H6R 8591   5.863   0.135   9.991 -0.2234 -1.0588 -0.6970
   89SAPS   C27 8592   5.828   0.218   9.790  0.0427 -0.7215 -0.4604
   89SAPS   H7R 8593   5.738   0.257   9.739  0.3338  2.7100  1.3601
   89SAPS   H7S 8594   5.849   0.116   9.751 -0.1582 -1.1209  0.4423
   89SAPS   C28 8595   5.956   0.296   9.760  0.0162  0.0249 -0.4890
   89SAPS   H8R 8596   6.038   0.303   9.833 -0.6647 -0.9689  0.4089
   89SAPS   C29 8597   5.971   0.354   9.639 -0.6600  0.4075 -0.2065
   89SAPS   H9R 8598   6.070   0.399   9.624  0.0992 -0.8347  0.7854
   89SAPS  C210 8599   5.883   0.343   9.520 -0.4847 -0.3152 -0.0044
   89SAPS  H10R 8600   5.796   0.410   9.539 -1.0311 -0.5213 -1.6144
   89SAPS  H10S 8601   5.837   0.242   9.514  0.3541 -0.9251  2.4995
   89SAPS  C211 8602   5.955   0.372   9.390  0.4993 -0.0867 -0.4209
   89SAPS  H11R 8603   6.053   0.323   9.380  0.2625 -0.6151 -0.1622
   89SAPS  C212 8604   5.910   0.429   9.277  0.2711  0.0810 -0.2719
   89SAPS  H12R 8605   5.980   0.446   9.194  0.2744  0.2722 -0.2294
   89SAPS  C213 8606   5.773   0.484   9.253 -0.0298  0.0876 -0.2596
   89SAPS  H13R 8607   5.773   0.595   9.265 -4.2846  0.1415  0.6579
   89SAPS  H13S 8608   5.701   0.452   9.331  1.6548 -0.7208  1.0313
   89SAPS  C214 8609   5.714   0.434   9.125 -0.1318 -0.1721  0.4406
   89SAPS  H14R 8610   5.677   0.331   9.131  0.6049 -0.4792 -0.1181
   89SAPS  C215 8611   5.733   0.482   9.000 -0.1415 -0.3976  0.2202
   89SAPS  H15R 8612   5.680   0.427   8.920 -0.4571  0.9483 -0.5205
   89SAPS  C216 8613   5.819   0.605   8.969 -0.0650 -0.4496 -0.5097
   89SAPS  H16R 8614   5.881   0.630   9.058 -0.7850 -2.4497  0.6218
   89SAPS  H16S 8615   5.755   0.689   8.935  2.7918  0.5292 -4.1223
   89SAPS  C217 8616   5.917   0.569   8.863  0.1116  0.0762 -0.2010
   89SAPS  H17R 8617   5.958   0.471   8.896 -1.2393 -0.8986 -1.2836
   89SAPS  H17S 8618   5.991   0.652   8.867 -0.8812  0.9175  1.2132
   89SAPS  C218 8619   5.857   0.544   8.723  0.3070 -0.0588 -0.8509
   89SAPS  H18R 8620   5.768   0.610   8.720 -0.7924 -1.4876 -0.8994
   89SAPS  H18S 8621   5.825   0.438   8.711 -0.6881  0.2880 -1.3379
   89SAPS  C219 8622   5.952   0.585   8.609 -0.1336 -0.2646 -0.3637
   89SAPS  H19R 8623   6.036   0.513   8.617  0.3452  0.0599 -2.1030
   89SAPS  H19S 8624   6.001   0.680   8.639 -0.2180 -0.5810  0.8315
   89SAPS  C220 8625   5.882   0.588   8.470 -0.0610  0.3562 -0.9273
   89SAPS  H20R 8626   5.919   0.503   8.409 -0.4973 -0.9328  0.5372
   89SAPS  H20S 8627   5.919   0.666   8.400  0.6523  0.7913 -0.0781
   89SAPS  H20T 8628   5.771   0.593   8.480  0.0852  2.3931  0.1884
   89SAPS   C33 8629   5.571   0.749   9.812  0.3652  0.1684  0.3275
   89SAPS   H3X 8630   5.511   0.840   9.790 -1.0861 -0.6828  0.6407
   89SAPS   H3Y 8631   5.538   0.650   9.774  1.8366 -0.3246  0.2585
   89SAPS   C34 8632   5.709   0.761   9.742  0.1777  0.6506 -0.8148
   89SAPS   H4X 8633   5.771   0.670   9.762 -0.6782  0.2303 -0.0398
   89SAPS   H4Y 8634   5.764   0.850   9.778 -1.4554  1.7295 -0.9074
   89SAPS   C35 8635   5.701   0.775   9.587  0.5134  0.9348  0.4158
   89SAPS   H5X 8636   5.650   0.685   9.547  0.8598 -0.3213  2.6248
   89SAPS   H5Y 8637   5.804   0.771   9.546  0.6846  0.2802  0.8877
   89SAPS   C36 8638   5.630   0.898   9.533 -0.7159 -0.1571 -0.0345
   89SAPS   H6X 8639   5.677   0.985   9.583  0.6363 -0.8685 -0.0281
   89SAPS   H6Y 8640   5.526   0.876   9.565  0.0795 -2.1658  1.4071
   89SAPS   C37 8641   5.626   0.908   9.382 -0.5190 -0.3289  0.0817
   89SAPS   H7X 8642   5.539   0.971   9.356 -0.7520 -0.8919 -0.5319
   89SAPS   H7Y 8643   5.614   0.810   9.332  1.0192  0.0439 -1.1204
   89SAPS   C38 8644   5.761   0.960   9.313  0.3349 -0.1833  0.4869
   89SAPS   H8X 8645   5.842   0.921   9.378  0.8038  2.6231  1.7191
   89SAPS   H8Y 8646   5.763   1.071   9.315  3.9249 -0.1291  2.1093
   89SAPS   C39 8647   5.810   0.893   9.175 -0.1299  0.3482  0.4308
   89SAPS   H9X 8648   5.726   0.859   9.110  1.2972 -1.5051 -0.5248
   89SAPS   H9Y 8649   5.870   0.803   9.198  0.2937  0.8432  1.3363
   89SAPS  C310 8650   5.881   0.988   9.077  0.2138 -0.0897 -0.6205
   89SAPS  H10X 8651   5.957   1.043   9.136 -1.0916 -0.4612  1.5337
   89SAPS  H10Y 8652   5.808   1.063   9.040 -0.6763  0.0161  1.2542
   89SAPS  C311 8653   5.953   0.922   8.964  0.1260  0.7301  0.3869
   89SAPS  H11X 8654   5.879   0.856   8.915  1.2020 -0.5768  0.4825
   89SAPS  H11Y 8655   6.022   0.850   9.012  1.5519  1.4019 -0.6075
   89SAPS  C312 8656   6.024   1.014   8.869  0.0446 -0.2466 -0.4064
   89SAPS  H12X 8657   6.113   1.067   8.909 -0.9307  0.8934  0.3251
   89SAPS  H12Y 8658   5.953   1.091   8.832  0.2101  0.6089  0.9736
   89SAPS  C313 8659   6.064   0.928   8.747 -0.5220 -0.1219 -0.3891
   89SAPS  H13X 8660   5.976   0.884   8.695 -1.3654 -0.4568  1.2636
   89SAPS  H13Y 8661   6.121   0.848   8.800  1.2189  0.7644 -0.8433
   89SAPS  C314 8662   6.187   0.970   8.658  0.1955  0.5904 -0.4447
   89SAPS  H14X 8663   6.283   0.951   8.711  0.1799  1.4428 -0.1084
   89SAPS  H14Y 8664   6.175   1.076   8.627 -0.9710  0.3141 -1.0128
   89SAPS  C315 8665   6.182   0.896   8.522  0.2552  0.4832 -0.5757
   89SAPS  H15X 8666   6.093   0.909   8.457 -2.5622 -0.5804  2.7681
   89SAPS  H15Y 8667   6.184   0.789   8.551 -0.7860  0.6490  0.1441
   89SAPS  C316 8668   6.314   0.936   8.451  0.5620  0.1354 -0.0738
   89SAPS  H16X 8669   6.341   0.846   8.392  1.2004 -1.0464  1.9308
   89SAPS  H16Y 8670   6.398   0.941   8.523 -2.0453  1.5164  3.1252
   89SAPS  C317 8671   6.309   1.061   8.370 -0.1286 -0.2088  0.0297
   89SAPS  H17X 8672   6.279   1.146   8.435  0.0643 -0.0220 -0.1271
   89SAPS  H17Y 8673   6.231   1.054   8.291 -1.0972  3.5995  0.4269
   89SAPS  C318 8674   6.450   1.078   8.308 -0.2237 -0.0703 -0.1370
   89SAPS  H18X 8675   6.481   0.997   8.239 -0.2093 -0.3191  0.1628
   89SAPS  H18Y 8676   6.523   1.094   8.391 -2.6630  0.6255  1.9943
   89SAPS  H18Z 8677   6.448   1.169   8.244  1.0812  0.1909  0.1534
   90SAPS     N 8678   0.346   0.493  10.720  0.9074 -0.7630 -0.1828
   90SAPS   HN1 8679   0.250   0.466  10.692  0.4728 -0.8800  1.3117
   90SAPS   HN2 8680   0.411   0.486  10.639 -0.2627  2.4422 -1.6111
   90SAPS   HN3 8681   0.372   0.447  10.810  2.2825 -1.2712 -0.8158
   90SAPS   C12 8682   0.317   0.637  10.745  0.2503  0.0460  0.2219
   90SAPS  H12A 8683   0.250   0.669  10.666  0.3365 -1.1019 -0.3282
   90SAPS   C13 8684   0.248   0.653  10.886  0.8806  0.2297 -0.2833
   90SAPS  O13A 8685   0.216   0.543  10.949 -0.0849 -0.4838  0.2706
   90SAPS  O13B 8686   0.215   0.765  10.929  0.2872  0.0014 -0.3525
   90SAPS   C11 8687   0.447   0.713  10.766 -0.8251  0.4656 -0.1758
   90SAPS  H11A 8688   0.493   0.686  10.864  0.6252  0.6640 -0.7650
   90SAPS  H11B 8689   0.417   0.819  10.780  2.2962  1.2272  1.8080
   90SAPS     P 8690   0.685   0.758  10.667  0.6530  0.8259 -0.3014
   90SAPS   O13 8691   0.692   0.902  10.636 -0.1156  0.8161  0.1581
   90SAPS   O14 8692   0.747   0.709  10.792 -0.2682  0.8143  0.1264
   90SAPS   O12 8693   0.533   0.709  10.655 -0.2061 -0.1410  0.8457
   90SAPS   O11 8694   0.747   0.683  10.549 -1.0070  0.6472 -0.0837
   90SAPS    C1 8695   0.754   0.541  10.530 -0.2063  0.4607 -0.0789
   90SAPS    HA 8696   0.827   0.503  10.605  4.0998  3.9149 -2.0903
   90SAPS    HB 8697   0.650   0.503  10.540  0.2158 -0.8564 -0.4631
   90SAPS    C2 8698   0.819   0.501  10.393  0.4754  0.4406  0.3863
   90SAPS    HS 8699   0.930   0.512  10.400  0.4113  0.8752  0.7660
   90SAPS   O21 8700   0.785   0.579  10.277  0.1799  0.4155 -0.4216
   90SAPS   C21 8701   0.663   0.610  10.254  0.4378 -0.0788 -0.1123
   90SAPS   O22 8702   0.568   0.549  10.300 -0.4411 -0.5412  0.4270
   90SAPS   C22 8703   0.644   0.726  10.153 -0.3554  0.1485 -0.3204
   90SAPS   H2R 8704   0.570   0.796  10.198  0.6437  0.3047  1.1313
   90SAPS   H2S 8705   0.743   0.777  10.154  0.0680 -0.6240  2.0742
   90SAPS    C3 8706   0.794   0.346  10.374 -0.7102 -0.0899 -0.3596
   90SAPS    HX 8707   0.686   0.327  10.389 -0.3812 -1.1635  0.7755
   90SAPS    HY 8708   0.852   0.295  10.453 -0.3740  1.0570  0.1606
   90SAPS   O31 8709   0.840   0.314  10.239  0.6407  0.3920 -0.3423
   90SAPS   C31 8710   0.967   0.279  10.229  0.4390  0.7830 -0.6257
   90SAPS   O32 8711   1.041   0.254  10.321 -0.7231 -0.4559  0.1815
   90SAPS   C32 8712   1.002   0.267  10.076  0.6772 -0.3248  0.2455
   90SAPS   H2X 8713   0.918   0.208  10.034 -0.3810  0.5266  1.1361
   90SAPS   H2Y 8714   1.094   0.203  10.071  0.2184 -0.9758 -0.0018
   90SAPS   C23 8715   0.614   0.681  10.014 -0.2424 -0.2673 -0.0852
   90SAPS   H3R 8716   0.554   0.588  10.017  2.2703 -1.9992 -0.6460
   90SAPS   H3S 8717   0.714   0.649   9.976 -0.0886 -0.5283  0.5346
   90SAPS   C24 8718   0.542   0.793   9.937  0.8970 -0.1974  0.2030
   90SAPS   H4R 8719   0.599   0.888   9.932 -3.0103  2.3147 -1.8970
   90SAPS   H4S 8720   0.452   0.814   9.999  1.5437  1.6479  0.5630
   90SAPS   C25 8721   0.488   0.768   9.796  0.0196  0.0136 -0.0805
   90SAPS   H5R 8722   0.385   0.736   9.779 -0.1041  0.5045 -0.2892
   90SAPS   C26 8723   0.567   0.768   9.688  0.0516 -0.4055 -0.4611
   90SAPS   H6R 8724   0.519   0.764   9.589  1.3740 -0.2181 -1.1262
   90SAPS   C27 8725   0.717   0.788   9.674  0.4078  0.0340 -0.4882
   90SAPS   H7R 8726   0.765   0.818   9.770  1.0247 -0.1725 -0.7260
   90SAPS   H7S 8727   0.737   0.866   9.597 -0.1028 -0.4072 -1.0771
   90SAPS   C28 8728   0.784   0.654   9.643 -0.6016  1.1179  0.8109
   90SAPS   H8R 8729   0.786   0.577   9.722  1.5429 -1.3175 -1.3858
   90SAPS   C29 8730   0.838   0.616   9.525  1.6557 -0.4459 -0.5925
   90SAPS   H9R 8731   0.886   0.518   9.509 -2.3197 -2.6472 -0.3598
   90SAPS  C210 8732   0.843   0.698   9.399 -0.1265 -0.6046 -0.1384
   90SAPS  H10R 8733   0.794   0.797   9.413  0.2535 -0.4038 -0.2310
   90SAPS  H10S 8734   0.781   0.643   9.325 -0.6593  1.6490 -1.4642
   90SAPS  C211 8735   0.972   0.728   9.328 -0.5709 -0.2992 -0.4953
   90SAPS  H11R 8736   1.003   0.832   9.345  0.5846 -1.0672  3.0546
   90SAPS  C212 8737   1.038   0.641   9.247  0.1413  0.2445 -0.2831
   90SAPS  H12R 8738   1.136   0.675   9.209  0.6598  1.0851  1.6803
   90SAPS  C213 8739   1.002   0.503   9.210  0.6101 -0.4613  0.5323
   90SAPS  H13R 8740   0.911   0.472   9.266 -0.2398  0.7985 -0.1077
   90SAPS  H13S 8741   1.079   0.428   9.240 -0.3214 -2.5355 -1.9001
   90SAPS  C214 8742   0.955   0.492   9.064 -0.0243 -0.6908 -1.1945
   90SAPS  H14R 8743   0.853   0.528   9.041 -0.2505 -1.7671 -1.9813
   90SAPS  C215 8744   1.024   0.437   8.965 -0.0577  0.1100 -0.4073
   90SAPS  H15R 8745   0.971   0.450   8.870 -2.8133  1.4997  1.1882
   90SAPS  C216 8746   1.156   0.364   8.978 -0.5714  0.0603  0.0337
   90SAPS  H16R 8747   1.135   0.257   8.960 -1.2329  0.0152  0.9806
   90SAPS  H16S 8748   1.198   0.383   9.080  0.3222 -1.9221  0.0794
   90SAPS  C217 8749   1.275   0.404   8.881  0.1884 -0.2085  0.1251
   90SAPS  H17R 8750   1.365   0.342   8.900  0.5497 -0.2910 -1.6675
   90SAPS  H17S 8751   1.310   0.506   8.909  2.4480 -1.4200  2.0825
   90SAPS  C218 8752   1.253   0.391   8.731  0.5084 -0.3516  0.5774
   90SAPS  H18R 8753   1.161   0.450   8.707  0.6793 -0.2959  0.0526
   90SAPS  H18S 8754   1.236   0.284   8.704 -1.4806  0.1280 -0.2843
   90SAPS  C219 8755   1.360   0.453   8.644  0.0975  0.4341  0.6101
   90SAPS  H19R 8756   1.461   0.411   8.662 -0.3727 -0.2213  1.7947
   90SAPS  H19S 8757   1.357   0.561   8.666 -0.6498  0.7232 -0.7619
   90SAPS  C220 8758   1.320   0.450   8.488 -0.0730  0.2686 -0.5626
   90SAPS  H20R 8759   1.249   0.533   8.471  1.1723  1.0713 -2.0645
   90SAPS  H20S 8760   1.269   0.357   8.453  2.3460 -0.9453 -1.0716
   90SAPS  H20T 8761   1.413   0.477   8.434  0.8024 -1.8992 -0.2568
   90SAPS   C33 8762   1.007   0.406   9.999 -0.3198 -0.2905 -0.3399
   90SAPS   H3X 8763   0.941   0.471  10.060  1.2080  1.2548 -0.2668
   90SAPS   H3Y 8764   0.969   0.406   9.895 -0.1513  1.1999 -0.4117
   90SAPS   C34 8765   1.148   0.462   9.979 -0.6778 -0.3690 -0.4387
   90SAPS   H4X 8766   1.206   0.389   9.918  0.0968 -1.3064  1.3383
   90SAPS   H4Y 8767   1.204   0.465  10.075  0.4302  0.3235 -1.0864
   90SAPS   C35 8768   1.164   0.601   9.908 -0.3024  0.0332  0.5824
   90SAPS   H5X 8769   1.251   0.649   9.958  0.0894 -0.5140  0.4425
   90SAPS   H5Y 8770   1.081   0.671   9.928 -1.0919  0.5207 -3.4920
   90SAPS   C36 8771   1.177   0.604   9.747  0.4962 -0.1166  0.4132
   90SAPS   H6X 8772   1.190   0.713   9.729  0.4630 -0.3447 -1.1203
   90SAPS   H6Y 8773   1.079   0.570   9.707  2.3757 -6.3862  0.0566
   90SAPS   C37 8774   1.278   0.506   9.693  0.3463  0.1330  0.6035
   90SAPS   H7X 8775   1.275   0.401   9.731  0.7426  0.6259  2.0258
   90SAPS   H7Y 8776   1.384   0.529   9.718 -0.0543  0.6664  1.9054
   90SAPS   C38 8777   1.258   0.494   9.543 -0.5542  0.0617 -0.6262
   90SAPS   H8X 8778   1.282   0.588   9.488  2.1964 -1.4820 -2.3131
   90SAPS   H8Y 8779   1.154   0.462   9.524  0.6153 -3.2424 -2.1666
   90SAPS   C39 8780   1.365   0.400   9.491 -0.0442 -0.2295 -1.1453
   90SAPS   H9X 8781   1.324   0.304   9.530  0.4888 -0.1203 -0.3023
   90SAPS   H9Y 8782   1.465   0.412   9.539  0.2215 -2.0430 -1.1647
   90SAPS  C310 8783   1.378   0.388   9.342 -0.5575 -0.1203 -0.0897
   90SAPS  H10X 8784   1.425   0.473   9.289  1.5579 -0.1554  1.5988
   90SAPS  H10Y 8785   1.276   0.369   9.302 -0.5500  2.3787 -1.4604
   90SAPS  C311 8786   1.467   0.270   9.299  0.1864 -0.5139  0.2373
   90SAPS  H11X 8787   1.436   0.176   9.351 -0.1504 -1.0539 -0.9127
   90SAPS  H11Y 8788   1.571   0.292   9.330 -0.3991  1.4292  0.9618
   90SAPS  C312 8789   1.462   0.238   9.152 -0.2857  0.2672 -0.2987
   90SAPS  H12X 8790   1.498   0.325   9.094 -1.2170  1.1309  0.4000
   90SAPS  H12Y 8791   1.355   0.225   9.124  0.3794  0.4230 -3.2388
   90SAPS  C313 8792   1.532   0.099   9.127  0.1589  0.6091 -0.2506
   90SAPS  H13X 8793   1.485   0.033   9.202 -1.4868  1.4181 -0.5345
   90SAPS  H13Y 8794   1.637   0.118   9.159 -0.3056  0.9378  1.1719
   90SAPS  C314 8795   1.517   0.034   8.992 -0.0288  0.2139 -0.3762
   90SAPS  H14X 8796   1.408   0.047   8.979 -0.4589 -1.1966  1.4018
   90SAPS  H14Y 8797   1.541  -0.072   9.017 -0.7033  0.4561  1.3930
   90SAPS  C315 8798   1.590   0.097   8.871 -0.2218 -0.1392  0.2129
   90SAPS  H15X 8799   1.593   0.208   8.869  1.8643 -0.1298  1.5897
   90SAPS  H15Y 8800   1.528   0.054   8.788  0.6209 -2.0920  0.5406
   90SAPS  C316 8801   1.743   0.060   8.858 -0.3143  0.2500 -0.2198
   90SAPS  H16X 8802   1.766   0.007   8.953 -3.8445 -2.1097 -0.4596
   90SAPS  H16Y 8803   1.801   0.153   8.844  0.6638 -0.1870  0.7750
   90SAPS  C317 8804   1.771  -0.048   8.746 -0.0137  0.0575  0.4997
   90SAPS  H17X 8805   1.763   0.002   8.647 -1.1413 -1.7575 -0.3857
   90SAPS  H17Y 8806   1.694  -0.128   8.755 -0.3995  0.5424  1.6341
   90SAPS  C318 8807   1.916  -0.113   8.761  0.0378  0.3402  0.3125
   90SAPS  H18X 8808   1.950  -0.156   8.665 -0.9387 -1.5709  0.7711
   90SAPS  H18Y 8809   1.923  -0.191   8.840 -0.2454 -1.0986 -1.0277
   90SAPS  H18Z 8810   1.979  -0.023   8.779  0.5355  0.6274 -2.4834
   91SAPS     N 8811   5.959   3.175   5.951 -0.1965 -0.3525  0.1605
   91SAPS   HN1 8812   5.882   3.228   5.907 -0.2255 -1.0602 -0.6925
   91SAPS   HN2 8813   6.051   3.207   5.915 -0.8594  0.6004 -0.7537
   91SAPS   HN3 8814   5.939   3.075   5.927  1.5244 -0.7266  0.1558
   91SAPS   C12 8815   5.956   3.184   6.102 -0.1077 -0.6341 -0.4292
   91SAPS  H12A 8816   6.016   3.100   6.135  0.6016 -0.4068 -1.1191
   91SAPS   C13 8817   6.019   3.319   6.166  0.0009  1.1763 -0.5669
   91SAPS  O13A 8818   6.087   3.399   6.097  0.5357  0.3412  1.0799
   91SAPS  O13B 8819   6.038   3.310   6.295 -0.1880  0.0638  0.5732
   91SAPS   C11 8820   5.803   3.168   6.145 -0.5531  0.3483 -0.3109
   91SAPS  H11A 8821   5.751   3.252   6.094 -2.7107 -1.8091 -1.9095
   91SAPS  H11B 8822   5.798   3.161   6.255  2.0154 -2.2698 -0.2513
   91SAPS     P 8823   5.730   2.916   6.160  0.5990  0.0770  0.5037
   91SAPS   O13 8824   5.651   2.824   6.080  0.2919 -0.2830  0.1730
   91SAPS   O14 8825   5.861   2.862   6.214 -0.2124 -0.2128 -0.1143
   91SAPS   O12 8826   5.745   3.048   6.086  0.4410 -0.4483  0.2023
   91SAPS   O11 8827   5.641   2.963   6.278 -0.2871  0.4936  0.2715
   91SAPS    C1 8828   5.628   2.877   6.395 -0.4484  0.1775  0.4020
   91SAPS    HA 8829   5.559   2.790   6.388  1.3225 -1.5524  2.8775
   91SAPS    HB 8830   5.726   2.839   6.428 -0.4859  0.3845  0.7522
   91SAPS    C2 8831   5.565   2.958   6.504 -0.5210 -0.6164  0.4442
   91SAPS    HS 8832   5.633   3.043   6.526 -1.4965  0.1976  0.3830
   91SAPS   O21 8833   5.550   2.874   6.624  0.0585  0.4109 -0.0684
   91SAPS   C21 8834   5.665   2.852   6.689  0.0175 -0.5790 -0.5867
   91SAPS   O22 8835   5.775   2.906   6.662  0.5591 -0.9279 -0.6985
   91SAPS   C22 8836   5.646   2.750   6.791  0.1292 -0.6683  0.4133
   91SAPS   H2R 8837   5.539   2.764   6.820  0.5614  0.6851  1.4461
   91SAPS   H2S 8838   5.664   2.649   6.748  1.0202 -0.9001  1.2891
   91SAPS    C3 8839   5.428   3.017   6.457 -0.1728  0.3995  0.0329
   91SAPS    HX 8840   5.369   2.940   6.403  1.3684 -0.4304 -0.4995
   91SAPS    HY 8841   5.442   3.102   6.387 -3.4696 -0.5811 -2.0446
   91SAPS   O31 8842   5.353   3.071   6.567 -0.1730  0.0704 -0.6630
   91SAPS   C31 8843   5.275   2.993   6.641  1.0347  0.3865 -0.3640
   91SAPS   O32 8844   5.267   2.871   6.631 -0.2076 -0.4226  0.2968
   91SAPS   C32 8845   5.191   3.072   6.737  0.5396  0.4321 -0.0981
   91SAPS   H2X 8846   5.103   3.006   6.752  1.2057 -0.5064 -0.2435
   91SAPS   H2Y 8847   5.161   3.169   6.693 -0.0792  1.0228  1.5201
   91SAPS   C23 8848   5.726   2.765   6.923 -0.0044  0.2725  0.6920
   91SAPS   H3R 8849   5.691   2.858   6.972 -0.4981  0.5068 -0.0846
   91SAPS   H3S 8850   5.828   2.792   6.891 -0.1737 -0.8810 -0.9905
   91SAPS   C24 8851   5.719   2.638   7.010  0.0628 -0.3700 -0.0763
   91SAPS   H4R 8852   5.801   2.645   7.084 -0.5962 -1.1373  0.7428
   91SAPS   H4S 8853   5.743   2.543   6.959 -0.8082 -1.9296  2.2890
   91SAPS   C25 8854   5.587   2.614   7.068 -0.0112  0.1076 -0.3269
   91SAPS   H5R 8855   5.500   2.659   7.017  0.4468  1.0843 -0.2564
   91SAPS   C26 8856   5.572   2.556   7.188  0.5457 -0.5680  0.4807
   91SAPS   H6R 8857   5.470   2.531   7.219  0.4215 -0.6153  0.0392
   91SAPS   C27 8858   5.675   2.498   7.281 -0.2488 -0.3209 -0.4724
   91SAPS   H7R 8859   5.677   2.547   7.381  0.6531 -1.6056  0.1642
   91SAPS   H7S 8860   5.771   2.522   7.232 -0.1693  0.8029  0.1949
   91SAPS   C28 8861   5.653   2.350   7.300 -0.3535  0.2405 -0.2308
   91SAPS   H8R 8862   5.650   2.299   7.202  0.4213 -0.7006  0.2279
   91SAPS   C29 8863   5.649   2.282   7.411  0.0018  0.3847  0.2922
   91SAPS   H9R 8864   5.628   2.175   7.391 -1.5275  0.3611  1.7512
   91SAPS  C210 8865   5.667   2.319   7.553 -0.1767 -0.2284  0.1939
   91SAPS  H10R 8866   5.574   2.284   7.604 -0.3414 -0.7408 -0.4468
   91SAPS  H10S 8867   5.655   2.428   7.573 -1.1210 -0.5803  1.6862
   91SAPS  C211 8868   5.788   2.263   7.618 -0.7103 -0.5626  0.2456
   91SAPS  H11R 8869   5.879   2.323   7.607 -0.4657 -0.8605  0.5904
   91SAPS  C212 8870   5.790   2.161   7.704  0.1618  0.5615 -0.8679
   91SAPS  H12R 8871   5.884   2.131   7.752  0.0873  0.6015 -0.6978
   91SAPS  C213 8872   5.675   2.070   7.739 -0.7262  0.3337 -0.4214
   91SAPS  H13R 8873   5.723   1.971   7.755 -0.5210  0.5457  0.3215
   91SAPS  H13S 8874   5.609   2.047   7.652 -0.2254  0.4799 -0.8467
   91SAPS  C214 8875   5.591   2.116   7.854  0.2259  0.2483  0.3199
   91SAPS  H14R 8876   5.519   2.194   7.823 -0.5580 -0.1610  1.0823
   91SAPS  C215 8877   5.596   2.093   7.985 -0.0529  0.2728 -0.3917
   91SAPS  H15R 8878   5.517   2.140   8.045  0.0585  2.9180 -2.1245
   91SAPS  C216 8879   5.695   2.003   8.061 -0.1828  1.0977  0.6623
   91SAPS  H16R 8880   5.796   2.050   8.060  1.2348 -1.6977  1.5722
   91SAPS  H16S 8881   5.695   1.900   8.020  0.6398  1.6262 -0.7493
   91SAPS  C217 8882   5.657   1.996   8.214  0.5609  0.3079  0.7034
   91SAPS  H17R 8883   5.551   1.962   8.221 -0.3364  2.6157 -0.6763
   91SAPS  H17S 8884   5.665   2.092   8.268  4.0140 -0.3180  1.5100
   91SAPS  C218 8885   5.756   1.905   8.285 -0.1876 -0.8616  0.5138
   91SAPS  H18R 8886   5.859   1.931   8.254 -0.8651  0.1088 -1.0499
   91SAPS  H18S 8887   5.723   1.804   8.251  0.0223 -0.4807 -0.9036
   91SAPS  C219 8888   5.741   1.895   8.437  0.1275 -0.0873  0.2279
   91SAPS  H19R 8889   5.815   1.821   8.472 -1.0890 -2.0212 -1.1264
   91SAPS  H19S 8890   5.643   1.846   8.456 -1.1689  2.0040 -0.6829
   91SAPS  C220 8891   5.753   2.013   8.535 -0.2334 -0.3545  0.1600
   91SAPS  H20R 8892   5.838   2.077   8.502  0.7201 -1.3085  0.6748
   91SAPS  H20S 8893   5.762   1.977   8.639 -0.4110  0.9900  0.6499
   91SAPS  H20T 8894   5.664   2.075   8.512 -0.4597 -0.8562 -0.3637
   91SAPS   C33 8895   5.256   3.113   6.873 -0.6202  0.3153  0.4536
   91SAPS   H3X 8896   5.193   3.190   6.921  1.8241  2.5422  0.3022
   91SAPS   H3Y 8897   5.354   3.164   6.858 -1.6058  2.4656  1.0286
   91SAPS   C34 8898   5.273   2.997   6.964 -0.1605 -1.0576 -0.6002
   91SAPS   H4X 8899   5.325   3.037   7.054  0.1715 -0.9590 -0.8319
   91SAPS   H4Y 8900   5.347   2.922   6.928  1.4053  1.1036 -2.1053
   91SAPS   C35 8901   5.144   2.911   7.002 -0.5611 -0.4012 -0.7936
   91SAPS   H5X 8902   5.096   2.852   6.921 -3.8756  0.6669  0.2607
   91SAPS   H5Y 8903   5.063   2.982   7.026 -0.0988 -0.6479  1.8061
   91SAPS   C36 8904   5.158   2.823   7.123 -0.9826 -0.0492  0.3570
   91SAPS   H6X 8905   5.191   2.880   7.212  0.5998 -0.5328  0.1006
   91SAPS   H6Y 8906   5.233   2.746   7.094 -0.6818  0.7346 -1.0289
   91SAPS   C37 8907   5.026   2.757   7.160  0.0267 -0.9482 -0.1063
   91SAPS   H7X 8908   4.985   2.705   7.071  1.9748 -2.6391 -0.1037
   91SAPS   H7Y 8909   4.947   2.828   7.192  0.1439 -0.8893  0.0607
   91SAPS   C38 8910   5.063   2.658   7.274  0.6058  0.2744  0.6261
   91SAPS   H8X 8911   5.161   2.609   7.254 -1.0752 -2.2074 -2.3237
   91SAPS   H8Y 8912   4.985   2.580   7.278 -1.0917  1.7466 -1.5098
   91SAPS   C39 8913   5.062   2.717   7.420 -0.2205 -0.0351 -0.2339
   91SAPS   H9X 8914   5.100   2.821   7.420 -0.8145  0.1881 -0.4448
   91SAPS   H9Y 8915   5.136   2.657   7.476 -1.2527  1.0693  2.4545
   91SAPS  C310 8916   4.929   2.723   7.495  0.5918  0.7089  0.3149
   91SAPS  H10X 8917   4.864   2.637   7.468  0.0106  1.8685 -2.2334
   91SAPS  H10Y 8918   4.867   2.807   7.459 -0.2055  0.0063  0.0073
   91SAPS  C311 8919   4.955   2.728   7.640 -0.1954  0.1078 -0.6504
   91SAPS  H11X 8920   5.041   2.795   7.660 -0.7203  0.7145 -0.3916
   91SAPS  H11Y 8921   4.989   2.633   7.687  0.6641 -0.7422 -2.8812
   91SAPS  C312 8922   4.846   2.789   7.722 -0.1894 -0.4861 -0.2265
   91SAPS  H12X 8923   4.807   2.879   7.668 -0.3079  0.0625  0.7537
   91SAPS  H12Y 8924   4.876   2.827   7.822  0.9757 -0.7594 -0.4533
   91SAPS  C313 8925   4.735   2.691   7.736  0.1583  0.0210 -0.0685
   91SAPS  H13X 8926   4.767   2.607   7.801 -0.8141 -1.4495 -1.4560
   91SAPS  H13Y 8927   4.708   2.651   7.637 -1.3711 -0.2653  0.4446
   91SAPS  C314 8928   4.605   2.731   7.801  0.3000  0.6211 -0.0132
   91SAPS  H14X 8929   4.535   2.655   7.762 -1.1283  1.3264  1.0866
   91SAPS  H14Y 8930   4.572   2.825   7.753  0.5468  0.8434  0.2464
   91SAPS  C315 8931   4.607   2.750   7.957 -0.2181  0.1117 -0.4711
   91SAPS  H15X 8932   4.693   2.812   7.990 -0.3598  0.2259 -0.3161
   91SAPS  H15Y 8933   4.618   2.654   8.010 -2.0798 -0.7191 -1.4930
   91SAPS  C316 8934   4.474   2.812   8.000  0.6427 -0.5042  0.4859
   91SAPS  H16X 8935   4.391   2.749   7.962  0.7264 -0.3486  0.0385
   91SAPS  H16Y 8936   4.464   2.910   7.948 -2.3078 -1.3484 -0.7405
   91SAPS  C317 8937   4.464   2.831   8.150  0.7528 -0.6716 -0.1296
   91SAPS  H17X 8938   4.559   2.867   8.195  0.2338  0.3308  0.1922
   91SAPS  H17Y 8939   4.455   2.733   8.201 -1.3292  0.0724  1.0584
   91SAPS  C318 8940   4.343   2.911   8.181 -0.0256 -0.0736 -0.0839
   91SAPS  H18X 8941   4.256   2.860   8.136  0.1006 -0.7775  0.4480
   91SAPS  H18Y 8942   4.350   3.014   8.140  2.7164  0.5507  1.6301
   91SAPS  H18Z 8943   4.314   2.927   8.287  0.6521  0.0427  0.0912
   92SAPS     N 8944   3.589   0.316   6.096 -1.4650  0.0633  0.6632
   92SAPS   HN1 8945   3.507   0.252   6.093 -0.8988 -0.6305 -0.4662
   92SAPS   HN2 8946   3.656   0.297   6.174  0.1510  0.6566 -0.5304
   92SAPS   HN3 8947   3.565   0.416   6.110 -0.7114  0.2308  0.7662
   92SAPS   C12 8948   3.660   0.302   5.964 -0.1066 -0.6168 -0.4961
   92SAPS  H12A 8949   3.686   0.198   5.957  1.2539 -0.2739 -0.8465
   92SAPS   C13 8950   3.563   0.334   5.848 -0.0641  0.0976  0.2010
   92SAPS  O13A 8951   3.440   0.365   5.863 -0.5454  0.3628 -0.5938
   92SAPS  O13B 8952   3.592   0.285   5.738  0.3126  0.2822  0.3808
   92SAPS   C11 8953   3.789   0.396   5.962 -0.1109  0.8342 -0.0534
   92SAPS  H11A 8954   3.770   0.505   5.952  0.4415  0.8892 -0.5594
   92SAPS  H11B 8955   3.843   0.364   5.871 -0.3164 -0.9387  0.4026
   92SAPS     P 8956   3.999   0.462   6.096 -0.0403 -0.5691  0.0007
   92SAPS   O13 8957   4.100   0.391   6.174 -0.1357  0.2645  0.3542
   92SAPS   O14 8958   4.041   0.521   5.966  0.1464  0.0117 -0.2397
   92SAPS   O12 8959   3.869   0.372   6.079  0.6129  0.4843  0.4401
   92SAPS   O11 8960   3.949   0.589   6.175 -0.1889 -0.0537 -0.1509
   92SAPS    C1 8961   3.886   0.597   6.298  0.3057  0.1631  0.1441
   92SAPS    HA 8962   3.845   0.700   6.309  2.4635  1.5166 -2.9774
   92SAPS    HB 8963   3.805   0.522   6.308 -0.1882  0.7438  0.5619
   92SAPS    C2 8964   3.984   0.574   6.418  0.6912  0.7269  0.3838
   92SAPS    HS 8965   4.030   0.473   6.414  0.1910  0.5315 -2.0622
   92SAPS   O21 8966   3.903   0.593   6.537  0.2779 -0.1733 -0.0426
   92SAPS   C21 8967   3.958   0.544   6.652  0.4202  0.3952  0.4786
   92SAPS   O22 8968   4.056   0.468   6.667 -0.0813  0.2577 -0.5577
   92SAPS   C22 8969   3.866   0.581   6.770 -1.3379  0.6515 -0.6107
   92SAPS   H2R 8970   3.905   0.677   6.811 -0.0741 -0.5851  1.2201
   92SAPS   H2S 8971   3.760   0.590   6.736 -1.2921 -1.1560 -1.3231
   92SAPS    C3 8972   4.108   0.677   6.410 -0.3605  0.1172 -0.6051
   92SAPS    HX 8973   4.166   0.656   6.317  1.2902 -0.7602  0.5672
   92SAPS    HY 8974   4.178   0.656   6.494 -0.8454 -1.1204 -0.4923
   92SAPS   O31 8975   4.072   0.813   6.407  0.2484 -0.4717  0.3624
   92SAPS   C31 8976   4.065   0.887   6.516 -0.1350 -0.9474 -0.8277
   92SAPS   O32 8977   4.075   0.839   6.625 -0.2152  0.3138 -0.6861
   92SAPS   C32 8978   4.019   1.025   6.482  0.4387  0.0235 -0.0850
   92SAPS   H2X 8979   3.910   1.029   6.459  0.3156  0.5872  0.5647
   92SAPS   H2Y 8980   4.079   1.048   6.392 -0.6931 -0.0138 -0.8653
   92SAPS   C23 8981   3.880   0.482   6.889  0.1660  0.2710 -0.4783
   92SAPS   H3R 8982   3.986   0.463   6.915 -0.6056 -0.1327  2.7116
   92SAPS   H3S 8983   3.830   0.392   6.847 -1.6860  2.1778 -2.7153
   92SAPS   C24 8984   3.814   0.537   7.014 -0.3227 -0.1324 -0.7211
   92SAPS   H4R 8985   3.813   0.449   7.082  1.0415  1.8701  2.0687
   92SAPS   H4S 8986   3.712   0.567   6.982  0.2516  1.9262 -0.7563
   92SAPS   C25 8987   3.893   0.645   7.093 -0.0979  0.4325  1.2362
   92SAPS   H5R 8988   3.955   0.712   7.031 -0.3265  1.3155  1.9393
   92SAPS   C26 8989   3.905   0.659   7.227 -0.3279 -1.0026 -0.0073
   92SAPS   H6R 8990   3.979   0.737   7.253 -0.1000 -1.1899 -0.0836
   92SAPS   C27 8991   3.823   0.598   7.329  0.4799  1.0994 -0.7416
   92SAPS   H7R 8992   3.716   0.620   7.313  1.1222  3.8583 -2.0205
   92SAPS   H7S 8993   3.847   0.648   7.425  1.6510  0.0563 -0.4615
   92SAPS   C28 8994   3.842   0.451   7.357  0.3069 -0.0886  0.0121
   92SAPS   H8R 8995   3.913   0.397   7.293  1.8363  2.2245 -0.3629
   92SAPS   C29 8996   3.771   0.371   7.440 -0.1705 -0.5247 -0.0683
   92SAPS   H9R 8997   3.798   0.266   7.458  0.1333 -0.8312 -2.0532
   92SAPS  C210 8998   3.662   0.421   7.528  0.0484 -0.5084 -0.5251
   92SAPS  H10R 8999   3.649   0.531   7.515  0.3808 -0.0208  2.6680
   92SAPS  H10S 9000   3.688   0.415   7.635  0.6970 -0.8207 -0.6919
   92SAPS  C211 9001   3.531   0.352   7.506  0.2245 -0.1915  0.1142
   92SAPS  H11R 9002   3.487   0.377   7.409 -0.7301  0.0257  0.5943
   92SAPS  C212 9003   3.446   0.311   7.598 -0.1116  0.8047 -0.6073
   92SAPS  H12R 9004   3.352   0.277   7.554 -0.4504  2.0483 -0.8742
   92SAPS  C213 9005   3.461   0.299   7.744 -0.1119 -0.2416 -0.1283
   92SAPS  H13R 9006   3.424   0.393   7.790  0.9311 -0.5605  1.4495
   92SAPS  H13S 9007   3.566   0.292   7.778 -0.2889  0.6977  0.6517
   92SAPS  C214 9008   3.393   0.177   7.801 -0.0744 -0.8895 -0.6769
   92SAPS  H14R 9009   3.436   0.082   7.767  0.7297 -1.1063  0.8299
   92SAPS  C215 9010   3.300   0.178   7.895  0.5261 -1.0601 -0.1357
   92SAPS  H15R 9011   3.254   0.088   7.939 -1.0562  0.7269  2.0844
   92SAPS  C216 9012   3.238   0.297   7.967 -0.5474  1.3025  0.5851
   92SAPS  H16R 9013   3.133   0.316   7.937 -0.4187  1.8995  0.4980
   92SAPS  H16S 9014   3.290   0.393   7.950 -1.5056  1.5033 -1.5232
   92SAPS  C217 9015   3.251   0.277   8.122  0.5955 -0.1233  0.9791
   92SAPS  H17R 9016   3.193   0.193   8.167  3.2444 -1.3612  2.2981
   92SAPS  H17S 9017   3.194   0.360   8.170  0.9101  0.2800  0.6579
   92SAPS  C218 9018   3.387   0.282   8.192 -0.4001 -0.7791 -0.0263
   92SAPS  H18R 9019   3.454   0.357   8.147  2.1578 -2.5836  0.5212
   92SAPS  H18S 9020   3.440   0.188   8.165 -3.1626 -2.4213 -0.1582
   92SAPS  C219 9021   3.372   0.301   8.343 -0.4147 -0.6610  0.6084
   92SAPS  H19R 9022   3.330   0.402   8.362  1.2010  0.6021 -1.9188
   92SAPS  H19S 9023   3.476   0.307   8.380 -0.9030  2.0893  1.8127
   92SAPS  C220 9024   3.310   0.186   8.419 -0.6968 -0.6138 -0.2220
   92SAPS  H20R 9025   3.324   0.096   8.355  0.3171  1.2976 -2.9139
   92SAPS  H20S 9026   3.202   0.207   8.433 -0.9111 -0.0221 -2.4015
   92SAPS  H20T 9027   3.361   0.176   8.517  1.0869  0.4102 -0.9809
   92SAPS   C33 9028   4.049   1.137   6.587  0.2397 -0.0566  0.0846
   92SAPS   H3X 9029   4.020   1.224   6.524 -1.9037 -1.6998 -1.3649
   92SAPS   H3Y 9030   4.158   1.146   6.608  0.0834 -2.1060  2.2934
   92SAPS   C34 9031   3.959   1.153   6.710  0.0982 -0.4087 -0.7249
   92SAPS   H4X 9032   3.959   1.055   6.763  2.3832  0.0754  0.2867
   92SAPS   H4Y 9033   3.859   1.188   6.675  1.1070  2.5306 -0.9489
   92SAPS   C35 9034   4.000   1.266   6.801  0.0968 -0.1665 -1.6574
   92SAPS   H5X 9035   4.020   1.356   6.739  2.0633  1.5091  1.1395
   92SAPS   H5Y 9036   4.102   1.245   6.840 -0.7303 -2.3823 -0.5366
   92SAPS   C36 9037   3.902   1.301   6.912 -0.4480 -0.5310 -0.7082
   92SAPS   H6X 9038   3.863   1.214   6.968  1.1622  0.0266  1.3945
   92SAPS   H6Y 9039   3.818   1.352   6.860  0.3262 -0.7477 -2.2447
   92SAPS   C37 9040   3.968   1.398   7.009 -0.2663 -0.0572  1.0359
   92SAPS   H7X 9041   3.895   1.434   7.085 -0.6632 -2.0317  1.6364
   92SAPS   H7Y 9042   4.012   1.480   6.948 -2.8565  0.6895  0.0200
   92SAPS   C38 9043   4.080   1.341   7.097  0.3921 -0.0558  0.8426
   92SAPS   H8X 9044   4.174   1.316   7.044 -0.3666 -2.2545  0.4642
   92SAPS   H8Y 9045   4.041   1.243   7.131 -0.9272  0.8110  2.0085
   92SAPS   C39 9046   4.116   1.427   7.215  0.9640  0.0561 -0.8923
   92SAPS   H9X 9047   4.119   1.536   7.197 -1.8564  0.1479 -1.3580
   92SAPS   H9Y 9048   4.223   1.414   7.240  1.2747  1.0305 -1.7018
   92SAPS  C310 9049   4.018   1.409   7.336  0.3001 -0.4133  0.4956
   92SAPS  H10X 9050   4.014   1.299   7.353  0.7302 -0.3253  1.2432
   92SAPS  H10Y 9051   3.920   1.436   7.292 -0.1452 -3.1972 -0.4123
   92SAPS  C311 9052   4.060   1.493   7.463 -0.0783  0.4285 -0.1319
   92SAPS  H11X 9053   4.059   1.601   7.436 -0.8463  0.6520  0.7284
   92SAPS  H11Y 9054   4.165   1.469   7.487  0.2247 -0.1197 -1.8832
   92SAPS  C312 9055   3.964   1.480   7.578  0.3265 -0.7803  0.8067
   92SAPS  H12X 9056   3.953   1.375   7.613 -2.7635 -0.9347 -0.3182
   92SAPS  H12Y 9057   3.864   1.514   7.543 -0.0105 -3.2565 -0.8731
   92SAPS  C313 9058   4.005   1.551   7.709  0.4474 -0.7991  0.2911
   92SAPS  H13X 9059   4.037   1.655   7.687  1.3691 -1.3089 -0.8438
   92SAPS  H13Y 9060   4.095   1.496   7.742  2.5870  1.0660 -1.9810
   92SAPS  C314 9061   3.886   1.534   7.814  0.2482  0.3176 -0.3419
   92SAPS  H14X 9062   3.874   1.423   7.816 -1.1117  0.4569  0.6729
   92SAPS  H14Y 9063   3.795   1.581   7.770  0.4763  2.2055  1.0904
   92SAPS  C315 9064   3.909   1.603   7.947  0.2005 -0.0903  0.2771
   92SAPS  H15X 9065   3.951   1.705   7.932 -1.6588  1.2551  3.2108
   92SAPS  H15Y 9066   3.988   1.542   7.996  0.1008 -0.9672 -0.6175
   92SAPS  C316 9067   3.785   1.623   8.030  1.0017 -0.4563 -0.2154
   92SAPS  H16X 9068   3.733   1.527   8.048  0.1374  0.0728  0.1827
   92SAPS  H16Y 9069   3.717   1.683   7.966 -1.9629 -1.3427  1.9178
   92SAPS  C317 9070   3.806   1.692   8.164 -0.4444  0.2127 -0.2759
   92SAPS  H17X 9071   3.845   1.796   8.161 -0.3025  0.1941  0.5723
   92SAPS  H17Y 9072   3.872   1.630   8.228 -3.8448 -1.5444  1.8386
   92SAPS  C318 9073   3.678   1.706   8.247  0.6140  0.6373  0.3150
   92SAPS  H18X 9074   3.705   1.741   8.349 -1.0172 -0.4055  1.1413
   92SAPS  H18Y 9075   3.617   1.613   8.251  0.5061  0.5989 -1.4465
   92SAPS  H18Z 9076   3.619   1.786   8.197  0.4008 -0.6320 -1.5608
   93SAPS     N 9077   3.405   4.115   6.274  0.0455 -0.0622 -0.5402
   93SAPS   HN1 9078   3.496   4.138   6.320  0.2776  1.0096 -1.4902
   93SAPS   HN2 9079   3.348   4.195   6.241  0.6041  0.3807 -0.4481
   93SAPS   HN3 9080   3.354   4.065   6.349 -0.1555  1.3833  0.3307
   93SAPS   C12 9081   3.416   4.018   6.158  0.7101 -0.2072 -0.4736
   93SAPS  H12A 9082   3.489   3.940   6.178  3.7517  2.0705 -1.8406
   93SAPS   C13 9083   3.281   3.960   6.118  0.2025 -0.3610 -0.5750
   93SAPS  O13A 9084   3.177   4.033   6.133  0.2903  0.4454  0.2791
   93SAPS  O13B 9085   3.267   3.850   6.058  0.1853  0.0665  0.1546
   93SAPS   C11 9086   3.489   4.090   6.037 -0.0282  0.7592 -0.0355
   93SAPS  H11A 9087   3.424   4.174   6.003 -0.4022  0.2627 -0.5607
   93SAPS  H11B 9088   3.497   4.018   5.953  2.3506 -0.2281  0.9468
   93SAPS     P 9089   3.751   4.110   5.998  0.2986  0.1656  0.0339
   93SAPS   O13 9090   3.754   3.973   5.960  0.4692  0.5410  0.1076
   93SAPS   O14 9091   3.762   4.207   5.891 -0.4338 -1.5222  0.3505
   93SAPS   O12 9092   3.620   4.137   6.076 -0.2200 -0.5931 -1.0622
   93SAPS   O11 9093   3.864   4.142   6.104 -0.3733  0.1876 -0.0278
   93SAPS    C1 9094   3.923   4.030   6.171 -0.0070  0.3174 -0.1997
   93SAPS    HA 9095   3.944   3.939   6.112  0.6679  0.8453 -0.8008
   93SAPS    HB 9096   4.028   4.058   6.195  1.5179 -1.0475 -4.4316
   93SAPS    C2 9097   3.843   3.992   6.297  0.0511  0.0278  0.6705
   93SAPS    HS 9098   3.738   3.985   6.262  0.5781 -0.3213 -0.9118
   93SAPS   O21 9099   3.850   4.097   6.392  0.2755 -0.0922 -0.0193
   93SAPS   C21 9100   3.740   4.118   6.458  0.6960  0.3225 -0.2474
   93SAPS   O22 9101   3.631   4.059   6.436 -0.5614  0.4204  0.2669
   93SAPS   C22 9102   3.762   4.210   6.580  0.3869 -0.0217  0.4544
   93SAPS   H2R 9103   3.868   4.243   6.580 -0.5455  3.3825 -0.4852
   93SAPS   H2S 9104   3.702   4.301   6.557  2.8163  1.7857  0.9115
   93SAPS    C3 9105   3.881   3.858   6.364 -0.0690 -0.1882 -0.1371
   93SAPS    HX 9106   3.978   3.870   6.417 -0.1385 -0.8088  0.1470
   93SAPS    HY 9107   3.904   3.780   6.288  2.2806 -1.8374  2.0826
   93SAPS   O31 9108   3.792   3.805   6.466  0.2819 -0.4448 -0.2958
   93SAPS   C31 9109   3.677   3.740   6.415  0.0720  0.1335 -0.2198
   93SAPS   O32 9110   3.660   3.722   6.294 -0.1524 -0.2691 -0.1487
   93SAPS   C32 9111   3.582   3.698   6.522  0.9579 -0.4798  0.6771
   93SAPS   H2X 9112   3.623   3.619   6.590  1.5875 -0.9472 -0.2325
   93SAPS   H2Y 9113   3.494   3.666   6.463  2.6325  0.3494 -2.4721
   93SAPS   C23 9114   3.712   4.158   6.714  0.0927  0.1100  0.5069
   93SAPS   H3R 9115   3.613   4.110   6.697  0.5580 -0.4579 -0.6566
   93SAPS   H3S 9116   3.691   4.246   6.779  1.7867 -0.7876  2.3696
   93SAPS   C24 9117   3.818   4.074   6.788 -0.3528  0.1744  0.0650
   93SAPS   H4R 9118   3.905   4.141   6.804  0.0631 -0.2798 -0.2630
   93SAPS   H4S 9119   3.857   3.994   6.721 -0.3934  0.2125 -0.0051
   93SAPS   C25 9120   3.750   4.013   6.907  0.4058 -0.0581 -0.4322
   93SAPS   H5R 9121   3.726   3.906   6.903  1.8383 -0.5923  2.5029
   93SAPS   C26 9122   3.731   4.067   7.028  0.4841 -0.2178  0.5836
   93SAPS   H6R 9123   3.686   4.008   7.110 -3.3830  2.0531  0.3704
   93SAPS   C27 9124   3.777   4.206   7.057  0.3581  0.1012  0.1609
   93SAPS   H7R 9125   3.695   4.241   7.123 -0.4212 -1.3336  0.0119
   93SAPS   H7S 9126   3.767   4.269   6.966 -2.7685  0.5347  0.6763
   93SAPS   C28 9127   3.909   4.237   7.122  0.1922 -0.1658  0.4435
   93SAPS   H8R 9128   3.990   4.165   7.103 -0.0917 -0.5799  0.7888
   93SAPS   C29 9129   3.919   4.322   7.220 -0.2840 -0.0628 -0.3680
   93SAPS   H9R 9130   4.019   4.324   7.267  1.9145 -0.3753 -4.5436
   93SAPS  C210 9131   3.822   4.422   7.280  0.6975 -0.2585  0.4108
   93SAPS  H10R 9132   3.716   4.392   7.264 -0.2775  2.9112  0.1337
   93SAPS  H10S 9133   3.826   4.516   7.221 -3.6470  0.5699  1.0868
   93SAPS  C211 9134   3.850   4.461   7.423  0.4758 -0.5616  0.5011
   93SAPS  H11R 9135   3.920   4.545   7.434  2.1703 -1.2753 -3.3739
   93SAPS  C212 9136   3.797   4.412   7.534 -0.2209  0.1475  0.0311
   93SAPS  H12R 9137   3.835   4.459   7.626 -0.9925  0.1222  0.3678
   93SAPS  C213 9138   3.704   4.299   7.571 -0.0590 -0.1204 -0.6702
   93SAPS  H13R 9139   3.757   4.202   7.562  0.7472  0.3471 -1.1515
   93SAPS  H13S 9140   3.620   4.302   7.499 -1.1924 -0.2799  0.6078
   93SAPS  C214 9141   3.630   4.318   7.702  0.3053  0.8012 -0.5140
   93SAPS  H14R 9142   3.545   4.388   7.706 -0.6574 -0.2838 -1.4112
   93SAPS  C215 9143   3.663   4.256   7.815 -0.5102 -0.2682 -0.0306
   93SAPS  H15R 9144   3.605   4.263   7.908  2.4425 -2.0865  2.1639
   93SAPS  C216 9145   3.774   4.160   7.828 -0.2036  0.1379  0.4781
   93SAPS  H16R 9146   3.855   4.169   7.752 -0.5975 -1.5762 -0.2048
   93SAPS  H16S 9147   3.736   4.057   7.809  1.2576 -0.6720  1.7367
   93SAPS  C217 9148   3.851   4.172   7.964  0.6736 -0.4280 -0.7710
   93SAPS  H17R 9149   3.893   4.275   7.973 -0.7729  0.0841  0.6636
   93SAPS  H17S 9150   3.935   4.101   7.978 -0.0021 -1.0680  0.1197
   93SAPS  C218 9151   3.762   4.162   8.095  0.1519  0.2170  1.0235
   93SAPS  H18R 9152   3.711   4.064   8.099  0.7860 -0.3035 -1.7216
   93SAPS  H18S 9153   3.683   4.241   8.090  0.4612  0.5314  1.0555
   93SAPS  C219 9154   3.844   4.192   8.221  0.1926  0.7791  0.0833
   93SAPS  H19R 9155   3.777   4.226   8.303  1.2041  0.8201  0.9114
   93SAPS  H19S 9156   3.907   4.283   8.207 -0.5261  0.9978 -2.1104
   93SAPS  C220 9157   3.917   4.068   8.274 -0.5030 -0.2104  0.7132
   93SAPS  H20R 9158   3.979   4.014   8.199 -0.7611 -0.9251  1.0017
   93SAPS  H20S 9159   3.841   3.998   8.316  0.2942 -0.6077  1.5387
   93SAPS  H20T 9160   3.978   4.090   8.364 -1.3001  0.0085  1.2092
   93SAPS   C33 9161   3.531   3.809   6.613  0.5013  0.5330  0.3976
   93SAPS   H3X 9162   3.500   3.893   6.546  1.4448 -0.8498 -1.8804
   93SAPS   H3Y 9163   3.613   3.852   6.674 -1.1130  1.0129  2.3594
   93SAPS   C34 9164   3.415   3.751   6.705  0.8140 -0.7334  0.4344
   93SAPS   H4X 9165   3.330   3.732   6.636  2.6000 -1.3023 -1.7290
   93SAPS   H4Y 9166   3.394   3.827   6.783 -0.6344 -1.3500  0.6830
   93SAPS   C35 9167   3.438   3.616   6.776  0.1055  0.3849  0.2414
   93SAPS   H5X 9168   3.459   3.524   6.717  0.6451 -0.9170  2.3525
   93SAPS   H5Y 9169   3.342   3.598   6.828  0.2386  2.7530  1.4250
   93SAPS   C36 9170   3.556   3.649   6.872  0.1406 -0.1703 -0.2729
   93SAPS   H6X 9171   3.634   3.705   6.817  0.4745 -0.2899  0.0719
   93SAPS   H6Y 9172   3.608   3.554   6.896 -2.0819 -1.3197  0.2477
   93SAPS   C37 9173   3.525   3.724   6.998 -0.2147  0.1422 -0.3153
   93SAPS   H7X 9174   3.494   3.828   6.973  1.5457  0.2946 -2.1411
   93SAPS   H7Y 9175   3.624   3.741   7.047  0.1519 -1.5574 -0.4262
   93SAPS   C38 9176   3.450   3.654   7.114  0.5161  0.2003 -0.3658
   93SAPS   H8X 9177   3.361   3.600   7.074  1.0225 -2.3271  1.6678
   93SAPS   H8Y 9178   3.402   3.728   7.182 -1.1775 -0.4939 -0.7387
   93SAPS   C39 9179   3.529   3.555   7.203 -0.5541  0.1268  0.0356
   93SAPS   H9X 9180   3.618   3.620   7.222  0.1388 -0.1604 -1.9820
   93SAPS   H9Y 9181   3.565   3.464   7.150  0.9727 -0.1213  1.4338
   93SAPS  C310 9182   3.464   3.517   7.332  0.2401 -0.2369 -0.1580
   93SAPS  H10X 9183   3.354   3.518   7.317  0.2369 -1.6283 -0.3395
   93SAPS  H10Y 9184   3.497   3.595   7.405 -0.3708  0.5168 -0.6727
   93SAPS  C311 9185   3.490   3.376   7.400 -0.1445 -0.7961  0.0337
   93SAPS  H11X 9186   3.592   3.365   7.444  1.0588 -0.7064 -2.5457
   93SAPS  H11Y 9187   3.485   3.303   7.317  3.3358 -0.2995 -0.7578
   93SAPS  C312 9188   3.390   3.334   7.509 -0.1689 -0.5532  0.3801
   93SAPS  H12X 9189   3.311   3.274   7.459 -0.3823  0.4453 -0.5151
   93SAPS  H12Y 9190   3.347   3.425   7.555 -0.5270 -1.2745  1.5034
   93SAPS  C313 9191   3.450   3.244   7.617  0.1022 -0.1166 -0.1451
   93SAPS  H13X 9192   3.538   3.290   7.666 -1.1610  1.3935  0.8131
   93SAPS  H13Y 9193   3.480   3.148   7.571 -0.0359 -0.3754  0.2999
   93SAPS  C314 9194   3.343   3.218   7.726  0.0691 -0.7434  0.3041
   93SAPS  H14X 9195   3.239   3.203   7.689 -1.0066  2.3670  1.6662
   93SAPS  H14Y 9196   3.336   3.303   7.797 -2.3247 -1.9300  1.5964
   93SAPS  C315 9197   3.378   3.093   7.809 -0.1481  0.0398 -0.1493
   93SAPS  H15X 9198   3.486   3.090   7.834  0.1467 -2.1659 -1.4001
   93SAPS  H15Y 9199   3.362   2.996   7.756 -2.9560 -0.6253  1.6707
   93SAPS  C316 9200   3.293   3.081   7.931 -0.1915 -0.2455 -0.0541
   93SAPS  H16X 9201   3.187   3.109   7.910  0.3364  1.6836 -0.3127
   93SAPS  H16Y 9202   3.317   3.143   8.019 -2.2269 -0.8981  1.0411
   93SAPS  C317 9203   3.294   2.939   7.991 -0.3735 -0.3297  0.2116
   93SAPS  H17X 9204   3.398   2.912   8.020 -1.0314 -0.5451  2.5709
   93SAPS  H17Y 9205   3.252   2.872   7.913 -1.5683  0.3932  0.2106
   93SAPS  C318 9206   3.202   2.920   8.114  0.6058  0.3150 -0.3029
   93SAPS  H18X 9207   3.108   2.973   8.090  1.8441  3.3892  1.0530
   93SAPS  H18Y 9208   3.245   2.951   8.212 -1.7340 -0.8721  1.1838
   93SAPS  H18Z 9209   3.180   2.812   8.120  0.3284  0.3809 -0.1038
   94SAPS     N 9210   3.342   4.692   6.075  0.8993 -0.4918 -0.1066
   94SAPS   HN1 9211   3.376   4.718   5.981 -0.9369  0.9423 -0.4342
   94SAPS   HN2 9212   3.238   4.692   6.074  0.8166  1.8109  1.1546
   94SAPS   HN3 9213   3.372   4.763   6.145  0.0518  1.4199 -1.6037
   94SAPS   C12 9214   3.393   4.554   6.115 -0.2968 -0.1711 -0.7288
   94SAPS  H12A 9215   3.411   4.557   6.221 -0.2430  0.6669 -0.7573
   94SAPS   C13 9216   3.304   4.435   6.084 -0.5248  0.5006  0.3376
   94SAPS  O13A 9217   3.218   4.446   5.991  0.0784  0.1052 -0.0250
   94SAPS  O13B 9218   3.309   4.327   6.148  0.9764 -0.6790 -0.1620
   94SAPS   C11 9219   3.527   4.512   6.045  0.1675  0.0971 -0.2538
   94SAPS  H11A 9220   3.512   4.504   5.935 -1.8553  0.9170 -0.0753
   94SAPS  H11B 9221   3.568   4.414   6.078 -0.3453  0.3564  1.2252
   94SAPS     P 9222   3.751   4.648   6.000  0.1693  0.3899  0.2436
   94SAPS   O13 9223   3.839   4.526   6.007  0.1879  0.1045 -0.0957
   94SAPS   O14 9224   3.721   4.699   5.862  0.0609 -0.1087 -0.4973
   94SAPS   O12 9225   3.622   4.615   6.071  0.3064 -0.6058 -0.0265
   94SAPS   O11 9226   3.810   4.774   6.066  1.1095  0.7665 -0.2066
   94SAPS    C1 9227   3.730   4.876   6.124  0.8720 -0.0811 -0.0376
   94SAPS    HA 9228   3.738   4.963   6.056  2.7635  1.8376  2.4556
   94SAPS    HB 9229   3.621   4.857   6.124  0.5648  1.5672  0.8313
   94SAPS    C2 9230   3.768   4.916   6.269 -0.7729 -0.3986  0.7239
   94SAPS    HS 9231   3.877   4.936   6.273 -1.3679  4.0767  0.6844
   94SAPS   O21 9232   3.728   4.826   6.371  0.2585  0.7255 -0.2263
   94SAPS   C21 9233   3.808   4.727   6.406  0.0578  0.7132  0.3037
   94SAPS   O22 9234   3.928   4.719   6.389 -0.2866 -0.4151 -0.3723
   94SAPS   C22 9235   3.719   4.612   6.461  0.7281  0.2152  0.2632
   94SAPS   H2R 9236   3.634   4.595   6.393 -0.9414 -0.1213  2.3303
   94SAPS   H2S 9237   3.774   4.516   6.452  0.1417 -0.0450 -0.6360
   94SAPS    C3 9238   3.713   5.068   6.310 -0.3538  0.0244 -0.1307
   94SAPS    HX 9239   3.603   5.084   6.310 -0.1010  2.2766  1.8878
   94SAPS    HY 9240   3.740   5.155   6.246 -1.9406  1.2074  0.7382
   94SAPS   O31 9241   3.748   5.089   6.445  0.2681  0.1413  0.5185
   94SAPS   C31 9242   3.878   5.133   6.466  0.5180  0.3007  0.0276
   94SAPS   O32 9243   3.953   5.170   6.376  0.4631 -0.6851  0.3939
   94SAPS   C32 9244   3.917   5.110   6.610  0.0511 -0.1466 -0.2770
   94SAPS   H2X 9245   3.899   5.002   6.629 -0.3500 -0.1573 -0.6925
   94SAPS   H2Y 9246   3.848   5.167   6.675 -0.0014 -0.7935  0.2471
   94SAPS   C23 9247   3.668   4.612   6.608  1.1213  0.1646  0.0670
   94SAPS   H3R 9248   3.627   4.513   6.637 -0.8643  1.1405  0.7154
   94SAPS   H3S 9249   3.588   4.688   6.616  0.0586 -0.8888 -0.1868
   94SAPS   C24 9250   3.793   4.638   6.692 -0.0855 -0.1992  0.0316
   94SAPS   H4R 9251   3.834   4.736   6.659 -0.0224  0.3691  1.6802
   94SAPS   H4S 9252   3.871   4.565   6.662  0.3604 -0.8328  2.5187
   94SAPS   C25 9253   3.765   4.621   6.844  0.3933 -0.0879 -0.1671
   94SAPS   H5R 9254   3.718   4.527   6.878 -0.4357  1.0340  1.9425
   94SAPS   C26 9255   3.792   4.717   6.938  0.0928  0.3941  0.2248
   94SAPS   H6R 9256   3.761   4.700   7.042 -0.7849 -2.2545 -0.3982
   94SAPS   C27 9257   3.859   4.850   6.916 -0.4252  0.6512 -0.0258
   94SAPS   H7R 9258   3.914   4.864   6.820 -0.0667  1.9259  0.3481
   94SAPS   H7S 9259   3.926   4.860   7.004 -0.0775  0.6051 -0.2848
   94SAPS   C28 9260   3.752   4.964   6.929  0.0960  0.2685  0.0534
   94SAPS   H8R 9261   3.711   4.995   6.831  0.4146 -1.0904 -0.5227
   94SAPS   C29 9262   3.713   5.024   7.042  0.0853  0.0908  0.1701
   94SAPS   H9R 9263   3.637   5.104   7.031 -0.4503 -0.4093  0.1805
   94SAPS  C210 9264   3.754   4.999   7.183  0.6312 -0.1429  0.5017
   94SAPS  H10R 9265   3.719   5.092   7.234 -3.7987 -1.5613  0.4760
   94SAPS  H10S 9266   3.865   4.997   7.179  0.6708  1.7464 -2.3723
   94SAPS  C211 9267   3.708   4.873   7.257 -0.1491 -0.6348 -0.1471
   94SAPS  H11R 9268   3.631   4.815   7.204 -0.8812  0.2139 -0.0292
   94SAPS  C212 9269   3.741   4.839   7.386  0.7180 -0.4389  0.0391
   94SAPS  H12R 9270   3.698   4.746   7.424 -0.1989 -0.4536 -0.9991
   94SAPS  C213 9271   3.841   4.908   7.483  0.1412  0.4074 -0.9263
   94SAPS  H13R 9272   3.885   5.006   7.458 -0.1504  0.5899 -0.7307
   94SAPS  H13S 9273   3.938   4.852   7.483 -0.8625 -1.4245 -1.0016
   94SAPS  C214 9274   3.779   4.922   7.626  0.1652 -0.4298  0.0906
   94SAPS  H14R 9275   3.691   4.985   7.642 -0.2600 -0.8205 -0.6729
   94SAPS  C215 9276   3.806   4.849   7.735 -0.3405  0.1262  0.7241
   94SAPS  H15R 9277   3.759   4.872   7.832  0.1320 -0.3882  1.0841
   94SAPS  C216 9278   3.886   4.727   7.726  0.1895 -0.3086  0.0192
   94SAPS  H16R 9279   3.963   4.723   7.646 -1.3307 -2.0339 -1.4291
   94SAPS  H16S 9280   3.815   4.645   7.702  0.7697 -0.4347 -1.3891
   94SAPS  C217 9281   3.944   4.682   7.860  0.5677  0.0011 -0.5364
   94SAPS  H17R 9282   4.008   4.762   7.901 -1.0028  0.6424  0.7764
   94SAPS  H17S 9283   4.013   4.597   7.843  0.6029 -0.3490  1.1414
   94SAPS  C218 9284   3.839   4.635   7.966  0.1224  0.2135  0.4088
   94SAPS  H18R 9285   3.766   4.571   7.912  0.9658  1.2995 -2.1739
   94SAPS  H18S 9286   3.779   4.722   8.001 -2.7552  0.0299 -3.3377
   94SAPS  C219 9287   3.897   4.576   8.091 -0.2970  0.4389  0.0690
   94SAPS  H19R 9288   3.903   4.467   8.069  0.9596  0.7181 -1.0942
   94SAPS  H19S 9289   3.818   4.589   8.168 -0.0133  1.9286  0.1400
   94SAPS  C220 9290   4.035   4.614   8.151  0.4002  0.6082  0.3621
   94SAPS  H20R 9291   4.043   4.725   8.150 -1.3300  0.7702 -0.7112
   94SAPS  H20S 9292   4.114   4.566   8.089  1.3020  0.2663  1.7439
   94SAPS  H20T 9293   4.056   4.585   8.256  1.4595  0.9352  0.2561
   94SAPS   C33 9294   4.063   5.147   6.647 -0.4842  0.4123 -0.0704
   94SAPS   H3X 9295   4.088   5.245   6.601 -0.0158 -1.1068 -3.3159
   94SAPS   H3Y 9296   4.136   5.078   6.600 -0.9646 -1.4379  1.7546
   94SAPS   C34 9297   4.088   5.160   6.795  0.2808  0.0859  0.2253
   94SAPS   H4X 9298   4.197   5.183   6.803  0.2911  0.0755  0.1183
   94SAPS   H4Y 9299   4.053   5.073   6.855 -0.2798 -0.8559 -1.3928
   94SAPS   C35 9300   4.006   5.274   6.857  0.2729 -0.4405 -0.2608
   94SAPS   H5X 9301   3.901   5.241   6.873 -0.1557  0.9717 -0.0028
   94SAPS   H5Y 9302   4.003   5.363   6.790 -2.3512  0.5010  0.9734
   94SAPS   C36 9303   4.050   5.339   6.992 -0.0957 -0.3835  0.0202
   94SAPS   H6X 9304   3.973   5.418   7.005 -0.5352 -0.5874 -1.1994
   94SAPS   H6Y 9305   4.147   5.393   6.986  0.8914 -2.0169  0.7358
   94SAPS   C37 9306   4.061   5.237   7.107 -0.4652  0.8569 -0.3730
   94SAPS   H7X 9307   4.136   5.160   7.079 -1.7652 -0.7226  0.3106
   94SAPS   H7Y 9308   3.958   5.201   7.130 -0.2330  0.9745  0.9111
   94SAPS   C38 9309   4.120   5.297   7.243  0.1775 -0.6959  0.3924
   94SAPS   H8X 9310   4.054   5.385   7.255 -1.3975 -1.6232 -1.1603
   94SAPS   H8Y 9311   4.228   5.322   7.243  0.3767 -1.4760 -1.0777
   94SAPS   C39 9312   4.083   5.208   7.360 -0.7254 -0.3281  0.1371
   94SAPS   H9X 9313   4.138   5.111   7.362  0.6576  0.4393  0.9891
   94SAPS   H9Y 9314   3.975   5.188   7.347 -0.9252  0.6994  0.1087
   94SAPS  C310 9315   4.110   5.275   7.493 -0.6461 -0.6303  0.3489
   94SAPS  H10X 9316   4.074   5.380   7.491  2.8375  0.7018  0.5509
   94SAPS  H10Y 9317   4.219   5.294   7.487 -0.8218  0.2426 -0.4507
   94SAPS  C311 9318   4.065   5.200   7.621 -1.0170  0.1467  0.9938
   94SAPS  H11X 9319   4.094   5.093   7.624 -2.3232 -0.2210  1.6087
   94SAPS  H11Y 9320   3.955   5.216   7.614 -0.8954  0.1473 -1.6636
   94SAPS  C312 9321   4.116   5.262   7.749 -0.0704 -0.3313 -0.2372
   94SAPS  H12X 9322   4.108   5.372   7.755 -0.3373 -0.3799  0.3803
   94SAPS  H12Y 9323   4.227   5.252   7.756  0.1193  1.6280 -0.0511
   94SAPS  C313 9324   4.039   5.198   7.859  0.4218 -0.2643  0.0964
   94SAPS  H13X 9325   4.009   5.096   7.827  2.7040 -1.0328  0.2189
   94SAPS  H13Y 9326   3.954   5.257   7.900 -1.3980 -2.7597  0.1903
   94SAPS  C314 9327   4.129   5.175   7.980 -0.6267 -0.4849  0.8126
   94SAPS  H14X 9328   4.168   5.274   8.012 -0.5079  0.4052 -1.7872
   94SAPS  H14Y 9329   4.214   5.112   7.944  0.8516 -1.2442  5.1093
   94SAPS  C315 9330   4.048   5.128   8.099 -0.6697 -0.5580 -1.0913
   94SAPS  H15X 9331   3.994   5.036   8.067 -0.5499 -0.8360 -0.5084
   94SAPS  H15Y 9332   3.974   5.204   8.133 -1.1601 -1.5433  0.1410
   94SAPS  C316 9333   4.132   5.083   8.220  0.8794 -0.3621 -0.6041
   94SAPS  H16X 9334   4.198   5.167   8.250 -0.6751  0.8731 -0.5092
   94SAPS  H16Y 9335   4.196   4.995   8.195 -0.2725 -1.8898  1.5305
   94SAPS  C317 9336   4.044   5.044   8.348  0.1935  0.1831 -0.1225
   94SAPS  H17X 9337   3.972   4.968   8.311  0.7532  0.2929 -1.4785
   94SAPS  H17Y 9338   3.978   5.129   8.374 -1.4223 -1.1295  0.2330
   94SAPS  C318 9339   4.131   4.973   8.452  0.4355  0.2324  0.1829
   94SAPS  H18X 9340   4.217   5.033   8.486  0.0830  1.0951 -0.4125
   94SAPS  H18Y 9341   4.163   4.874   8.412  1.7604  1.5896 -2.3952
   94SAPS  H18Z 9342   4.065   4.965   8.541  1.2684  0.0093  0.7909
   95SAPS     N 9343   1.012   0.861   6.108 -0.0352  0.4142 -0.3496
   95SAPS   HN1 9344   0.933   0.927   6.119 -0.8937 -0.5913 -0.4112
   95SAPS   HN2 9345   1.024   0.839   6.008 -1.6396 -0.9451 -0.2769
   95SAPS   HN3 9346   1.004   0.774   6.165  2.8399 -0.1293 -0.6357
   95SAPS   C12 9347   1.140   0.922   6.168  0.2919  0.6383 -0.1862
   95SAPS  H12A 9348   1.226   0.888   6.112  0.1619 -2.2452  1.2094
   95SAPS   C13 9349   1.137   1.074   6.155 -0.2409 -0.7409 -0.2929
   95SAPS  O13A 9350   1.055   1.125   6.074  0.3109 -0.3582  0.2371
   95SAPS  O13B 9351   1.222   1.150   6.213  0.1925 -0.6350 -0.9957
   95SAPS   C11 9352   1.140   0.885   6.323  0.3675  0.1532  0.5596
   95SAPS  H11A 9353   1.218   0.951   6.367  0.9140 -1.5582  2.2860
   95SAPS  H11B 9354   1.175   0.781   6.338 -0.0540  0.2410  2.3729
   95SAPS     P 9355   0.973   0.973   6.502 -0.0415 -0.0521  0.0179
   95SAPS   O13 9356   0.977   1.117   6.468  0.3837 -0.1915  0.2165
   95SAPS   O14 9357   0.839   0.927   6.555  0.2176 -0.3490 -0.2776
   95SAPS   O12 9358   1.005   0.888   6.375 -0.0893  0.4845 -0.1791
   95SAPS   O11 9359   1.097   0.932   6.601  0.0634 -0.3604  0.2134
   95SAPS    C1 9360   1.087   0.793   6.645  0.6562 -0.2056  0.5061
   95SAPS    HA 9361   0.996   0.781   6.708  0.3897  2.0578  0.6288
   95SAPS    HB 9362   1.073   0.728   6.556 -1.0131  2.6709 -1.4811
   95SAPS    C2 9363   1.216   0.739   6.712  0.2600 -0.5250  0.0218
   95SAPS    HS 9364   1.217   0.631   6.685  0.8108 -1.0867  2.1223
   95SAPS   O21 9365   1.222   0.758   6.858  0.4765  0.5582  0.4990
   95SAPS   C21 9366   1.270   0.657   6.926  0.0672  0.9011  0.1840
   95SAPS   O22 9367   1.317   0.553   6.885 -0.4246 -0.1382  0.3198
   95SAPS   C22 9368   1.281   0.696   7.073 -0.1111  0.2281  0.0217
   95SAPS   H2R 9369   1.364   0.768   7.092  0.7461 -0.6578 -0.2499
   95SAPS   H2S 9370   1.185   0.739   7.106  1.3984  3.0830  0.9745
   95SAPS    C3 9371   1.334   0.819   6.653  0.4836 -0.3126  0.2134
   95SAPS    HX 9372   1.326   0.921   6.697  1.1564 -1.2984  2.8242
   95SAPS    HY 9373   1.322   0.819   6.543  0.4308 -0.8874  0.2178
   95SAPS   O31 9374   1.456   0.752   6.695 -0.4770 -0.3783  1.0350
   95SAPS   C31 9375   1.552   0.821   6.760 -0.5249 -0.7932 -0.2705
   95SAPS   O32 9376   1.544   0.936   6.795  0.2272 -0.1007 -0.2042
   95SAPS   C32 9377   1.659   0.719   6.781 -1.1240  0.2882  0.1999
   95SAPS   H2X 9378   1.728   0.715   6.694  1.1377 -1.2061  1.9467
   95SAPS   H2Y 9379   1.614   0.618   6.787 -1.2339  0.3129 -0.1801
   95SAPS   C23 9380   1.295   0.570   7.158 -0.3117 -0.8962  0.0577
   95SAPS   H3R 9381   1.306   0.604   7.263 -0.8248 -1.9169  0.4625
   95SAPS   H3S 9382   1.384   0.507   7.137  0.0070 -0.2595 -0.5347
   95SAPS   C24 9383   1.172   0.481   7.147  0.6472  0.0454  0.2795
   95SAPS   H4R 9384   1.171   0.440   7.043  0.8052 -1.4977  0.8509
   95SAPS   H4S 9385   1.085   0.549   7.159  0.9658  0.2037  1.9314
   95SAPS   C25 9386   1.169   0.378   7.247 -0.6501 -0.7649 -0.3316
   95SAPS   H5R 9387   1.243   0.300   7.222  0.1615  0.5152 -2.0862
   95SAPS   C26 9388   1.122   0.392   7.377 -0.0035  0.2373  0.1276
   95SAPS   H6R 9389   1.124   0.304   7.443  1.8376 -1.3825 -1.9204
   95SAPS   C27 9390   1.048   0.507   7.438 -0.6194  0.0087  0.7137
   95SAPS   H7R 9391   1.100   0.603   7.418  0.8701 -0.9799 -0.4335
   95SAPS   H7S 9392   1.051   0.489   7.548  0.7336 -1.8126  0.4426
   95SAPS   C28 9393   0.907   0.515   7.393 -0.3224  0.4176  0.1696
   95SAPS   H8R 9394   0.900   0.554   7.290 -0.4697  1.5773  0.6072
   95SAPS   C29 9395   0.809   0.454   7.465  0.1021  0.1177  0.3254
   95SAPS   H9R 9396   0.706   0.450   7.426 -0.1934 -4.2512  0.9281
   95SAPS  C210 9397   0.811   0.371   7.592  0.0147 -0.0766 -0.0648
   95SAPS  H10R 9398   0.896   0.302   7.612  1.6891  2.6374  3.0115
   95SAPS  H10S 9399   0.732   0.292   7.588  0.1980 -0.2812  0.3489
   95SAPS  C211 9400   0.784   0.452   7.714  0.0756  0.1252 -0.0544
   95SAPS  H11R 9401   0.844   0.545   7.719  2.1983 -1.1643 -0.3701
   95SAPS  C212 9402   0.698   0.423   7.813 -0.7130 -0.4558  0.0902
   95SAPS  H12R 9403   0.670   0.498   7.889 -0.1770  2.3940 -2.3245
   95SAPS  C213 9404   0.618   0.295   7.826  0.2007 -0.5744  0.0675
   95SAPS  H13R 9405   0.684   0.224   7.881  2.3618  3.3294  2.9758
   95SAPS  H13S 9406   0.604   0.250   7.725 -1.0378 -0.6824  0.2745
   95SAPS  C214 9407   0.487   0.313   7.890 -0.3884  1.0778  0.8674
   95SAPS  H14R 9408   0.406   0.343   7.823 -0.0835  0.7508  0.3450
   95SAPS  C215 9409   0.463   0.303   8.024  1.0244  0.7230  0.6286
   95SAPS  H15R 9410   0.359   0.311   8.060  0.7234 -2.4450  0.7593
   95SAPS  C216 9411   0.558   0.261   8.124  0.5500  0.1003 -0.1155
   95SAPS  H16R 9412   0.651   0.241   8.067  0.2805 -0.7630 -0.2669
   95SAPS  H16S 9413   0.525   0.161   8.160  0.8482  0.4354  1.1506
   95SAPS  C217 9414   0.606   0.349   8.241 -1.2524 -0.1081 -0.6985
   95SAPS  H17R 9415   0.533   0.335   8.324  2.1913 -2.8583  2.1869
   95SAPS  H17S 9416   0.614   0.455   8.206  0.5489 -0.0115 -0.1034
   95SAPS  C218 9417   0.741   0.301   8.290  0.5156 -0.7006 -0.2023
   95SAPS  H18R 9418   0.809   0.310   8.203  0.3669  1.0160 -0.1755
   95SAPS  H18S 9419   0.748   0.193   8.313 -0.0978 -0.6649  0.1831
   95SAPS  C219 9420   0.780   0.386   8.409 -0.0758 -0.9735  0.4852
   95SAPS  H19R 9421   0.692   0.384   8.477 -2.0466 -1.2790 -1.9537
   95SAPS  H19S 9422   0.796   0.492   8.379 -0.0270 -0.8493  0.9414
   95SAPS  C220 9423   0.915   0.345   8.471  0.5905 -0.0011 -0.0774
   95SAPS  H20R 9424   0.932   0.419   8.552 -2.0727  1.0984 -0.4130
   95SAPS  H20S 9425   0.995   0.366   8.397 -1.1354  0.2181 -1.9959
   95SAPS  H20T 9426   0.913   0.237   8.495  0.1196  0.0550  0.1428
   95SAPS   C33 9427   1.742   0.746   6.915 -0.4906  0.1508 -0.8306
   95SAPS   H3X 9428   1.791   0.845   6.909 -0.5298  0.1252 -1.6721
   95SAPS   H3Y 9429   1.828   0.677   6.911 -0.3355  0.2931 -0.0704
   95SAPS   C34 9430   1.664   0.719   7.047  0.7330 -0.1765 -0.7292
   95SAPS   H4X 9431   1.624   0.615   7.042  1.2212 -0.4502  0.5152
   95SAPS   H4Y 9432   1.576   0.786   7.053  0.9715  0.0117  3.2051
   95SAPS   C35 9433   1.746   0.741   7.179  0.2233 -0.5398  0.1366
   95SAPS   H5X 9434   1.676   0.741   7.266 -1.9320  2.9483 -1.3569
   95SAPS   H5Y 9435   1.797   0.839   7.170 -0.5887 -0.1763 -0.6206
   95SAPS   C36 9436   1.863   0.639   7.187 -0.0158  0.1343 -0.0638
   95SAPS   H6X 9437   1.929   0.651   7.099 -0.6362 -2.7452 -1.0650
   95SAPS   H6Y 9438   1.826   0.534   7.176 -0.2338 -0.0693  2.1940
   95SAPS   C37 9439   1.939   0.655   7.313  0.8850 -0.0550 -0.7129
   95SAPS   H7X 9440   1.973   0.760   7.325  0.4778  0.1564 -1.3831
   95SAPS   H7Y 9441   2.029   0.589   7.311 -0.4799 -2.0102 -1.7230
   95SAPS   C38 9442   1.849   0.604   7.431 -0.6968 -0.1352 -0.4138
   95SAPS   H8X 9443   1.828   0.496   7.418  0.0428 -0.5664  1.7115
   95SAPS   H8Y 9444   1.750   0.655   7.421  0.0946  1.3911 -0.8155
   95SAPS   C39 9445   1.917   0.621   7.574 -0.6921  0.5065  0.7423
   95SAPS   H9X 9446   1.956   0.725   7.580 -0.4841  0.8546 -3.5829
   95SAPS   H9Y 9447   2.007   0.556   7.565  0.9253  2.6610  0.4884
   95SAPS  C310 9448   1.829   0.595   7.695  0.5190 -0.3134  0.7740
   95SAPS  H10X 9449   1.800   0.488   7.700 -0.7655  0.0447  1.4516
   95SAPS  H10Y 9450   1.736   0.653   7.678  0.4128 -1.3343 -2.9966
   95SAPS  C311 9451   1.893   0.642   7.828 -0.3994  0.1481  0.4370
   95SAPS  H11X 9452   1.900   0.753   7.833 -0.8304  0.2482 -0.6624
   95SAPS  H11Y 9453   1.996   0.601   7.823 -0.7188 -0.6428  0.0682
   95SAPS  C312 9454   1.832   0.567   7.955 -0.3389  0.7257 -0.0461
   95SAPS  H12X 9455   1.906   0.551   8.036 -1.3987  0.2916  0.8678
   95SAPS  H12Y 9456   1.806   0.466   7.917  0.5200  0.5830 -0.2701
   95SAPS  C313 9457   1.711   0.629   8.027 -0.1987  0.2878 -0.4788
   95SAPS  H13X 9458   1.741   0.734   8.044  1.1918 -0.1658  0.0623
   95SAPS  H13Y 9459   1.700   0.577   8.125 -2.0418  0.3935 -0.6004
   95SAPS  C314 9460   1.578   0.630   7.945  0.2104  0.8027 -0.2263
   95SAPS  H14X 9461   1.567   0.526   7.910 -0.6591  0.4797  0.9429
   95SAPS  H14Y 9462   1.589   0.703   7.862  1.2860  1.7220  0.6814
   95SAPS  C315 9463   1.450   0.664   8.019 -0.5183 -0.2995 -0.1716
   95SAPS  H15X 9464   1.439   0.587   8.099 -0.7395 -0.1103 -0.0175
   95SAPS  H15Y 9465   1.374   0.658   7.939  0.3386 -0.6537 -0.9828
   95SAPS  C316 9466   1.463   0.805   8.074 -0.1325  0.0536  0.0692
   95SAPS  H16X 9467   1.554   0.814   8.136 -0.5970  1.1797  0.6098
   95SAPS  H16Y 9468   1.388   0.840   8.148  0.9859  1.2181  0.6922
   95SAPS  C317 9469   1.470   0.917   7.969  0.1692 -0.3984  0.4366
   95SAPS  H17X 9470   1.383   0.890   7.905  1.0407 -0.0922 -0.9074
   95SAPS  H17Y 9471   1.562   0.910   7.907  0.1867 -0.2093  0.4409
   95SAPS  C318 9472   1.474   1.056   8.031  0.4755 -0.0538  0.0092
   95SAPS  H18X 9473   1.440   1.142   7.969 -2.7960 -0.6030  0.8808
   95SAPS  H18Y 9474   1.580   1.080   8.056  0.7077 -1.9693  1.0767
   95SAPS  H18Z 9475   1.415   1.052   8.125  1.1927 -0.5924  0.4451
   96SAPS     N 9476   1.565   3.679   6.192 -0.3680 -0.7964 -0.0573
   96SAPS   HN1 9477   1.523   3.640   6.279  2.4686 -1.3281  1.1751
   96SAPS   HN2 9478   1.608   3.601   6.138  0.5469 -1.6278  1.8009
   96SAPS   HN3 9479   1.629   3.753   6.227  1.6262 -3.0463  1.3317
   96SAPS   C12 9480   1.465   3.735   6.095 -0.1246 -0.0525  0.4285
   96SAPS  H12A 9481   1.513   3.785   6.012 -1.6335  1.1084  0.2156
   96SAPS   C13 9482   1.396   3.622   6.009 -0.3805 -0.9365  0.1388
   96SAPS  O13A 9483   1.398   3.508   6.057  0.7023 -0.0168 -0.8953
   96SAPS  O13B 9484   1.310   3.652   5.926  0.0053 -0.3447 -0.0409
   96SAPS   C11 9485   1.360   3.823   6.158  0.2580  0.1134 -0.2224
   96SAPS  H11A 9486   1.299   3.762   6.229  2.1137 -2.0426 -0.3509
   96SAPS  H11B 9487   1.297   3.872   6.082 -1.4544 -2.6975 -0.7551
   96SAPS     P 9488   1.316   4.035   6.300 -0.0340  0.4362 -0.1116
   96SAPS   O13 9489   1.286   4.134   6.196 -0.2469  0.2242  0.2672
   96SAPS   O14 9490   1.197   3.970   6.363  0.7825  0.5382  0.5165
   96SAPS   O12 9491   1.419   3.932   6.233 -0.4342 -0.4801 -0.3805
   96SAPS   O11 9492   1.391   4.101   6.424 -0.2069  0.0087 -0.2035
   96SAPS    C1 9493   1.513   4.038   6.470 -0.2692 -0.3923  0.0505
   96SAPS    HA 9494   1.589   4.034   6.389  0.3922  1.4144  0.5198
   96SAPS    HB 9495   1.556   4.106   6.547 -2.5907 -1.7262  2.7252
   96SAPS    C2 9496   1.483   3.901   6.551 -0.8747 -0.2628 -0.2586
   96SAPS    HS 9497   1.389   3.867   6.502 -0.6791 -2.7602  0.9844
   96SAPS   O21 9498   1.451   3.936   6.688  0.6433  0.5409 -0.5208
   96SAPS   C21 9499   1.352   3.865   6.745  0.5379  0.4264  0.4346
   96SAPS   O22 9500   1.297   3.772   6.692  0.0670  0.2531  0.0165
   96SAPS   C22 9501   1.322   3.918   6.885 -0.4567 -0.4870 -0.8046
   96SAPS   H2R 9502   1.416   3.960   6.929 -0.1983 -0.6337 -1.2113
   96SAPS   H2S 9503   1.244   3.995   6.869 -0.9931 -1.4408 -3.0959
   96SAPS    C3 9504   1.603   3.810   6.564  0.0390 -0.4867  0.8912
   96SAPS    HX 9505   1.678   3.868   6.622 -0.8235  2.0294 -0.3547
   96SAPS    HY 9506   1.652   3.792   6.466  0.4817 -0.9656  1.1935
   96SAPS   O31 9507   1.569   3.684   6.631  0.3611 -0.8382  0.2874
   96SAPS   C31 9508   1.516   3.601   6.555 -0.4458  0.7505  0.6415
   96SAPS   O32 9509   1.486   3.615   6.438  0.4135  0.3252  0.0328
   96SAPS   C32 9510   1.521   3.466   6.630  0.0628  0.1396  0.1588
   96SAPS   H2X 9511   1.578   3.474   6.725 -1.5409 -2.1334  1.4041
   96SAPS   H2Y 9512   1.573   3.404   6.554  0.0051  0.7465 -0.3873
   96SAPS   C23 9513   1.263   3.800   6.965  0.3425  0.6186  0.4985
   96SAPS   H3R 9514   1.333   3.737   7.024 -2.8623 -0.1275  3.8396
   96SAPS   H3S 9515   1.186   3.748   6.906  0.7874  1.2516 -0.6735
   96SAPS   C24 9516   1.174   3.852   7.087  0.3895 -0.7690  0.1158
   96SAPS   H4R 9517   1.115   3.766   7.124 -0.1626  0.4456  2.2775
   96SAPS   H4S 9518   1.107   3.928   7.042 -0.9117 -0.9106  1.7640
   96SAPS   C25 9519   1.255   3.918   7.197 -0.0190  0.3111 -0.8256
   96SAPS   H5R 9520   1.304   4.014   7.175 -1.1214  1.4258  1.2646
   96SAPS   C26 9521   1.271   3.871   7.328 -0.0313  0.4547  0.7381
   96SAPS   H6R 9522   1.317   3.941   7.400  0.0540  2.1030 -0.8496
   96SAPS   C27 9523   1.203   3.749   7.392  0.1449  0.0903  0.1333
   96SAPS   H7R 9524   1.265   3.710   7.475 -1.1830  0.6167  1.4212
   96SAPS   H7S 9525   1.184   3.659   7.329  4.0274 -0.4138 -0.5586
   96SAPS   C28 9526   1.072   3.801   7.451  0.4075  0.3366  0.3680
   96SAPS   H8R 9527   0.987   3.820   7.384  0.1379  0.8616  0.8513
   96SAPS   C29 9528   1.059   3.838   7.580 -0.5392 -0.0744 -0.3285
   96SAPS   H9R 9529   0.962   3.881   7.610  0.9085  2.4370  1.0292
   96SAPS  C210 9530   1.151   3.818   7.702  0.1520 -0.0555  0.4711
   96SAPS  H10R 9531   1.205   3.914   7.716 -0.3430  0.6772 -2.0720
   96SAPS  H10S 9532   1.232   3.743   7.685  0.2403  0.2128 -0.3450
   96SAPS  C211 9533   1.066   3.773   7.815  0.2643  0.9910  0.4599
   96SAPS  H11R 9534   0.990   3.698   7.793  2.4870 -0.8263 -1.5298
   96SAPS  C212 9535   1.100   3.787   7.947  0.1769  0.5655  0.7574
   96SAPS  H12R 9536   1.031   3.756   8.027  1.3696 -1.4942  1.0709
   96SAPS  C213 9537   1.223   3.851   8.009  0.5070  0.0982  0.2898
   96SAPS  H13R 9538   1.176   3.899   8.098 -0.6594  2.1314 -1.3198
   96SAPS  H13S 9539   1.252   3.938   7.945 -0.7211 -0.2905 -0.8363
   96SAPS  C214 9540   1.334   3.753   8.028 -0.0613  0.5744  0.3656
   96SAPS  H14R 9541   1.337   3.682   7.944  0.4247 -0.1378  0.9767
   96SAPS  C215 9542   1.389   3.711   8.147  0.8290  0.1067  0.5567
   96SAPS  H15R 9543   1.473   3.641   8.148  0.4890 -0.3094  2.2570
   96SAPS  C216 9544   1.363   3.763   8.290  0.1895 -0.0984 -0.0229
   96SAPS  H16R 9545   1.257   3.798   8.298  0.0452 -0.6548  0.5864
   96SAPS  H16S 9546   1.423   3.853   8.318 -0.9849  0.4012  1.0014
   96SAPS  C217 9547   1.399   3.655   8.390 -1.0258  0.0752  0.0924
   96SAPS  H17R 9548   1.379   3.556   8.345  1.6115 -0.5930  0.2182
   96SAPS  H17S 9549   1.343   3.653   8.486  0.4814  3.0839  1.1656
   96SAPS  C218 9550   1.558   3.646   8.416 -0.3942 -0.2390  0.4281
   96SAPS  H18R 9551   1.599   3.738   8.462 -0.1411 -0.6153  0.9629
   96SAPS  H18S 9552   1.598   3.628   8.314 -0.6526 -0.3243  0.3401
   96SAPS  C219 9553   1.592   3.524   8.500  0.4967 -0.1375  0.6572
   96SAPS  H19R 9554   1.698   3.503   8.475  0.6451 -0.4160  1.4654
   96SAPS  H19S 9555   1.541   3.429   8.472 -0.4496  1.0108 -1.7971
   96SAPS  C220 9556   1.553   3.538   8.646  0.1193 -0.5838  0.5237
   96SAPS  H20R 9557   1.621   3.599   8.709  0.9419 -0.4860 -0.4418
   96SAPS  H20S 9558   1.545   3.439   8.697 -1.0192 -0.4782  0.5864
   96SAPS  H20T 9559   1.452   3.585   8.650 -0.5185 -1.2501 -3.4260
   96SAPS   C33 9560   1.379   3.418   6.658  0.0183  0.2070  0.2035
   96SAPS   H3X 9561   1.319   3.397   6.566  1.5973 -1.4699 -0.5058
   96SAPS   H3Y 9562   1.321   3.488   6.722 -0.9553  0.0091 -0.4414
   96SAPS   C34 9563   1.380   3.278   6.725 -0.3149 -0.4070 -0.3537
   96SAPS   H4X 9564   1.423   3.189   6.673 -0.4801 -1.6416  1.5091
   96SAPS   H4Y 9565   1.270   3.261   6.728 -0.9037  2.3618 -2.4971
   96SAPS   C35 9566   1.430   3.284   6.876  0.2265  0.0148  0.3284
   96SAPS   H5X 9567   1.534   3.320   6.881 -0.7813  2.9759  2.3163
   96SAPS   H5Y 9568   1.433   3.176   6.903  0.9372  0.4856  2.2994
   96SAPS   C36 9569   1.350   3.372   6.982  0.6355  0.5201  0.2165
   96SAPS   H6X 9570   1.240   3.362   6.965 -0.0901  3.0397  2.6983
   96SAPS   H6Y 9571   1.374   3.480   6.977  0.6254  0.5467  0.7380
   96SAPS   C37 9572   1.371   3.322   7.126 -0.7452 -0.3070 -0.5954
   96SAPS   H7X 9573   1.480   3.317   7.146 -0.9480  0.9676  0.9798
   96SAPS   H7Y 9574   1.319   3.229   7.157 -0.3397  0.3795  2.4531
   96SAPS   C38 9575   1.331   3.439   7.222 -0.0028 -0.2401 -1.0822
   96SAPS   H8X 9576   1.220   3.445   7.222  0.0386  0.7190 -1.5517
   96SAPS   H8Y 9577   1.357   3.541   7.185 -1.1400 -0.2002 -1.8247
   96SAPS   C39 9578   1.376   3.422   7.370 -0.2249  0.4143 -0.4495
   96SAPS   H9X 9579   1.393   3.521   7.416 -0.9795 -0.1229  1.0637
   96SAPS   H9Y 9580   1.469   3.363   7.385 -0.5134  0.5588  2.3301
   96SAPS  C310 9581   1.261   3.361   7.454  0.3018  0.4386 -1.0101
   96SAPS  H10X 9582   1.222   3.270   7.405 -0.8801  0.1214  0.4211
   96SAPS  H10Y 9583   1.181   3.439   7.455  0.9162  1.1289 -2.8359
   96SAPS  C311 9584   1.306   3.341   7.599  0.0777  0.1689  0.4715
   96SAPS  H11X 9585   1.350   3.435   7.640 -0.2601 -0.0603  1.3788
   96SAPS  H11Y 9586   1.391   3.271   7.585  0.8771  1.4872 -1.8325
   96SAPS  C312 9587   1.203   3.287   7.699  0.1743  0.2204 -0.5621
   96SAPS  H12X 9588   1.156   3.198   7.652  0.3723 -0.8717  1.2365
   96SAPS  H12Y 9589   1.131   3.369   7.717  1.1841  0.8796  0.6300
   96SAPS  C313 9590   1.254   3.248   7.837 -0.2812  0.0265  0.0528
   96SAPS  H13X 9591   1.343   3.183   7.826  0.1323  0.7588 -1.0627
   96SAPS  H13Y 9592   1.177   3.183   7.885 -0.7544  2.9199  3.6586
   96SAPS  C314 9593   1.286   3.372   7.926  0.8329  0.3104  0.4617
   96SAPS  H14X 9594   1.201   3.438   7.899  0.7015  0.3306  0.9136
   96SAPS  H14Y 9595   1.374   3.426   7.884  0.8426 -0.6325 -0.7946
   96SAPS  C315 9596   1.278   3.353   8.083  0.1348 -0.0306  0.7003
   96SAPS  H15X 9597   1.273   3.449   8.138  0.6513  1.0302 -1.0169
   96SAPS  H15Y 9598   1.380   3.312   8.098  0.1788 -1.0432 -1.7914
   96SAPS  C316 9599   1.178   3.247   8.130 -0.6757  0.2720 -0.1622
   96SAPS  H16X 9600   1.181   3.235   8.241 -1.8698 -0.0203 -0.1512
   96SAPS  H16Y 9601   1.210   3.156   8.076 -0.1988  0.4783 -0.2358
   96SAPS  C317 9602   1.031   3.290   8.112  0.1064 -0.2255  0.0254
   96SAPS  H17X 9603   0.963   3.205   8.134  1.8432 -1.0864  2.5356
   96SAPS  H17Y 9604   1.005   3.319   8.008 -0.4624  2.5796  0.8605
   96SAPS  C318 9605   0.978   3.401   8.208  0.1963 -0.6282 -0.5218
   96SAPS  H18X 9606   0.998   3.505   8.173 -1.5661  0.4796  1.5281
   96SAPS  H18Y 9607   1.023   3.379   8.307 -1.3349 -0.0578  0.3520
   96SAPS  H18Z 9608   0.867   3.402   8.221  0.1662  2.5071 -0.3242
   97SAPS     N 9609   2.803   2.586   6.098 -0.2506 -0.3430 -0.0622
   97SAPS   HN1 9610   2.710   2.541   6.108  0.0409 -1.0675 -0.5471
   97SAPS   HN2 9611   2.860   2.561   6.181 -1.9990  1.3247  1.7331
   97SAPS   HN3 9612   2.795   2.689   6.087 -0.4341 -0.2701  0.6771
   97SAPS   C12 9613   2.863   2.521   5.979 -0.2104 -0.3543  0.2355
   97SAPS  H12A 9614   2.860   2.415   5.999  0.6126 -0.9688 -2.4038
   97SAPS   C13 9615   2.785   2.537   5.842  0.5330 -0.3597 -0.2056
   97SAPS  O13A 9616   2.689   2.618   5.841 -0.2615  0.8495  0.5073
   97SAPS  O13B 9617   2.825   2.477   5.744 -0.0318  0.2928 -0.3755
   97SAPS   C11 9618   3.004   2.574   5.957  0.0798  0.9073  0.9926
   97SAPS  H11A 9619   2.994   2.683   5.933 -3.3446  0.4542 -0.2151
   97SAPS  H11B 9620   3.052   2.530   5.867 -0.1863  1.6641  0.4688
   97SAPS     P 9621   3.244   2.553   6.084  0.4365  0.1097 -0.3896
   97SAPS   O13 9622   3.300   2.429   6.152  0.5600  0.1537 -0.0779
   97SAPS   O14 9623   3.299   2.579   5.947 -0.2509  0.9943  0.0166
   97SAPS   O12 9624   3.088   2.547   6.073  0.1725  0.7215  0.2581
   97SAPS   O11 9625   3.277   2.674   6.173  0.0554  0.5402  0.3689
   97SAPS    C1 9626   3.171   2.724   6.256 -0.7819 -0.6895  0.1459
   97SAPS    HA 9627   3.126   2.808   6.198 -0.2793 -0.9427 -0.6161
   97SAPS    HB 9628   3.097   2.648   6.288 -0.6484 -0.8701  0.0275
   97SAPS    C2 9629   3.231   2.759   6.400  0.3330 -0.0148  0.2353
   97SAPS    HS 9630   3.283   2.856   6.387 -0.3092  0.3397  0.2551
   97SAPS   O21 9631   3.319   2.661   6.459  0.1952  0.2222  0.1861
   97SAPS   C21 9632   3.272   2.538   6.496 -0.7789 -0.0521  0.2847
   97SAPS   O22 9633   3.157   2.509   6.500  0.7186  0.3686 -0.1257
   97SAPS   C22 9634   3.386   2.446   6.534 -0.1016 -0.1013  0.6704
   97SAPS   H2R 9635   3.435   2.418   6.438 -0.2402 -4.5841  1.6998
   97SAPS   H2S 9636   3.464   2.511   6.579  0.6333  2.1420 -3.3591
   97SAPS    C3 9637   3.114   2.799   6.497  0.1527 -0.1180 -0.2094
   97SAPS    HX 9638   3.029   2.729   6.482 -1.5272  1.3176  1.9430
   97SAPS    HY 9639   3.074   2.897   6.463 -1.6137 -0.2789  1.2218
   97SAPS   O31 9640   3.146   2.799   6.635  0.5424 -0.0346 -0.9732
   97SAPS   C31 9641   3.227   2.899   6.684  0.4385 -0.1166 -0.4989
   97SAPS   O32 9642   3.267   2.989   6.618  0.1455 -0.9455  0.1041
   97SAPS   C32 9643   3.260   2.873   6.828  0.0591 -0.6557  0.1385
   97SAPS   H2X 9644   3.172   2.876   6.895 -0.3647  0.5800 -0.4571
   97SAPS   H2Y 9645   3.317   2.966   6.851  0.8041 -1.4595  1.7400
   97SAPS   C23 9646   3.329   2.329   6.611 -0.2074  0.8270 -0.5530
   97SAPS   H3R 9647   3.261   2.265   6.550 -1.8750 -0.2039  2.1979
   97SAPS   H3S 9648   3.264   2.370   6.692 -2.0960  0.4050 -1.7840
   97SAPS   C24 9649   3.426   2.239   6.688 -0.5697 -0.0582 -0.8914
   97SAPS   H4R 9650   3.487   2.180   6.616  0.8165 -1.2889  1.1661
   97SAPS   H4S 9651   3.375   2.153   6.736  1.5129 -0.8104  0.1131
   97SAPS   C25 9652   3.508   2.308   6.791 -0.3120  0.1780 -1.0431
   97SAPS   H5R 9653   3.557   2.406   6.776  0.3655  0.0899  0.3346
   97SAPS   C26 9654   3.533   2.264   6.923  1.0184 -0.0448 -0.3276
   97SAPS   H6R 9655   3.605   2.323   6.982  0.2292  0.7857 -0.1697
   97SAPS   C27 9656   3.490   2.138   6.991 -0.6959 -0.1209  0.2773
   97SAPS   H7R 9657   3.572   2.090   7.048 -0.3533  0.8044  0.5821
   97SAPS   H7S 9658   3.475   2.066   6.908 -2.4814  3.0795 -2.4346
   97SAPS   C28 9659   3.354   2.149   7.054 -0.2239 -0.2559 -1.5430
   97SAPS   H8R 9660   3.285   2.203   6.987 -0.1327  0.4641 -1.0767
   97SAPS   C29 9661   3.328   2.115   7.183  0.1516  0.2094  0.0947
   97SAPS   H9R 9662   3.228   2.134   7.225  0.3087  0.7528  0.2215
   97SAPS  C210 9663   3.429   2.044   7.273 -0.1550 -0.4833  0.1117
   97SAPS  H10R 9664   3.511   2.003   7.211 -1.1694  0.5175 -1.9994
   97SAPS  H10S 9665   3.384   1.958   7.326  0.7609 -0.4326  1.0012
   97SAPS  C211 9666   3.477   2.137   7.381  0.6459 -0.2106  0.2782
   97SAPS  H11R 9667   3.540   2.215   7.338 -0.8910  0.1271 -1.4967
   97SAPS  C212 9668   3.434   2.149   7.510 -0.1237 -0.5715 -0.4568
   97SAPS  H12R 9669   3.493   2.228   7.559 -0.3693  0.3971 -1.6680
   97SAPS  C213 9670   3.333   2.067   7.581 -0.5796 -0.1723 -0.8799
   97SAPS  H13R 9671   3.370   2.077   7.686 -0.9078 -0.5014 -0.7329
   97SAPS  H13S 9672   3.344   1.962   7.549  1.3452 -0.5586  0.8234
   97SAPS  C214 9673   3.195   2.123   7.561  0.2512 -0.2200 -0.3128
   97SAPS  H14R 9674   3.180   2.185   7.471  1.0972  0.4665  0.0096
   97SAPS  C215 9675   3.091   2.097   7.643 -0.4681 -0.5580  1.0158
   97SAPS  H15R 9676   2.993   2.140   7.620  0.4143  1.6583  1.1509
   97SAPS  C216 9677   3.099   2.009   7.765 -0.3739 -0.3818 -0.4797
   97SAPS  H16R 9678   3.187   1.942   7.756 -1.7336 -1.9230 -3.4506
   97SAPS  H16S 9679   3.007   1.947   7.772 -1.5471  1.1361 -1.6639
   97SAPS  C217 9680   3.103   2.107   7.886  0.1282  0.8697 -0.4222
   97SAPS  H17R 9681   3.006   2.161   7.899  0.3756  1.4492 -0.9001
   97SAPS  H17S 9682   3.180   2.186   7.874  0.0436  0.9327 -0.5514
   97SAPS  C218 9683   3.130   2.031   8.016  0.1898  0.0414  0.4205
   97SAPS  H18R 9684   3.199   1.945   8.002  2.5176  1.9471 -0.3381
   97SAPS  H18S 9685   3.033   2.002   8.062 -0.1890  1.7266  0.7459
   97SAPS  C219 9686   3.193   2.116   8.127  0.0000 -1.1081 -0.0959
   97SAPS  H19R 9687   3.136   2.211   8.134  1.3266 -0.2984  0.1688
   97SAPS  H19S 9688   3.299   2.131   8.097  1.0515 -2.1725  2.7622
   97SAPS  C220 9689   3.215   2.055   8.267  0.7549 -0.1125  0.0471
   97SAPS  H20R 9690   3.242   1.947   8.260  1.8232 -0.1503  3.2404
   97SAPS  H20S 9691   3.114   2.049   8.314  0.9305  0.0143  0.4358
   97SAPS  H20T 9692   3.281   2.103   8.341 -2.2543  1.8868  1.6071
   97SAPS   C33 9693   3.349   2.752   6.855  0.0174 -0.2920  0.0013
   97SAPS   H3X 9694   3.422   2.759   6.938 -0.5745 -1.2206  0.6253
   97SAPS   H3Y 9695   3.407   2.741   6.761 -1.3649 -0.2730 -0.8860
   97SAPS   C34 9696   3.276   2.617   6.879 -0.2178 -0.2892 -0.2387
   97SAPS   H4X 9697   3.347   2.536   6.850  1.7927  1.0380  0.7309
   97SAPS   H4Y 9698   3.194   2.616   6.804  0.0852 -0.0833 -0.5750
   97SAPS   C35 9699   3.232   2.597   7.021 -0.0684  0.3167  0.2370
   97SAPS   H5X 9700   3.150   2.522   7.025 -0.3481  0.6095  0.1156
   97SAPS   H5Y 9701   3.185   2.683   7.073  1.2409  0.3164  1.4813
   97SAPS   C36 9702   3.346   2.536   7.101  0.1458 -0.1766 -0.3943
   97SAPS   H6X 9703   3.419   2.615   7.128 -3.0473  2.2022  2.1442
   97SAPS   H6Y 9704   3.391   2.454   7.042 -1.7515 -2.0012  0.5736
   97SAPS   C37 9705   3.306   2.488   7.244 -0.3387 -0.1906  0.4629
   97SAPS   H7X 9706   3.400   2.441   7.280  1.9621  4.7077  1.6222
   97SAPS   H7Y 9707   3.224   2.413   7.240 -1.5875  1.1402  0.2327
   97SAPS   C38 9708   3.263   2.610   7.337  0.6223  0.4611 -0.3950
   97SAPS   H8X 9709   3.187   2.678   7.292  0.1414  0.1262 -0.1080
   97SAPS   H8Y 9710   3.348   2.678   7.358 -0.6309  1.1846  2.8877
   97SAPS   C39 9711   3.207   2.562   7.474  0.6331 -0.1656 -0.0140
   97SAPS   H9X 9712   3.190   2.652   7.537 -3.4062  1.0026 -2.4212
   97SAPS   H9Y 9713   3.291   2.501   7.514  0.3395  0.6706  1.9897
   97SAPS  C310 9714   3.079   2.482   7.470 -0.2107 -0.6701  0.0124
   97SAPS  H10X 9715   3.097   2.382   7.426 -0.9442 -0.1102 -1.6423
   97SAPS  H10Y 9716   2.997   2.529   7.413 -2.2189 -1.7550  1.8712
   97SAPS  C311 9717   3.021   2.470   7.611 -0.3111 -0.0114  0.0723
   97SAPS  H11X 9718   3.085   2.412   7.681  0.4149  1.1213  0.3581
   97SAPS  H11Y 9719   2.925   2.417   7.590 -0.3874 -0.2635  1.0177
   97SAPS  C312 9720   2.977   2.596   7.686  0.3607  0.0082 -0.0845
   97SAPS  H12X 9721   2.935   2.674   7.619  3.0724  2.1455  0.4785
   97SAPS  H12Y 9722   3.074   2.640   7.720  0.1048 -1.0575  2.2135
   97SAPS  C313 9723   2.904   2.564   7.810 -0.7072 -0.4955 -0.3789
   97SAPS  H13X 9724   2.933   2.465   7.853  1.0764  0.3588  0.4982
   97SAPS  H13Y 9725   2.794   2.562   7.795 -1.1897  3.7169  1.3662
   97SAPS  C314 9726   2.916   2.673   7.916 -0.0861  0.2655 -0.0559
   97SAPS  H14X 9727   2.922   2.779   7.885  0.7244  0.1038 -0.4962
   97SAPS  H14Y 9728   3.017   2.657   7.961  0.5819  0.0299 -1.5578
   97SAPS  C315 9729   2.811   2.646   8.018 -0.0599  0.8507  0.1373
   97SAPS  H15X 9730   2.800   2.549   8.071 -1.6066  0.9244  0.0056
   97SAPS  H15Y 9731   2.715   2.661   7.965 -0.5600 -0.2319  0.7019
   97SAPS  C316 9732   2.821   2.759   8.130  0.3668 -0.3660 -0.0468
   97SAPS  H16X 9733   2.821   2.851   8.067 -3.7975  0.3342  0.6964
   97SAPS  H16Y 9734   2.922   2.746   8.174  0.4357 -1.0995 -0.3935
   97SAPS  C317 9735   2.696   2.756   8.222 -0.4471 -0.0229 -0.3493
   97SAPS  H17X 9736   2.723   2.678   8.296 -0.6593  1.6678  1.6139
   97SAPS  H17Y 9737   2.606   2.733   8.160  0.5618 -0.7425 -1.6070
   97SAPS  C318 9738   2.672   2.887   8.293  0.5095  0.1017  0.0543
   97SAPS  H18X 9739   2.639   2.965   8.221 -1.7321 -1.0739 -0.2655
   97SAPS  H18Y 9740   2.771   2.915   8.337 -0.1153 -1.3289  2.5547
   97SAPS  H18Z 9741   2.596   2.882   8.373 -0.1404  0.9598 -0.4950
   98SAPS     N 9742   0.837   0.394   6.030  0.6919 -0.2392 -0.5902
   98SAPS   HN1 9743   0.862   0.492   6.005  0.8349 -0.5858 -1.9016
   98SAPS   HN2 9744   0.773   0.367   5.952  0.6466 -0.1107 -0.5971
   98SAPS   HN3 9745   0.788   0.396   6.122  0.2552  2.0436 -0.8299
   98SAPS   C12 9746   0.946   0.287   6.013  0.1864 -0.0475 -0.8607
   98SAPS  H12A 9747   0.906   0.194   6.052  1.6426  0.5028  2.1828
   98SAPS   C13 9748   0.989   0.260   5.862 -0.3155  0.1793  0.1556
   98SAPS  O13A 9749   0.931   0.308   5.762  0.1254 -0.1934 -0.5834
   98SAPS  O13B 9750   1.069   0.164   5.846 -0.4769 -0.2432 -0.0919
   98SAPS   C11 9751   1.072   0.313   6.105  0.3562 -0.0622 -0.0331
   98SAPS  H11A 9752   1.139   0.389   6.059  0.4222  1.0569  1.8303
   98SAPS  H11B 9753   1.129   0.218   6.110 -3.9856 -3.1056 -1.8158
   98SAPS     P 9754   1.045   0.489   6.295 -0.2704 -0.2571  0.3133
   98SAPS   O13 9755   1.192   0.517   6.270  0.1563  0.0806  0.3428
   98SAPS   O14 9756   0.960   0.582   6.220  0.1584 -0.0287 -0.2906
   98SAPS   O12 9757   1.027   0.338   6.243 -0.7474 -0.0452  0.0868
   98SAPS   O11 9758   1.002   0.487   6.446  0.1823  0.1119 -0.4560
   98SAPS    C1 9759   1.077   0.400   6.540 -0.2549 -0.3137  0.1543
   98SAPS    HA 9760   1.117   0.310   6.489 -1.1631 -1.1993  0.9558
   98SAPS    HB 9761   1.165   0.456   6.581  1.3262 -0.3034 -2.9952
   98SAPS    C2 9762   0.992   0.365   6.663 -0.1026 -0.6237  0.7654
   98SAPS    HS 9763   0.919   0.289   6.630  1.6996 -1.9929 -0.2745
   98SAPS   O21 9764   0.923   0.482   6.693 -0.3382 -0.1536  0.3950
   98SAPS   C21 9765   0.810   0.475   6.756  0.2814  0.3376 -0.1134
   98SAPS   O22 9766   0.731   0.383   6.750  0.3887 -0.1472  1.0148
   98SAPS   C22 9767   0.789   0.602   6.840  0.1883  0.5980  0.2916
   98SAPS   H2R 9768   0.787   0.695   6.778  0.5631  1.6545  1.7933
   98SAPS   H2S 9769   0.683   0.592   6.870 -0.1834 -1.8117 -1.5525
   98SAPS    C3 9770   1.072   0.312   6.784 -0.4052 -0.1105  0.9960
   98SAPS    HX 9771   1.149   0.386   6.815  0.7394 -1.4066  1.3617
   98SAPS    HY 9772   1.130   0.222   6.754 -1.0550 -1.0643  2.4931
   98SAPS   O31 9773   0.982   0.283   6.889  0.2246  0.4213 -0.2739
   98SAPS   C31 9774   0.920   0.165   6.884 -0.2961  0.2904 -0.6917
   98SAPS   O32 9775   0.927   0.084   6.796 -0.6030  0.0656 -0.1093
   98SAPS   C32 9776   0.839   0.150   7.009 -0.6759 -0.2348  0.1239
   98SAPS   H2X 9777   0.774   0.060   7.003  0.2684 -1.0041  0.9974
   98SAPS   H2Y 9778   0.788   0.242   7.043  0.1396  0.7603 -1.2546
   98SAPS   C23 9779   0.873   0.617   6.963 -0.1643  0.4151 -0.1069
   98SAPS   H3R 9780   0.975   0.572   6.955  0.1959  1.1654  0.1115
   98SAPS   H3S 9781   0.830   0.555   7.044  1.1364  0.4582  0.6511
   98SAPS   C24 9782   0.877   0.764   7.014 -0.3998  0.2754 -0.4866
   98SAPS   H4R 9783   0.928   0.821   6.934  2.6202 -1.3816  0.1023
   98SAPS   H4S 9784   0.950   0.763   7.098  0.3654  0.6622 -1.1319
   98SAPS   C25 9785   0.750   0.835   7.054  0.4559 -0.0750 -0.2222
   98SAPS   H5R 9786   0.674   0.853   6.976 -1.8316 -0.3530  1.8432
   98SAPS   C26 9787   0.724   0.885   7.175 -0.3017 -0.0703  0.2633
   98SAPS   H6R 9788   0.624   0.930   7.182  0.8887  3.4341 -2.2289
   98SAPS   C27 9789   0.809   0.863   7.302 -0.1643 -0.1857 -0.0446
   98SAPS   H7R 9790   0.858   0.957   7.334 -0.7950  0.3508 -0.6183
   98SAPS   H7S 9791   0.890   0.787   7.293  0.4276  0.3227  0.8572
   98SAPS   C28 9792   0.715   0.818   7.418  0.1634  0.8120 -0.8964
   98SAPS   H8R 9793   0.639   0.749   7.379  0.5012 -1.8893  2.6750
   98SAPS   C29 9794   0.729   0.840   7.557 -0.7633 -0.3074 -0.3637
   98SAPS   H9R 9795   0.649   0.797   7.620 -0.3905 -0.1921  0.1957
   98SAPS  C210 9796   0.822   0.936   7.623 -0.0620  0.3869  0.2471
   98SAPS  H10R 9797   0.763   1.005   7.687  0.7357  2.6351 -1.3087
   98SAPS  H10S 9798   0.872   1.013   7.560 -1.1122  0.7647 -0.1391
   98SAPS  C211 9799   0.922   0.862   7.710 -1.0901  0.6457  0.6864
   98SAPS  H11R 9800   1.000   0.807   7.655 -1.5116 -0.0867  0.7994
   98SAPS  C212 9801   0.923   0.851   7.844  0.1251 -0.2522  0.0129
   98SAPS  H12R 9802   1.001   0.794   7.897  1.4365  3.6030  2.6942
   98SAPS  C213 9803   0.820   0.914   7.940  0.1748 -0.2890 -0.1268
   98SAPS  H13R 9804   0.831   0.863   8.038  3.2848  0.3687 -0.0180
   98SAPS  H13S 9805   0.715   0.905   7.905 -0.7648  1.8836  1.9157
   98SAPS  C214 9806   0.864   1.050   7.979 -0.0651 -0.3575  0.2504
   98SAPS  H14R 9807   0.970   1.072   7.963 -0.3973 -0.1186 -2.0218
   98SAPS  C215 9808   0.781   1.134   8.047  0.8555 -0.5007  0.3484
   98SAPS  H15R 9809   0.816   1.236   8.071  2.8786 -1.3466  1.2464
   98SAPS  C216 9810   0.637   1.117   8.084  0.7398 -0.3241 -0.2865
   98SAPS  H16R 9811   0.622   1.086   8.189 -1.1531  1.4225  0.0352
   98SAPS  H16S 9812   0.592   1.023   8.045 -1.7546 -0.8648  3.3499
   98SAPS  C217 9813   0.542   1.241   8.061  1.1090  0.5073 -0.1295
   98SAPS  H17R 9814   0.543   1.249   7.950 -0.6918 -0.2417 -0.2368
   98SAPS  H17S 9815   0.589   1.325   8.118 -0.6219  0.4860  1.4136
   98SAPS  C218 9816   0.392   1.224   8.102  0.2201 -0.4686 -0.6287
   98SAPS  H18R 9817   0.382   1.178   8.202 -1.5169  2.9602  0.9521
   98SAPS  H18S 9818   0.352   1.141   8.041  2.1341 -0.5676 -1.8357
   98SAPS  C219 9819   0.305   1.349   8.098 -0.1986  0.3138  0.0323
   98SAPS  H19R 9820   0.199   1.325   8.119 -0.1408  0.9375  1.1655
   98SAPS  H19S 9821   0.306   1.385   7.993  0.3950  2.1863  0.6289
   98SAPS  C220 9822   0.355   1.464   8.188 -0.1882 -0.0235  0.2374
   98SAPS  H20R 9823   0.271   1.536   8.201 -1.1516 -0.4980 -2.5839
   98SAPS  H20S 9824   0.441   1.519   8.143 -0.6605  2.2598  1.9539
   98SAPS  H20T 9825   0.393   1.421   8.283 -0.8697 -1.2800 -0.0397
   98SAPS   C33 9826   0.934   0.103   7.127  0.0464  0.0097 -0.3405
   98SAPS   H3X 9827   0.968   0.202   7.164 -1.5861  1.0391 -1.4448
   98SAPS   H3Y 9828   1.025   0.043   7.104  1.2088  0.7063  2.1728
   98SAPS   C34 9829   0.859   0.035   7.247  0.1353  0.0444 -0.4159
   98SAPS   H4X 9830   0.825  -0.068   7.221 -1.6466  0.8731 -1.5848
   98SAPS   H4Y 9831   0.761   0.083   7.265  1.2831  1.4290  2.7770
   98SAPS   C35 9832   0.945   0.042   7.370 -0.2530 -0.2651 -1.4768
   98SAPS   H5X 9833   0.984   0.144   7.387 -1.0199 -0.3756  1.7097
   98SAPS   H5Y 9834   1.029  -0.029   7.359 -0.3029 -0.9744  1.7004
   98SAPS   C36 9835   0.861   0.004   7.496  0.1836 -0.2943  0.0979
   98SAPS   H6X 9836   0.807  -0.093   7.490 -0.5822  0.1996 -1.5937
   98SAPS   H6Y 9837   0.777   0.075   7.510  0.0867 -0.3044 -0.4181
   98SAPS   C37 9838   0.942  -0.010   7.627  0.2828 -0.7908  0.0356
   98SAPS   H7X 9839   0.865  -0.022   7.706  0.1757  0.5526  0.1615
   98SAPS   H7Y 9840   1.002   0.084   7.631 -1.4282  0.3610 -0.4272
   98SAPS   C38 9841   1.038  -0.133   7.629 -0.5194  0.5120  0.6235
   98SAPS   H8X 9842   1.141  -0.093   7.620 -1.0386  1.4877 -1.7399
   98SAPS   H8Y 9843   1.013  -0.195   7.540 -0.6618  1.9295 -0.3530
   98SAPS   C39 9844   1.033  -0.214   7.760  0.9223  0.1342  0.0488
   98SAPS   H9X 9845   0.931  -0.250   7.784  1.3451 -1.9244 -1.0089
   98SAPS   H9Y 9846   1.073  -0.142   7.836 -0.0676  1.4850 -0.6651
   98SAPS  C310 9847   1.131  -0.334   7.751  0.7532  0.1713 -0.3893
   98SAPS  H10X 9848   1.236  -0.298   7.741  0.5347  1.9037  2.3277
   98SAPS  H10Y 9849   1.102  -0.405   7.672 -0.3144  0.8229 -0.6021
   98SAPS  C311 9850   1.133  -0.405   7.887 -0.2838 -0.3890 -1.0221
   98SAPS  H11X 9851   1.190  -0.499   7.872 -0.9268 -0.7381 -1.3173
   98SAPS  H11Y 9852   1.029  -0.431   7.915 -1.1317  1.2208 -2.5035
   98SAPS  C312 9853   1.193  -0.330   8.006  0.5151 -0.2106  0.4438
   98SAPS  H12X 9854   1.133  -0.240   8.032  0.8783  0.2296 -0.1961
   98SAPS  H12Y 9855   1.287  -0.288   7.964 -0.2550  1.3698  0.2456
   98SAPS  C313 9856   1.198  -0.419   8.129 -0.0060  0.1551 -0.1855
   98SAPS  H13X 9857   1.262  -0.368   8.204 -1.1420 -0.2771  1.1010
   98SAPS  H13Y 9858   1.228  -0.525   8.116 -2.5299 -0.8702  1.5126
   98SAPS  C314 9859   1.060  -0.410   8.200 -0.0715 -0.3013  0.0379
   98SAPS  H14X 9860   0.977  -0.447   8.137  0.5644 -1.1530 -0.3111
   98SAPS  H14Y 9861   1.041  -0.304   8.228  1.2534 -0.5425  2.0710
   98SAPS  C315 9862   1.066  -0.486   8.329  0.5846 -0.1183  0.6442
   98SAPS  H15X 9863   1.127  -0.577   8.313 -0.3421 -0.7176  0.3795
   98SAPS  H15Y 9864   0.965  -0.517   8.365  0.4504 -0.5547 -0.1096
   98SAPS  C316 9865   1.122  -0.405   8.439  0.4498  0.1394  0.2135
   98SAPS  H16X 9866   1.054  -0.319   8.455  1.4166  1.2318 -1.2441
   98SAPS  H16Y 9867   1.214  -0.356   8.401 -1.3676  2.3674 -1.5907
   98SAPS  C317 9868   1.149  -0.482   8.563 -0.0405 -0.1752  0.1995
   98SAPS  H17X 9869   1.177  -0.406   8.639 -1.0822  3.1347 -2.4717
   98SAPS  H17Y 9870   1.241  -0.540   8.539 -0.1839 -0.3059 -0.0419
   98SAPS  C318 9871   1.044  -0.579   8.601 -0.3274  0.0244 -0.3491
   98SAPS  H18X 9872   1.009  -0.641   8.516 -2.6668 -1.0709  1.3045
   98SAPS  H18Y 9873   0.954  -0.536   8.648 -0.2998 -0.2339 -0.0581
   98SAPS  H18Z 9874   1.092  -0.645   8.677 -1.0063  1.3935  1.3389
   99SAPS     N 9875   4.937   3.410   5.986  0.1907  0.4646 -0.2191
   99SAPS   HN1 9876   4.952   3.506   6.024  0.9393  0.8630 -1.4338
   99SAPS   HN2 9877   4.848   3.377   6.029 -0.2353  2.4229  0.5299
   99SAPS   HN3 9878   5.008   3.347   6.028 -0.6945  0.3815  1.1932
   99SAPS   C12 9879   4.932   3.408   5.842 -0.2782 -0.1567 -0.1989
   99SAPS  H12A 9880   4.945   3.304   5.815  1.8690  0.1420 -0.5551
   99SAPS   C13 9881   4.805   3.451   5.771 -0.4018 -0.2861 -1.2833
   99SAPS  O13A 9882   4.710   3.488   5.839  0.4877 -0.3958 -0.0390
   99SAPS  O13B 9883   4.812   3.471   5.647 -0.1360  0.2450  0.0285
   99SAPS   C11 9884   5.058   3.489   5.786 -0.1045 -0.0635 -0.1654
   99SAPS  H11A 9885   5.038   3.597   5.801 -1.4773 -0.1542 -1.1121
   99SAPS  H11B 9886   5.055   3.467   5.677  1.2263 -1.4197  0.0447
   99SAPS     P 9887   5.317   3.513   5.770 -0.0316 -0.0888 -0.7512
   99SAPS   O13 9888   5.367   3.393   5.700  0.6223  0.5550 -0.4341
   99SAPS   O14 9889   5.302   3.639   5.698  0.0272  0.0235 -0.0155
   99SAPS   O12 9890   5.185   3.470   5.848  0.4764  0.7641  0.6007
   99SAPS   O11 9891   5.413   3.545   5.898  0.2144  0.4703  0.1530
   99SAPS    C1 9892   5.374   3.659   5.980 -0.0727 -0.1554 -0.3083
   99SAPS    HA 9893   5.442   3.746   5.983 -0.2836 -0.0038  0.2264
   99SAPS    HB 9894   5.273   3.698   5.954 -1.3029 -2.6198  0.3693
   99SAPS    C2 9895   5.364   3.625   6.133 -0.5974  0.4926  0.1605
   99SAPS    HS 9896   5.366   3.715   6.198  2.6032  1.1578 -0.6667
   99SAPS   O21 9897   5.475   3.538   6.174 -0.2234 -0.2138 -0.6834
   99SAPS   C21 9898   5.594   3.597   6.167 -0.4961 -0.2762 -0.1369
   99SAPS   O22 9899   5.622   3.716   6.148  0.0587  0.2037 -0.2783
   99SAPS   C22 9900   5.691   3.490   6.229 -0.2473 -0.2604  0.8217
   99SAPS   H2R 9901   5.642   3.391   6.242  0.4208 -0.6040  0.7383
   99SAPS   H2S 9902   5.782   3.488   6.166 -0.3284  0.2714  0.6751
   99SAPS    C3 9903   5.232   3.547   6.151  0.3101 -0.0943 -0.6283
   99SAPS    HX 9904   5.250   3.449   6.101  0.7836  1.2216 -3.2233
   99SAPS    HY 9905   5.155   3.610   6.102  0.0508  1.1835  1.3135
   99SAPS   O31 9906   5.200   3.535   6.294  0.4641 -0.2426 -0.0539
   99SAPS   C31 9907   5.249   3.419   6.353 -0.0511 -0.2254  0.1071
   99SAPS   O32 9908   5.285   3.322   6.289  0.8914  0.0892  0.3290
   99SAPS   C32 9909   5.278   3.438   6.500  0.2812 -0.1790 -0.2763
   99SAPS   H2X 9910   5.389   3.437   6.512  0.3769 -2.8339 -0.8148
   99SAPS   H2Y 9911   5.250   3.345   6.556 -2.2424  0.4613 -0.3552
   99SAPS   C23 9912   5.716   3.518   6.382  0.7863  0.2259  0.4494
   99SAPS   H3R 9913   5.620   3.553   6.425  0.0778 -1.4787  0.3310
   99SAPS   H3S 9914   5.787   3.603   6.389  1.2806 -0.2520  1.3904
   99SAPS   C24 9915   5.779   3.400   6.459 -0.3635  0.1001 -0.1672
   99SAPS   H4R 9916   5.847   3.451   6.531 -1.2866  1.1176 -0.0037
   99SAPS   H4S 9917   5.839   3.334   6.392 -2.8201 -1.6391 -0.7863
   99SAPS   C25 9918   5.667   3.313   6.510  0.4299 -0.1698  0.8694
   99SAPS   H5R 9919   5.609   3.258   6.434  1.2632  0.2806 -0.1156
   99SAPS   C26 9920   5.642   3.293   6.643  0.1379  0.2148  0.4034
   99SAPS   H6R 9921   5.558   3.227   6.670  0.7627 -1.0283 -0.5901
   99SAPS   C27 9922   5.704   3.359   6.760  0.7266 -0.7740  0.3392
   99SAPS   H7R 9923   5.621   3.372   6.832 -1.9086 -2.1275 -2.2142
   99SAPS   H7S 9924   5.737   3.462   6.734 -1.7856 -0.2726 -1.2041
   99SAPS   C28 9925   5.825   3.284   6.811 -0.1521 -0.3583 -0.3213
   99SAPS   H8R 9926   5.875   3.211   6.746 -0.6764 -0.5265 -0.5430
   99SAPS   C29 9927   5.882   3.298   6.935 -0.5490  0.2698  0.9124
   99SAPS   H9R 9928   5.966   3.229   6.953 -0.5528  0.3379  1.1898
   99SAPS  C210 9929   5.849   3.406   7.037  0.6448  0.6884 -0.0119
   99SAPS  H10R 9930   5.794   3.350   7.116 -2.2156  0.8982 -1.6877
   99SAPS  H10S 9931   5.775   3.478   6.996 -0.0441  0.9589  1.6501
   99SAPS  C211 9932   5.969   3.469   7.102 -0.2502  0.5956 -1.2416
   99SAPS  H11R 9933   6.019   3.548   7.044 -0.9146  1.8931 -0.1138
   99SAPS  C212 9934   6.033   3.424   7.224  0.1356  0.2728  0.1453
   99SAPS  H12R 9935   6.113   3.487   7.264 -0.2378 -0.0585  1.4411
   99SAPS  C213 9936   5.996   3.319   7.329  0.2910 -0.0266 -0.0016
   99SAPS  H13R 9937   5.888   3.296   7.342  0.4142  0.0968  1.3399
   99SAPS  H13S 9938   6.023   3.363   7.427  0.9230 -1.4686  0.5123
   99SAPS  C214 9939   6.064   3.187   7.322  0.0426 -0.2757  0.0257
   99SAPS  H14R 9940   6.077   3.141   7.223  0.7684 -1.0571  0.4563
   99SAPS  C215 9941   6.095   3.110   7.424 -0.6052 -0.2916 -0.1413
   99SAPS  H15R 9942   6.156   3.020   7.403  1.7168  0.2487  3.5243
   99SAPS  C216 9943   6.089   3.138   7.570 -0.4714 -1.1792  0.1835
   99SAPS  H16R 9944   6.084   3.245   7.600 -1.5464 -0.4442 -2.4011
   99SAPS  H16S 9945   6.191   3.110   7.606  0.0569 -0.9343 -1.0414
   99SAPS  C217 9946   5.976   3.066   7.641  0.0857 -0.1362  0.1676
   99SAPS  H17R 9947   5.979   2.958   7.616  0.7638 -0.1743  0.3926
   99SAPS  H17S 9948   5.880   3.113   7.612 -0.7933 -2.4880 -0.8828
   99SAPS  C218 9949   5.995   3.065   7.791 -0.8494  0.1339 -0.1776
   99SAPS  H18R 9950   6.093   3.019   7.813 -1.4313 -1.3910 -0.6255
   99SAPS  H18S 9951   5.927   2.991   7.840  2.0186 -1.1623  2.1160
   99SAPS  C219 9952   5.974   3.192   7.864  0.0275  0.1880 -0.0724
   99SAPS  H19R 9953   5.880   3.248   7.848  1.2373  2.3411 -0.0117
   99SAPS  H19S 9954   6.056   3.266   7.853 -0.6709  1.3989  2.1789
   99SAPS  C220 9955   5.985   3.169   8.017  0.2835 -0.1633 -0.0726
   99SAPS  H20R 9956   6.071   3.107   8.049  1.5679 -1.2904 -4.9028
   99SAPS  H20S 9957   5.896   3.118   8.060 -0.2099  0.8058  0.0835
   99SAPS  H20T 9958   5.990   3.267   8.070  2.3765  0.5322 -1.4514
   99SAPS   C33 9959   5.214   3.570   6.554 -0.0357  0.8235  0.2763
   99SAPS   H3X 9960   5.104   3.552   6.557  0.0579  0.2953  0.6953
   99SAPS   H3Y 9961   5.238   3.653   6.483  0.9100  0.6183  0.3396
   99SAPS   C34 9962   5.280   3.610   6.686 -0.7094 -0.5432 -0.2688
   99SAPS   H4X 9963   5.252   3.706   6.735 -1.7662 -1.2559  0.5826
   99SAPS   H4Y 9964   5.391   3.608   6.683 -0.6646 -1.8942  0.9607
   99SAPS   C35 9965   5.239   3.513   6.805  0.7170  0.2300  0.1544
   99SAPS   H5X 9966   5.239   3.407   6.772  0.4533 -0.4265  2.1802
   99SAPS   H5Y 9967   5.132   3.537   6.821  1.0170  2.2520 -0.5690
   99SAPS   C36 9968   5.328   3.530   6.924 -0.3842  0.0323 -0.3912
   99SAPS   H6X 9969   5.324   3.637   6.952  1.0083 -0.4109  1.7191
   99SAPS   H6Y 9970   5.437   3.515   6.910 -0.0330  0.6604  1.4258
   99SAPS   C37 9971   5.283   3.435   7.038  0.0415  0.0077 -0.3313
   99SAPS   H7X 9972   5.331   3.337   7.016  0.8964  0.7324 -1.9366
   99SAPS   H7Y 9973   5.172   3.438   7.025  0.3479  1.9695 -3.7712
   99SAPS   C38 9974   5.333   3.483   7.175  0.2676 -0.6924  0.1876
   99SAPS   H8X 9975   5.322   3.594   7.179  1.1992 -0.4447 -2.2806
   99SAPS   H8Y 9976   5.443   3.472   7.165  0.5239  2.1532 -1.0805
   99SAPS   C39 9977   5.267   3.419   7.299  0.2746 -0.5666 -0.5369
   99SAPS   H9X 9978   5.160   3.447   7.310  0.1406 -1.6230  1.1159
   99SAPS   H9Y 9979   5.302   3.466   7.393  1.0818  0.0171 -1.1129
   99SAPS  C310 9980   5.277   3.263   7.321  0.6822  0.3963 -0.4553
   99SAPS  H10X 9981   5.220   3.215   7.239 -1.9973  0.0325  1.4864
   99SAPS  H10Y 9982   5.229   3.235   7.417 -2.2393 -1.9936 -2.4222
   99SAPS  C311 9983   5.425   3.220   7.319 -0.6531 -0.1182  0.5725
   99SAPS  H11X 9984   5.487   3.304   7.357 -0.7497  0.6524 -0.9183
   99SAPS  H11Y 9985   5.458   3.207   7.214  3.5664  1.3151  1.5016
   99SAPS  C312 9986   5.456   3.091   7.388  0.0172 -0.3384  1.1970
   99SAPS  H12X 9987   5.399   3.004   7.350 -1.2252  0.4237  1.2717
   99SAPS  H12Y 9988   5.415   3.100   7.491 -0.8190  1.1932  0.7561
   99SAPS  C313 9989   5.604   3.062   7.387  0.1926  0.1262  0.4511
   99SAPS  H13X 9990   5.641   3.133   7.465 -2.5703  3.7286 -1.2320
   99SAPS  H13Y 9991   5.651   3.089   7.290 -2.1987  2.7639 -0.1024
   99SAPS  C314 9992   5.633   2.913   7.436  0.2316  0.1187 -0.2959
   99SAPS  H14X 9993   5.744   2.909   7.435  0.2742 -0.4051 -3.9229
   99SAPS  H14Y 9994   5.593   2.840   7.363  0.1034 -2.5149  2.2224
   99SAPS  C315 9995   5.579   2.881   7.578 -0.1642  0.0297  0.3432
   99SAPS  H15X 9996   5.603   2.773   7.593 -1.5612 -0.4638 -0.7218
   99SAPS  H15Y 9997   5.467   2.882   7.577 -0.2137 -1.6399 -0.7602
   99SAPS  C316 9998   5.656   2.958   7.681  0.0887 -0.5186  0.7108
   99SAPS  H16X 9999   5.679   3.064   7.656  0.0833 -1.1380 -2.2089
   99SAPS  H16Y10000   5.754   2.907   7.694  1.4953  1.3137 -1.8125
   99SAPS  C31710001   5.571   2.945   7.817 -0.5305  0.4131  1.0154
   99SAPS  H17X10002   5.521   2.846   7.829 -0.5790  0.4076  0.7714
   99SAPS  H17Y10003   5.487   3.015   7.795 -1.9981 -1.0704  1.6093
   99SAPS  C31810004   5.655   2.978   7.934  0.1867 -0.0264 -0.8631
   99SAPS  H18X10005   5.599   2.957   8.028  0.1292  0.0914 -0.8719
   99SAPS  H18Y10006   5.691   3.083   7.937 -0.0513  0.0276  0.6470
   99SAPS  H18Z10007   5.748   2.918   7.943 -0.5132 -0.9175  1.0097
  100SAPS     N10008   2.048   2.529   5.973 -0.0256  0.1098  0.1407
  100SAPS   HN110009   2.007   2.605   6.031 -0.3941  0.6194 -0.7516
  100SAPS   HN210010   2.152   2.530   5.970  0.0158  0.9655  1.3637
  100SAPS   HN310011   2.030   2.543   5.871  2.0365 -1.4677 -0.4994
  100SAPS   C1210012   1.991   2.389   6.009 -0.1033  0.5909 -0.0867
  100SAPS  H12A10013   1.999   2.383   6.117  0.1883  2.4747  0.0165
  100SAPS   C1310014   1.846   2.364   5.964  0.1489  1.0327  0.2972
  100SAPS  O13A10015   1.786   2.452   5.895 -0.1912 -0.2520  0.4190
  100SAPS  O13B10016   1.779   2.274   6.021  0.3877  0.1660  0.1322
  100SAPS   C1110017   2.088   2.279   5.959 -0.2633  0.2395 -0.1020
  100SAPS  H11A10018   2.102   2.294   5.850 -0.2726 -0.4321 -0.1997
  100SAPS  H11B10019   2.064   2.172   5.977  2.5210 -0.9714 -2.7811
  100SAPS     P10020   2.280   2.204   6.114  0.0748 -0.0444 -0.0673
  100SAPS   O1310021   2.188   2.169   6.221 -0.2164  0.2537  0.4405
  100SAPS   O1410022   2.325   2.099   6.023 -0.3180 -0.0062 -0.5427
  100SAPS   O1210023   2.214   2.311   6.022 -0.0936  0.0978 -0.1519
  100SAPS   O1110024   2.399   2.285   6.170  0.2958  0.3703 -0.0769
  100SAPS    C110025   2.518   2.208   6.205  0.7252 -0.1829 -0.0294
  100SAPS    HA10026   2.527   2.108   6.157 -0.3120 -1.4325  2.1771
  100SAPS    HB10027   2.608   2.264   6.172  0.2405 -0.5906 -2.2090
  100SAPS    C210028   2.553   2.183   6.360  0.3721  0.1049  0.5494
  100SAPS    HS10029   2.650   2.132   6.376 -0.0072 -0.7911  0.1172
  100SAPS   O2110030   2.433   2.117   6.407 -0.4979 -0.3727 -0.5478
  100SAPS   C2110031   2.439   1.982   6.392 -0.5769 -0.4150 -0.0986
  100SAPS   O2210032   2.526   1.919   6.335  0.0390  0.2230  0.3981
  100SAPS   C2210033   2.306   1.919   6.435  0.0474 -0.0589  0.0675
  100SAPS   H2R10034   2.243   2.000   6.478  0.0298 -1.0676  2.0353
  100SAPS   H2S10035   2.252   1.890   6.343 -2.3635 -0.6960  1.5849
  100SAPS    C310036   2.556   2.320   6.441  0.4946 -0.1782 -0.6304
  100SAPS    HX10037   2.460   2.369   6.417  0.0037 -1.6693 -1.8555
  100SAPS    HY10038   2.650   2.371   6.412  0.9121  2.4478  4.2706
  100SAPS   O3110039   2.571   2.300   6.585  0.3483  0.0446 -0.0145
  100SAPS   C3110040   2.466   2.300   6.659  0.1989 -0.3578  0.0822
  100SAPS   O3210041   2.353   2.327   6.621 -0.1572  0.1456 -0.2922
  100SAPS   C3210042   2.505   2.273   6.810  0.0920 -0.7946  0.6426
  100SAPS   H2X10043   2.589   2.342   6.830 -1.1004  1.0326 -0.3631
  100SAPS   H2Y10044   2.553   2.173   6.804  1.5182 -0.1440  0.8263
  100SAPS   C2310045   2.324   1.801   6.528 -0.1906  0.6682  0.1438
  100SAPS   H3R10046   2.381   1.718   6.481 -0.9637  0.5119 -0.5324
  100SAPS   H3S10047   2.225   1.762   6.559  0.7572  0.2561  2.9864
  100SAPS   C2410048   2.390   1.823   6.659  0.5250 -0.1747  0.4823
  100SAPS   H4R10049   2.498   1.842   6.638  0.2342  0.8196 -0.2084
  100SAPS   H4S10050   2.400   1.731   6.721  2.3818  0.3273  0.9827
  100SAPS   C2510051   2.332   1.929   6.746  0.0858 -0.2744 -0.1929
  100SAPS   H5R10052   2.340   2.030   6.702  2.8740  0.4239  1.6728
  100SAPS   C2610053   2.273   1.925   6.870  0.2092 -0.2977 -0.2150
  100SAPS   H6R10054   2.255   2.023   6.916 -2.5210 -0.0799 -1.5534
  100SAPS   C2710055   2.241   1.821   6.969 -0.9928 -0.0430 -0.0377
  100SAPS   H7R10056   2.207   1.731   6.913  1.3183 -1.6333  0.9883
  100SAPS   H7S10057   2.146   1.850   7.019  0.4104  1.0398  2.1896
  100SAPS   C2810058   2.358   1.780   7.059 -0.3200  0.0384 -0.4713
  100SAPS   H8R10059   2.418   1.696   7.023  0.2252  0.0401  0.4058
  100SAPS   C2910060   2.382   1.825   7.182 -0.0918 -0.5410 -0.5764
  100SAPS   H9R10061   2.456   1.770   7.241 -0.7762 -2.8725 -1.7695
  100SAPS  C21010062   2.294   1.915   7.257 -0.2236 -0.5556 -0.3102
  100SAPS  H10R10063   2.240   1.981   7.186  0.3748  1.2081  0.8015
  100SAPS  H10S10064   2.349   1.994   7.313 -1.6659 -0.6333  1.3195
  100SAPS  C21110065   2.205   1.844   7.353  0.1133  0.0357  0.0628
  100SAPS  H11R10066   2.257   1.775   7.421 -0.2450  0.6300  0.9663
  100SAPS  C21210067   2.067   1.839   7.354  0.1293  0.5837 -0.1378
  100SAPS  H12R10068   2.024   1.772   7.431 -0.5916  1.6641  0.4131
  100SAPS  C21310069   1.969   1.914   7.274  0.0283 -0.1209 -0.3383
  100SAPS  H13R10070   2.019   1.990   7.210  2.4387 -1.3633 -0.0563
  100SAPS  H13S10071   1.911   1.979   7.342 -0.3740 -0.9107  0.0828
  100SAPS  C21410072   1.889   1.813   7.204  0.5362  0.2801 -0.2270
  100SAPS  H14R10073   1.934   1.747   7.128  2.2866  0.4028  0.6486
  100SAPS  C21510074   1.759   1.778   7.224  0.4225  0.8122 -0.1672
  100SAPS  H15R10075   1.713   1.697   7.165  0.3561  0.4312  0.4087
  100SAPS  C21610076   1.657   1.843   7.309 -1.0283  0.1414 -0.1699
  100SAPS  H16R10077   1.688   1.945   7.338 -1.6441 -0.0672  1.3152
  100SAPS  H16S10078   1.674   1.792   7.406 -1.6755  0.4265  0.0935
  100SAPS  C21710079   1.505   1.842   7.273  0.0520  0.0701  0.2788
  100SAPS  H17R10080   1.460   1.918   7.340 -1.7320 -0.5670 -0.1472
  100SAPS  H17S10081   1.471   1.739   7.299  1.8976 -0.1730  2.0548
  100SAPS  C21810082   1.479   1.885   7.131  0.0357  0.1730  0.3055
  100SAPS  H18R10083   1.368   1.888   7.119  0.0089 -2.4521 -0.8794
  100SAPS  H18S10084   1.515   1.806   7.062  0.2364  2.3545 -2.2948
  100SAPS  C21910085   1.535   2.023   7.085 -0.6168 -0.4655 -0.0106
  100SAPS  H19R10086   1.643   2.004   7.068 -0.4442  0.7616 -0.3273
  100SAPS  H19S10087   1.519   2.098   7.165 -0.2575 -1.5192  1.0733
  100SAPS  C22010088   1.473   2.070   6.950  0.1064  0.0478 -0.1401
  100SAPS  H20R10089   1.498   2.178   6.942 -0.7262  0.2381 -0.2982
  100SAPS  H20S10090   1.364   2.048   6.947  0.4703 -1.9381 -0.1427
  100SAPS  H20T10091   1.503   2.005   6.865 -1.7629 -0.3432 -0.5482
  100SAPS   C3310092   2.383   2.291   6.908 -0.7131 -0.1106 -0.4230
  100SAPS   H3X10093   2.295   2.240   6.864 -0.2022 -1.9762  0.6180
  100SAPS   H3Y10094   2.359   2.400   6.904  2.0234  0.7211  1.9891
  100SAPS   C3410095   2.434   2.258   7.054  0.7357 -0.6235  0.5190
  100SAPS   H4X10096   2.531   2.311   7.065  0.6707 -0.5673  0.8181
  100SAPS   H4Y10097   2.445   2.147   7.051  0.1756 -0.7012 -3.2549
  100SAPS   C3510098   2.333   2.302   7.155 -0.2346 -0.7858 -0.8144
  100SAPS   H5X10099   2.252   2.225   7.151  1.1792 -2.5253  1.3570
  100SAPS   H5Y10100   2.289   2.401   7.134 -0.5090 -0.5549  0.6891
  100SAPS   C3610101   2.389   2.300   7.302 -0.1800  0.0966  0.2704
  100SAPS   H6X10102   2.458   2.387   7.312  0.8942 -0.7855  0.7560
  100SAPS   H6Y10103   2.427   2.198   7.321 -1.8885 -0.0842  3.3388
  100SAPS   C3710104   2.278   2.316   7.409  0.0341  0.0163 -0.0810
  100SAPS   H7X10105   2.207   2.232   7.391  0.2196 -0.1856  0.1325
  100SAPS   H7Y10106   2.223   2.410   7.389  0.0459  0.1730  0.6139
  100SAPS   C3810107   2.322   2.310   7.554  0.4830 -0.2642 -0.7089
  100SAPS   H8X10108   2.405   2.383   7.559 -0.5131  0.9902 -1.7977
  100SAPS   H8Y10109   2.357   2.206   7.573 -1.6455 -1.0901 -0.9995
  100SAPS   C3910110   2.213   2.334   7.665 -0.2283 -0.2805  0.7241
  100SAPS   H9X10111   2.123   2.271   7.651 -0.8554  0.9991 -1.7234
  100SAPS   H9Y10112   2.183   2.440   7.649 -0.0942 -0.3457  0.0066
  100SAPS  C31010113   2.270   2.325   7.808  0.7763  1.3643 -0.3602
  100SAPS  H10X10114   2.357   2.394   7.804  0.7989  1.3121 -0.8632
  100SAPS  H10Y10115   2.306   2.221   7.823 -1.0183  0.4092 -2.1159
  100SAPS  C31110116   2.175   2.359   7.924  0.3156 -0.6077 -0.1079
  100SAPS  H11X10117   2.090   2.289   7.907 -0.9582  1.3121 -2.2382
  100SAPS  H11Y10118   2.138   2.463   7.908  1.3743  0.3440  2.9151
  100SAPS  C31210119   2.227   2.330   8.064 -0.3265  0.3045 -0.4641
  100SAPS  H12X10120   2.243   2.222   8.081  2.1435  0.3180 -2.2000
  100SAPS  H12Y10121   2.154   2.373   8.136  0.5121  3.7912 -1.4769
  100SAPS  C31310122   2.352   2.414   8.104  0.1982  0.1411  0.5136
  100SAPS  H13X10123   2.329   2.522   8.093  3.0398  1.1221  2.7784
  100SAPS  H13Y10124   2.439   2.387   8.039 -1.3679 -0.0016 -1.6558
  100SAPS  C31410125   2.395   2.390   8.247  0.1290 -0.7525  0.5433
  100SAPS  H14X10126   2.441   2.291   8.266 -1.7376 -1.4794  1.5886
  100SAPS  H14Y10127   2.303   2.389   8.309 -1.0048  0.6576 -1.0204
  100SAPS  C31510128   2.491   2.507   8.289 -0.7853  0.4134 -0.5274
  100SAPS  H15X10129   2.445   2.608   8.293 -2.5975 -0.4091  0.9169
  100SAPS  H15Y10130   2.579   2.515   8.222  1.4317 -1.1743  1.9549
  100SAPS  C31610131   2.538   2.488   8.431  0.4492 -0.0219 -0.6542
  100SAPS  H16X10132   2.630   2.547   8.451  0.4656 -0.7850  1.9207
  100SAPS  H16Y10133   2.565   2.382   8.448  0.1593  0.0137  0.0668
  100SAPS  C31710134   2.438   2.527   8.540  0.0791  0.2355 -0.3636
  100SAPS  H17X10135   2.359   2.449   8.545 -0.0802  0.4436  0.5216
  100SAPS  H17Y10136   2.392   2.626   8.520 -0.8179 -0.1155 -0.0768
  100SAPS  C31810137   2.504   2.512   8.672 -0.5029  0.5350 -0.4355
  100SAPS  H18X10138   2.524   2.406   8.700  1.3502  1.2988  1.3945
  100SAPS  H18Y10139   2.425   2.543   8.743 -0.6737 -1.0555  0.1084
  100SAPS  H18Z10140   2.599   2.568   8.682 -0.0816 -0.2355 -0.0068
  101OSM      N10141   2.985   2.866  11.175  0.1908 -0.4039 -0.0975
  101OSM    C1510142   2.990   2.965  11.071  0.1952  0.3435 -0.0391
  101OSM   H15A10143   3.042   3.059  11.083 -0.3481  0.4853  1.3498
  101OSM   H15B10144   2.895   2.996  11.029  0.8503  1.0976 -0.9968
  101OSM   H15C10145   3.040   2.923  10.985  1.1619 -1.0944  1.1908
  101OSM    C1410146   2.917   2.925  11.294 -0.5266 -0.2176 -0.6771
  101OSM   H14A10147   2.819   2.971  11.284 -0.2811  1.2135  2.3189
  101OSM   H14B10148   2.977   3.009  11.325  0.7056 -1.4577  0.3680
  101OSM   H14C10149   2.920   2.848  11.369  0.4951 -1.0071 -1.4997
  101OSM    C1310150   2.904   2.751  11.143  0.1458  0.2127  0.2056
  101OSM   H13A10151   2.916   2.665  11.207  1.7816  0.6368  0.5110
  101OSM   H13B10152   2.919   2.708  11.046 -2.4112 -0.6099  0.0962
  101OSM   H13C10153   2.800   2.781  11.148 -0.2808 -1.4106  2.5582
  101OSM    C1210154   3.124   2.812  11.209  0.5787 -0.1771 -0.1284
  101OSM   H12A10155   3.117   2.744  11.292  1.2507 -0.7928 -0.5626
  101OSM   H12B10156   3.182   2.895  11.247  1.0884 -0.8625  0.6270
  101OSM    C1110157   3.210   2.752  11.098 -0.0716 -0.5006  0.0001
  101OSM   H11A10158   3.155   2.665  11.054 -1.3945  1.0701 -1.6403
  101OSM   H11B10159   3.300   2.709  11.146 -0.0787  0.0415  0.5132
  101OSM      P10160   3.376   2.904  10.969  0.2063 -0.4673 -0.3102
  101OSM    O1310161   3.384   3.051  11.006  0.0580  0.2422  1.1572
  101OSM    O1410162   3.487   2.826  11.027  0.4361  0.2520 -0.1033
  101OSM    O1110163   3.395   2.874  10.815  0.1671 -0.2575 -0.8474
  101OSM    O1210164   3.239   2.844  10.994 -0.0699 -0.4914 -0.3317
  101OSM    C1S10165   3.287   2.829  10.741  0.5367  0.0956 -0.4282
  101OSM    H1S10166   3.211   2.910  10.747  0.4016  0.0461 -1.3495
  101OSM    H1T10167   3.234   2.739  10.778 -0.6522 -0.0238 -2.2761
  101OSM     NF10168   3.208   2.803  10.515  0.2388 -0.5379  0.2837
  101OSM    HNF10169   3.190   2.721  10.461 -0.8089  0.4135 -0.8686
  101OSM    C2S10170   3.318   2.811  10.590 -0.5100 -0.8500 -0.4781
  101OSM    H2S10171   3.362   2.910  10.565 -0.5966 -0.7177 -0.1129
  101OSM    C3S10172   3.427   2.701  10.565 -0.2872  0.7923  0.2541
  101OSM    H3S10173   3.378   2.601  10.558 -1.0674  1.1013  1.1504
  101OSM     O310174   3.523   2.703  10.668  0.3455 -0.9541  0.3112
  101OSM    HO310175   3.495   2.775  10.725  1.6028 -2.2097  2.6173
  101OSM    C4S10176   3.497   2.718  10.432  0.0054 -0.9135 -0.4052
  101OSM    H4S10177   3.536   2.821  10.423  0.6365 -1.0481  0.5972
  101OSM    C5S10178   3.490   2.642  10.317 -0.4302  0.0551 -0.2410
  101OSM    H5S10179   3.436   2.547  10.331 -2.8366  1.6608  2.2441
  101OSM    C6S10180   3.558   2.678  10.188 -0.3666 -0.0109  0.3592
  101OSM    H6S10181   3.621   2.769  10.195  0.4234 -0.5158 -0.0210
  101OSM    H6T10182   3.483   2.683  10.106  0.3370  0.7188 -0.2680
  101OSM    C7S10183   3.664   2.571  10.156 -0.3394 -0.5913  0.5314
  101OSM    H7S10184   3.604   2.481  10.135 -2.4448  0.9574 -0.4801
  101OSM    H7T10185   3.731   2.550  10.242 -1.8341 -0.1816  1.8438
  101OSM    C8S10186   3.745   2.598  10.028 -0.0843 -0.1672 -0.1065
  101OSM    H8S10187   3.799   2.510   9.987  3.9137  1.5876  0.9086
  101OSM    H8T10188   3.824   2.669  10.062 -0.1075 -1.2802  2.5382
  101OSM    C9S10189   3.668   2.653   9.899 -0.2939  0.1293  0.6347
  101OSM    H9S10190   3.631   2.753   9.930  0.3803 -0.0949  2.2964
  101OSM    H9T10191   3.573   2.595   9.896 -0.5032  0.4526  0.8787
  101OSM   C10S10192   3.752   2.641   9.771 -0.2186 -0.0075 -0.6554
  101OSM   H10S10193   3.759   2.531   9.755 -2.9273 -0.1810 -1.0481
  101OSM   H10T10194   3.850   2.684   9.799 -1.4463  0.7981  3.0488
  101OSM   C11S10195   3.682   2.706   9.652 -0.1482  0.1051 -0.0450
  101OSM   H11S10196   3.647   2.811   9.661 -2.1354 -0.6078  1.1422
  101OSM   H11T10197   3.593   2.641   9.638 -0.6347 -0.0529  2.9650
  101OSM   C12S10198   3.751   2.697   9.517  0.4395  0.0485  0.1155
  101OSM   H12S10199   3.781   2.593   9.495  1.3186 -0.0976  1.7988
  101OSM   H12T10200   3.841   2.762   9.518 -0.9402  2.0640  0.3345
  101OSM   C13S10201   3.669   2.755   9.399 -0.9675 -0.1649 -0.5542
  101OSM   H13S10202   3.659   2.865   9.415 -2.4648 -0.2603 -0.7214
  101OSM   H13T10203   3.571   2.703   9.399 -0.6559 -0.7657 -1.4988
  101OSM   C14S10204   3.741   2.741   9.256 -0.3924  0.2439 -0.3922
  101OSM   H14S10205   3.719   2.643   9.210  1.2835 -0.8655  1.0450
  101OSM   H14T10206   3.851   2.734   9.272 -0.4284 -1.4613 -0.7275
  101OSM   C15S10207   3.704   2.849   9.156  0.1067 -0.5408 -0.0864
  101OSM   H15S10208   3.739   2.946   9.198  0.2022  0.0704 -1.5446
  101OSM   H15T10209   3.595   2.861   9.137  0.2314  0.3955 -0.2814
  101OSM   C16S10210   3.766   2.831   9.019 -0.2140 -0.3385 -0.2132
  101OSM   H16S10211   3.760   2.721   9.002 -1.9058 -0.2977 -0.0314
  101OSM   H16T10212   3.867   2.876   9.009  0.0509 -0.4813  1.5092
  101OSM   C17S10213   3.681   2.892   8.903 -0.0057 -0.3260  0.3746
  101OSM   H17S10214   3.669   3.001   8.923 -0.1037  0.0074 -1.3503
  101OSM   H17T10215   3.576   2.857   8.915 -0.4363  0.7513 -0.1186
  101OSM   C18S10216   3.735   2.866   8.761 -0.2937  0.4732  0.2342
  101OSM   H18S10217   3.845   2.883   8.755  0.0030  0.4359  3.7351
  101OSM   H18T10218   3.678   2.929   8.689  0.9813  1.0875 -0.2732
  101OSM   H18U10219   3.729   2.759   8.729  0.5493 -0.1232  1.9395
  101OSM    C1F10220   3.121   2.908  10.503  0.1261 -0.0709  0.0776
  101OSM     OF10221   3.145   3.014  10.560  0.2010 -0.0932  0.1811
  101OSM    C2F10222   2.999   2.877  10.426 -0.1042  0.4084  0.0252
  101OSM    H2F10223   2.918   2.841  10.492 -3.0122  1.0595 -2.9141
  101OSM    H2G10224   3.022   2.798  10.351 -2.2116  1.1033 -1.4628
  101OSM    C3F10225   2.951   3.001  10.338  1.2640  0.7635 -0.0322
  101OSM    H3F10226   3.021   3.032  10.257 -1.3023  1.1365 -2.2279
  101OSM    H3G10227   2.943   3.092  10.402 -0.9933  1.4957 -1.2689
  101OSM    C4F10228   2.805   2.985  10.296 -0.9332  0.6946  0.2975
  101OSM    H4F10229   2.736   3.004  10.382  0.2999  0.4289  1.3759
  101OSM    H4G10230   2.774   2.882  10.268  0.3992  0.7257 -1.4037
  101OSM    C5F10231   2.789   3.078  10.175 -0.0470 -0.0898 -0.3256
  101OSM    H5F10232   2.806   3.184  10.202 -1.5350 -0.1151  0.8859
  101OSM    H5G10233   2.682   3.081  10.146 -0.1075  3.3330 -0.1560
  101OSM    C6F10234   2.852   3.039  10.035 -0.6272 -0.0406  0.0432
  101OSM    H6F10235   2.836   2.933  10.004  0.0782  0.4563 -2.2160
  101OSM    H6G10236   2.961   3.052  10.048 -0.1380 -1.3940 -2.1068
  101OSM    C7F10237   2.809   3.117   9.907 -0.5576 -0.3372 -0.5903
  101OSM    H7F10238   2.820   3.227   9.915  0.4300 -0.4629 -0.0726
  101OSM    H7G10239   2.703   3.093   9.886 -0.8632  0.7671 -0.3650
  101OSM    C8F10240   2.887   3.070   9.775  0.5167  0.5212  0.3934
  101OSM    H8F10241   2.876   2.960   9.767  1.6854  0.4779 -1.0692
  101OSM    H8G10242   2.995   3.077   9.802  0.5929 -1.7147  0.8735
  101OSM    C9F10243   2.856   3.153   9.656  0.5637  0.0020  0.6381
  101OSM    H9F10244   2.899   3.255   9.654 -0.4423  0.4314 -0.0996
  101OSM   C10F10245   2.768   3.117   9.555 -0.4717  0.4314  0.1000
  101OSM   H10F10246   2.736   3.189   9.478 -0.7529 -1.2272 -1.3929
  101OSM   C11F10247   2.704   2.988   9.541  0.5287 -0.5061 -0.0857
  101OSM   H11F10248   2.599   2.995   9.504 -0.1507  1.2092  1.9816
  101OSM   H11G10249   2.691   2.926   9.632 -1.2753 -0.8282 -0.5295
  101OSM   C12F10250   2.775   2.894   9.441  0.0794  0.5041  0.0286
  101OSM   H12F10251   2.731   2.792   9.452  0.9446  0.2815  1.7127
  101OSM   H12G10252   2.877   2.893   9.484 -0.3236  1.4290  1.0624
  101OSM   C13F10253   2.791   2.937   9.287  0.7070 -0.5100 -0.1757
  101OSM   H13F10254   2.824   2.854   9.221 -3.4807  0.5057 -4.0336
  101OSM   H13G10255   2.861   3.023   9.288  1.0356 -0.7851  0.4520
  101OSM   C14F10256   2.654   2.990   9.235 -1.1202 -0.3832  0.5252
  101OSM   H14F10257   2.633   3.090   9.277 -1.1122  0.4782 -1.4294
  101OSM   H14G10258   2.571   2.918   9.251  0.7542 -2.8038  0.0188
  101OSM   C15F10259   2.656   3.002   9.075  0.5340 -0.6102 -0.0072
  101OSM   H15F10260   2.756   3.040   9.043 -0.4500  1.0715 -1.2371
  101OSM   H15G10261   2.576   3.077   9.057  0.2133 -0.9083  0.1602
  101OSM   C16F10262   2.603   2.878   8.992  0.4863 -0.3939  0.2059
  101OSM   H16F10263   2.508   2.850   9.042 -0.4676  0.3209 -1.1375
  101OSM   H16G10264   2.675   2.795   9.006  1.5011  0.1897 -1.3495
  101OSM   C17F10265   2.581   2.905   8.839 -0.6289 -0.1923  0.4636
  101OSM   H17F10266   2.476   2.939   8.825 -0.2104  1.0954  0.2643
  101OSM   H17G10267   2.588   2.809   8.784 -1.4843  0.1526 -0.2691
  101OSM   C18F10268   2.662   3.033   8.781  0.1854 -0.3082 -0.5578
  101OSM   H18F10269   2.766   3.033   8.820  0.5639 -2.0245 -1.4676
  101OSM   H18G10270   2.611   3.124   8.819  1.2444  0.1811 -0.2884
  101OSM   H18H10271   2.670   3.027   8.671 -0.1561 -0.5436 -0.5705
  102OSM      N10272   0.981   2.236  10.530 -0.2164 -0.2048 -0.5530
  102OSM    C1510273   0.900   2.280  10.420 -0.0083 -0.1365  0.0183
  102OSM   H15A10274   0.935   2.365  10.364 -2.9432  0.4541 -1.1150
  102OSM   H15B10275   0.798   2.299  10.451 -0.3282 -1.4161 -0.1648
  102OSM   H15C10276   0.896   2.205  10.343  2.6440 -0.2934 -0.0513
  102OSM    C1410277   0.920   2.118  10.595 -0.1069  0.3825  0.2642
  102OSM   H14A10278   0.909   2.037  10.524 -1.0371 -0.7468  1.6339
  102OSM   H14B10279   0.818   2.132  10.628  0.0344 -1.6045  1.7902
  102OSM   H14C10280   0.983   2.086  10.676  0.4051 -2.0225 -0.9915
  102OSM    C1310281   1.121   2.198  10.480 -0.2662  0.1438 -0.1009
  102OSM   H13A10282   1.182   2.174  10.566 -0.6124  3.0045  1.0598
  102OSM   H13B10283   1.164   2.279  10.422  3.4749 -0.2830  1.7939
  102OSM   H13C10284   1.111   2.114  10.413  0.7052 -0.1877  0.1646
  102OSM    C1210285   1.003   2.349  10.629  0.0504 -0.1144  0.2676
  102OSM   H12A10286   1.061   2.419  10.571 -1.2296  0.6002 -0.1955
  102OSM   H12B10287   1.077   2.316  10.700 -1.5098 -2.1385  1.0399
  102OSM    C1110288   0.886   2.395  10.711  0.0743 -0.1121  0.0672
  102OSM   H11A10289   0.873   2.321  10.793  2.0855 -1.5266 -0.8173
  102OSM   H11B10290   0.791   2.386  10.654 -0.6431 -0.1623  1.2440
  102OSM      P10291   0.873   2.652  10.675  0.2407 -0.2853 -0.0761
  102OSM    O1310292   0.736   2.638  10.619  0.1742 -0.5530  0.9022
  102OSM    O1410293   0.897   2.764  10.766 -0.1679  0.4152  0.1770
  102OSM    O1110294   0.975   2.646  10.558 -0.8698 -0.3882 -0.4660
  102OSM    O1210295   0.906   2.524  10.760  0.3703 -0.0010  0.5576
  102OSM    C1S10296   0.912   2.666  10.423  0.1239 -0.4271  0.0031
  102OSM    H1S10297   0.852   2.760  10.420 -0.1568 -0.5812  0.5890
  102OSM    H1T10298   0.848   2.577  10.405 -0.8372  0.2592 -0.0740
  102OSM     NF10299   0.953   2.675  10.177 -0.0122 -0.2930 -0.2114
  102OSM    HNF10300   0.944   2.590  10.126 -0.1484 -0.5743  0.2703
  102OSM    C2S10301   1.009   2.673  10.314 -0.2887  0.4346 -0.9762
  102OSM    H2S10302   1.054   2.773  10.331  0.3839 -0.0700  0.3599
  102OSM    C3S10303   1.120   2.560  10.334 -0.1352 -0.1290  0.2493
  102OSM    H3S10304   1.070   2.465  10.306  0.7755  0.1225 -2.4633
  102OSM     O310305   1.180   2.544  10.457 -0.0607  0.2598 -0.3640
  102OSM    HO310306   1.123   2.602  10.509  0.2830  0.8811 -0.6724
  102OSM    C4S10307   1.231   2.580  10.239 -0.2011 -0.0442  0.0829
  102OSM    H4S10308   1.292   2.671  10.239 -2.5359  1.6127 -0.0627
  102OSM    C5S10309   1.276   2.485  10.153 -0.0894  0.0959 -0.3469
  102OSM    H5S10310   1.225   2.388  10.153 -0.6857  0.3325  2.1690
  102OSM    C6S10311   1.389   2.494  10.055 -0.8471 -0.3471 -0.9021
  102OSM    H6S10312   1.471   2.432  10.098  0.2028 -0.4753 -2.9533
  102OSM    H6T10313   1.430   2.597  10.041 -0.7130 -0.6163 -2.7151
  102OSM    C7S10314   1.362   2.435   9.915  0.1463  0.7002 -0.1598
  102OSM    H7S10315   1.270   2.479   9.871 -0.3852 -0.0605  0.1674
  102OSM    H7T10316   1.347   2.325   9.920  0.8140  0.6343  0.4462
  102OSM    C8S10317   1.484   2.452   9.824  0.4271  0.2657 -0.4362
  102OSM    H8S10318   1.561   2.397   9.882  0.3829 -2.3258 -2.6206
  102OSM    H8T10319   1.506   2.560   9.808 -0.7852  0.7000  0.6632
  102OSM    C9S10320   1.481   2.369   9.689 -0.2959  0.2023  0.9939
  102OSM    H9S10321   1.414   2.281   9.699  0.9194 -0.7391  0.9725
  102OSM    H9T10322   1.583   2.327   9.684  0.4152  1.9899 -1.1555
  102OSM   C10S10323   1.449   2.446   9.559  0.9151  0.5384  0.1204
  102OSM   H10S10324   1.507   2.541   9.567  1.2858  0.2075  1.7050
  102OSM   H10T10325   1.342   2.476   9.565  1.6433  3.2361  1.1725
  102OSM   C11S10326   1.477   2.370   9.425  0.3896 -0.1659 -0.0445
  102OSM   H11S10327   1.408   2.283   9.421  1.6924 -1.2864  0.8203
  102OSM   H11T10328   1.580   2.328   9.415 -0.8145 -2.9232 -1.7287
  102OSM   C12S10329   1.455   2.471   9.310 -0.4094  0.3181  0.3072
  102OSM   H12S10330   1.522   2.558   9.328 -0.0408  0.4532 -1.5432
  102OSM   H12T10331   1.352   2.512   9.317 -0.7989 -0.2688 -1.5287
  102OSM   C13S10332   1.475   2.400   9.167  0.2141 -0.0943  0.0117
  102OSM   H13S10333   1.444   2.470   9.086  1.6823  1.5520  0.8022
  102OSM   H13T10334   1.406   2.313   9.165 -0.1367  0.1448  1.2110
  102OSM   C14S10335   1.617   2.356   9.127 -0.6202  0.7184 -0.0180
  102OSM   H14S10336   1.642   2.262   9.181  1.1083  1.0223 -0.2202
  102OSM   H14T10337   1.692   2.435   9.150  1.5314 -0.6337 -1.9064
  102OSM   C15S10338   1.615   2.329   8.976 -0.0103  0.4799  0.3798
  102OSM   H15S10339   1.586   2.424   8.925 -1.0526 -1.5259 -3.0956
  102OSM   H15T10340   1.534   2.258   8.949  0.6500  0.9217 -3.2924
  102OSM   C16S10341   1.748   2.285   8.921 -0.1335  0.6585 -0.4925
  102OSM   H16S10342   1.786   2.192   8.969 -1.1650  0.2838 -0.3768
  102OSM   H16T10343   1.819   2.370   8.928 -0.5182  0.9796 -0.4482
  102OSM   C17S10344   1.726   2.243   8.773  0.6713  0.1361  0.1844
  102OSM   H17S10345   1.680   2.326   8.716 -0.3817 -0.9263 -0.5582
  102OSM   H17T10346   1.659   2.155   8.773 -0.8741  1.2706  0.8841
  102OSM   C18S10347   1.853   2.198   8.694  0.6031  0.1857  0.1172
  102OSM   H18S10348   1.888   2.108   8.749 -0.8580 -1.2485 -1.1634
  102OSM   H18T10349   1.927   2.281   8.692 -1.5428  2.2546  1.2717
  102OSM   H18U10350   1.823   2.163   8.592 -1.6543  2.0708  0.0337
  102OSM    C1F10351   0.886   2.771  10.130 -0.2306 -0.2367  0.6064
  102OSM     OF10352   0.872   2.870  10.198 -0.2086 -0.1639 -0.4655
  102OSM    C2F10353   0.818   2.755  10.000 -0.3628  0.9057  0.3024
  102OSM    H2F10354   0.753   2.665   9.998 -0.9952  1.3627 -0.0057
  102OSM    H2G10355   0.887   2.743   9.914  0.4619  0.4118  1.0189
  102OSM    C3F10356   0.717   2.868   9.986 -0.1458 -0.0740  0.7347
  102OSM    H3F10357   0.780   2.958  10.003  2.5504 -1.9882  1.4807
  102OSM    H3G10358   0.651   2.877  10.074 -1.0579  0.6850 -0.0010
  102OSM    C4F10359   0.646   2.873   9.849 -0.3903 -0.0613  0.1873
  102OSM    H4F10360   0.563   2.947   9.840  0.7501  1.0481 -2.1847
  102OSM    H4G10361   0.614   2.771   9.819  0.9616 -0.4097 -0.1372
  102OSM    C5F10362   0.747   2.925   9.753  0.9379  0.2416 -0.6526
  102OSM    H5F10363   0.825   2.855   9.717  0.2993  0.5059 -2.7284
  102OSM    H5G10364   0.804   3.006   9.804 -0.0585  1.1526 -0.9455
  102OSM    C6F10365   0.687   3.004   9.635 -0.1894  0.8732 -0.0129
  102OSM    H6F10366   0.609   3.075   9.669  0.7393  2.0566 -0.2656
  102OSM    H6G10367   0.629   2.931   9.575  1.5677 -1.8475  1.4176
  102OSM    C7F10368   0.789   3.081   9.550 -0.0684  0.3055 -0.5831
  102OSM    H7F10369   0.839   3.148   9.622 -0.7353  0.3396 -0.1391
  102OSM    H7G10370   0.731   3.148   9.483  1.4713 -0.0054 -2.2983
  102OSM    C8F10371   0.890   2.994   9.471  0.0607  0.2356  0.1115
  102OSM    H8F10372   0.825   2.921   9.418 -0.6174  1.6566 -1.0614
  102OSM    H8G10373   0.938   2.943   9.558  0.5036  1.7923  0.8096
  102OSM    C9F10374   0.974   3.072   9.370  0.0755 -1.1802 -0.3300
  102OSM    H9F10375   1.073   3.101   9.408  0.7376 -1.0546 -2.0453
  102OSM   C10F10376   0.946   3.096   9.244 -0.0670 -0.0069  0.1428
  102OSM   H10F10377   1.015   3.156   9.181  0.3612 -2.8474 -2.3137
  102OSM   C11F10378   0.817   3.064   9.171  0.6128 -0.0354 -0.3843
  102OSM   H11F10379   0.785   3.143   9.100  0.7017  0.1998 -0.1660
  102OSM   H11G10380   0.732   3.043   9.240 -0.2763  4.7415  0.3198
  102OSM   C12F10381   0.828   2.944   9.080  0.1255 -0.5267  0.1405
  102OSM   H12F10382   0.725   2.904   9.063 -0.2631  0.2750  0.5953
  102OSM   H12G10383   0.875   2.857   9.132  0.3997 -0.3807  0.1389
  102OSM   C13F10384   0.909   2.975   8.952  0.3963 -0.4624  0.2370
  102OSM   H13F10385   1.013   2.977   8.990 -0.4366 -2.1438  2.8309
  102OSM   H13G10386   0.889   3.075   8.910  1.7479  1.1856  3.2391
  102OSM   C14F10387   0.888   2.859   8.851 -0.4132  0.2684  0.1159
  102OSM   H14F10388   0.797   2.893   8.797 -0.2255  0.7023  0.0689
  102OSM   H14G10389   0.867   2.767   8.910  2.1109 -0.5537 -0.1899
  102OSM   C15F10390   0.993   2.852   8.742  0.7244  0.3857 -0.8368
  102OSM   H15F10391   1.084   2.826   8.801 -1.3737 -1.9525  1.7035
  102OSM   H15G10392   0.996   2.948   8.687  2.2845  0.5081 -0.5866
  102OSM   C16F10393   0.968   2.743   8.640 -0.1483  0.4561  0.5066
  102OSM   H16F10394   0.862   2.754   8.608  0.7406  0.8825 -2.6095
  102OSM   H16G10395   0.976   2.650   8.700  0.6657  1.2621  1.6771
  102OSM   C17F10396   1.065   2.736   8.525 -0.5478  0.2452 -0.4474
  102OSM   H17F10397   1.073   2.636   8.478 -3.2076 -0.4542  0.3739
  102OSM   H17G10398   1.163   2.762   8.571 -0.6247 -0.0997 -0.0780
  102OSM   C18F10399   1.021   2.830   8.408  0.2986 -0.1659 -0.5316
  102OSM   H18F10400   1.093   2.845   8.325 -1.4669  1.9705 -1.7780
  102OSM   H18G10401   1.006   2.931   8.452 -0.0461 -0.6249  0.4220
  102OSM   H18H10402   0.927   2.797   8.359 -1.2863  0.4599  1.8935
  103OSM      N10403   5.021   4.117  10.830 -0.3580  0.6420 -1.1588
  103OSM    C1510404   4.912   4.027  10.883  0.2252  0.0098  0.0990
  103OSM   H15A10405   4.824   4.079  10.916 -0.5935  0.0795 -2.0707
  103OSM   H15B10406   4.948   3.956  10.957 -0.4094 -2.2106 -1.6101
  103OSM   H15C10407   4.879   3.950  10.815 -1.1269 -2.2255  3.0446
  103OSM    C1410408   5.065   4.212  10.929  0.0499 -0.3152 -0.4681
  103OSM   H14A10409   5.040   4.315  10.905 -2.0412 -0.8497 -0.7738
  103OSM   H14B10410   5.173   4.207  10.936  0.1122  0.6761 -0.4832
  103OSM   H14C10411   5.027   4.186  11.026  3.2046 -0.8933  0.7340
  103OSM    C1310412   5.139   4.023  10.798  0.5325  0.7770  0.8702
  103OSM   H13A10413   5.226   4.075  10.763  0.6271 -1.0373 -1.8891
  103OSM   H13B10414   5.111   3.945  10.729  1.6560  0.8202  0.3441
  103OSM   H13C10415   5.172   3.976  10.890  3.4032  2.6937  0.9514
  103OSM    C1210416   4.975   4.184  10.704  0.0135 -0.2037  0.3514
  103OSM   H12A10417   4.954   4.103  10.636  2.3313 -0.4185 -0.2099
  103OSM   H12B10418   5.063   4.232  10.663 -0.2881  0.2482  0.2299
  103OSM    C1110419   4.858   4.289  10.708 -0.7361 -0.2497 -0.0338
  103OSM   H11A10420   4.760   4.237  10.717 -0.9490 -0.2308 -1.8739
  103OSM   H11B10421   4.857   4.345  10.612 -0.7267  2.2200  1.3182
  103OSM      P10422   4.755   4.458  10.888 -0.2446  0.1582 -0.2450
  103OSM    O1310423   4.653   4.355  10.923  0.3963 -0.0069 -0.0756
  103OSM    O1410424   4.807   4.545  10.999  0.2781  0.9507  0.1441
  103OSM    O1110425   4.684   4.549  10.781 -0.5216 -0.4495 -0.1566
  103OSM    O1210426   4.878   4.397  10.808  0.3635  0.5948 -0.5198
  103OSM    C1S10427   4.762   4.635  10.696 -0.4094 -0.1390  0.2238
  103OSM    H1S10428   4.832   4.575  10.634  0.4199  3.2753 -2.4325
  103OSM    H1T10429   4.808   4.723  10.746 -0.7202  0.7536 -1.0238
  103OSM     NF10430   4.762   4.782  10.489  0.7739 -0.0738 -1.0236
  103OSM    HNF10431   4.763   4.880  10.507  0.6190 -0.5582  2.2155
  103OSM    C2S10432   4.677   4.711  10.592  0.2534 -0.6212 -0.6515
  103OSM    H2S10433   4.620   4.636  10.533  0.1880 -0.4513 -0.8059
  103OSM    C3S10434   4.571   4.798  10.658  0.0687 -0.0890 -0.1091
  103OSM    H3S10435   4.627   4.890  10.686  1.7861 -0.6156 -1.6229
  103OSM     O310436   4.513   4.755  10.778 -0.0218 -0.4664  0.5287
  103OSM    HO310437   4.576   4.686  10.801 -1.3973 -1.5712  1.1992
  103OSM    C4S10438   4.453   4.827  10.567 -0.1379 -0.9607 -0.0990
  103OSM    H4S10439   4.371   4.754  10.580 -0.0636 -1.2241 -1.0228
  103OSM    C5S10440   4.442   4.931  10.484  0.2945 -0.6532  0.5352
  103OSM    H5S10441   4.514   5.014  10.489 -0.3929 -0.0693  0.9322
  103OSM    C6S10442   4.320   4.960  10.399 -0.6413  0.0902 -0.3934
  103OSM    H6S10443   4.286   5.065  10.408 -1.6773 -0.2854  0.2792
  103OSM    H6T10444   4.232   4.905  10.441 -1.3987 -1.4423 -3.6379
  103OSM    C7S10445   4.343   4.924  10.246  0.0002 -0.0253  0.4544
  103OSM    H7S10446   4.372   4.817  10.241 -0.3746 -0.1137  0.1805
  103OSM    H7T10447   4.423   4.986  10.199  1.9806 -2.8554 -0.1584
  103OSM    C8S10448   4.220   4.939  10.156  0.2297 -0.4067 -0.5610
  103OSM    H8S10449   4.194   5.047  10.154 -1.4339 -0.7841 -1.8261
  103OSM    H8T10450   4.130   4.881  10.185 -0.3628 -0.5497 -2.5350
  103OSM    C9S10451   4.251   4.894  10.009  0.4573 -0.2006 -0.6061
  103OSM    H9S10452   4.151   4.881   9.962 -0.5809 -0.9562  1.6694
  103OSM    H9T10453   4.294   4.792  10.016 -0.2195 -0.3892  1.3238
  103OSM   C10S10454   4.340   4.992   9.926  0.4535  0.4300 -0.0127
  103OSM   H10S10455   4.437   5.015   9.976  1.2881  0.3403 -1.5229
  103OSM   H10T10456   4.277   5.081   9.907  0.5902  0.6754  0.6543
  103OSM   C11S10457   4.379   4.930   9.788  0.3800  0.8779 -0.6098
  103OSM   H11S10458   4.286   4.906   9.733 -0.6154  1.8310  0.6001
  103OSM   H11T10459   4.449   4.848   9.814 -0.0122  1.5798  3.2183
  103OSM   C12S10460   4.460   5.024   9.707 -0.5501  0.0303  0.6192
  103OSM   H12S10461   4.555   5.053   9.757  0.2383  0.0862 -0.8749
  103OSM   H12T10462   4.400   5.117   9.699 -2.5341 -1.2959 -0.9567
  103OSM   C13S10463   4.504   4.972   9.572  0.6666  0.2340 -0.0471
  103OSM   H13S10464   4.414   4.930   9.522  1.4718 -0.8791 -0.6004
  103OSM   H13T10465   4.571   4.886   9.592  0.8275  0.9185  2.6400
  103OSM   C14S10466   4.560   5.081   9.482 -0.7175 -0.6700  0.3466
  103OSM   H14S10467   4.649   5.128   9.529  0.2570  1.4854 -3.2617
  103OSM   H14T10468   4.484   5.162   9.476 -1.7120 -1.5852  0.3700
  103OSM   C15S10469   4.607   5.041   9.339  0.2018 -0.6937  0.1620
  103OSM   H15S10470   4.674   4.955   9.360  1.5871  0.7646  2.1318
  103OSM   H15T10471   4.678   5.122   9.314 -0.3104  0.5636  2.5086
  103OSM   C16S10472   4.498   5.022   9.239 -0.2776  0.6961 -0.1262
  103OSM   H16S10473   4.424   5.104   9.249 -1.0341 -0.0120  0.2266
  103OSM   H16T10474   4.448   4.928   9.269  0.1513  0.5523  0.1527
  103OSM   C17S10475   4.546   5.012   9.091  0.3390  0.7693 -0.2677
  103OSM   H17S10476   4.457   4.981   9.031 -1.8535  1.5791  2.3452
  103OSM   H17T10477   4.613   4.923   9.089 -0.0327  0.4933 -0.7327
  103OSM   C18S10478   4.613   5.132   9.041  0.4779 -0.3955 -0.2732
  103OSM   H18S10479   4.540   5.214   9.024 -0.9555 -1.4104  0.7672
  103OSM   H18T10480   4.656   5.112   8.940 -1.8577 -1.6051 -1.1077
  103OSM   H18U10481   4.687   5.167   9.117  1.0940 -1.9650 -0.0981
  103OSM    C1F10482   4.843   4.729  10.396  0.3598 -0.0053 -0.2288
  103OSM     OF10483   4.858   4.607  10.397 -0.2105 -0.4098 -0.3856
  103OSM    C2F10484   4.920   4.819  10.300  0.2647  0.3161  0.0896
  103OSM    H2F10485   5.024   4.815  10.340  1.3664 -1.9576 -2.6653
  103OSM    H2G10486   4.864   4.914  10.312 -1.1022 -0.6084  1.3588
  103OSM    C3F10487   4.910   4.767  10.160 -0.1838  0.7445  0.0618
  103OSM    H3F10488   4.803   4.764  10.130 -1.2490  3.3498  2.9668
  103OSM    H3G10489   4.942   4.662  10.148 -2.6377 -0.0761  0.1283
  103OSM    C4F10490   4.982   4.857  10.051 -0.6389 -0.2388 -0.2279
  103OSM    H4F10491   5.089   4.851  10.082 -0.9226 -0.2894  0.7769
  103OSM    H4G10492   4.957   4.963  10.072  1.7977 -0.0280  2.2459
  103OSM    C5F10493   4.955   4.813   9.910  0.1053 -0.3180 -0.5073
  103OSM    H5F10494   4.848   4.802   9.883  0.3127 -2.0083 -0.7371
  103OSM    H5G10495   4.985   4.706   9.913  0.4914 -0.1853  0.8483
  103OSM    C6F10496   5.036   4.902   9.809  0.1167  0.3050 -0.1570
  103OSM    H6F10497   5.136   4.928   9.848  1.3550 -1.7096 -1.7601
  103OSM    H6G10498   4.985   5.000   9.793  1.2309  0.7372 -1.3103
  103OSM    C7F10499   5.062   4.832   9.678 -0.5638 -0.7670 -0.0632
  103OSM    H7F10500   4.965   4.793   9.639  0.7217 -1.7387 -2.5121
  103OSM    H7G10501   5.123   4.739   9.684 -0.7660 -0.9381 -0.5949
  103OSM    C8F10502   5.135   4.919   9.577 -0.3632 -0.1576  0.6008
  103OSM    H8F10503   5.213   4.979   9.629  1.1963  0.8156 -2.5978
  103OSM    H8G10504   5.060   4.996   9.547  0.8433  1.5359  1.7580
  103OSM    C9F10505   5.175   4.847   9.451 -0.6021 -0.5016  0.6917
  103OSM    H9F10506   5.281   4.819   9.449  0.4426  2.9500 -2.2601
  103OSM   C10F10507   5.106   4.822   9.338 -0.5446  0.4047  0.1100
  103OSM   H10F10508   5.161   4.757   9.269  0.5293  0.4205  0.9237
  103OSM   C11F10509   4.965   4.855   9.298 -0.2822 -0.2584 -0.1630
  103OSM   H11F10510   4.907   4.866   9.393  0.0180 -1.2493  0.1554
  103OSM   H11G10511   4.918   4.763   9.257  4.1532 -2.9293  0.1536
  103OSM   C12F10512   4.946   4.970   9.202 -0.5145  0.0242  0.0566
  103OSM   H12F10513   4.946   5.063   9.262 -0.4195  2.4430 -3.3861
  103OSM   H12G10514   4.848   4.960   9.149 -0.3338 -1.2218 -0.0646
  103OSM   C13F10515   5.070   5.002   9.122  0.1256 -0.0288 -0.1734
  103OSM   H13F10516   5.161   5.024   9.182  1.2439 -1.0560 -1.4322
  103OSM   H13G10517   5.080   4.917   9.052 -0.5636  0.1639 -0.5115
  103OSM   C14F10518   5.061   5.130   9.033 -0.6342 -0.4984  0.1811
  103OSM   H14F10519   5.019   5.213   9.096 -0.6087 -0.8776  0.7060
  103OSM   H14G10520   4.985   5.108   8.955 -1.8180  2.4724  0.3267
  103OSM   C15F10521   5.200   5.169   8.963 -0.5031  0.5745 -0.0129
  103OSM   H15F10522   5.237   5.084   8.903 -0.5048  0.0209  0.7640
  103OSM   H15G10523   5.269   5.186   9.048 -0.1787  0.6944 -0.3012
  103OSM   C16F10524   5.204   5.299   8.883 -0.1000  0.4804  0.1829
  103OSM   H16F10525   5.306   5.335   8.906  1.1451 -2.0348 -1.0679
  103OSM   H16G10526   5.141   5.375   8.935  1.3194  1.6720  0.2260
  103OSM   C17F10527   5.168   5.293   8.735 -0.3104 -0.0293  0.5017
  103OSM   H17F10528   5.064   5.254   8.732 -0.7018  0.7324  2.2885
  103OSM   H17G10529   5.232   5.216   8.689  0.9732  0.9826  0.5474
  103OSM   C18F10530   5.167   5.427   8.660  0.4937 -0.1080 -0.2684
  103OSM   H18F10531   5.138   5.413   8.554 -0.5550 -1.6386  0.1731
  103OSM   H18G10532   5.266   5.478   8.667  0.2001  0.7068 -1.7319
  103OSM   H18H10533   5.099   5.503   8.703  1.2679  1.4124 -1.6399
  104OSM      N10534   2.861   5.058  11.607 -0.0886  0.2208  0.1624
  104OSM    C1510535   2.835   4.954  11.700 -0.5066  0.5350  0.3458
  104OSM   H15A10536   2.918   4.890  11.726 -0.3532  1.4362  2.2341
  104OSM   H15B10537   2.755   4.890  11.668  0.7601 -0.9663  0.0378
  104OSM   H15C10538   2.807   5.004  11.792  2.2463 -0.6427  1.9769
  104OSM    C1410539   2.954   5.154  11.665 -0.7676  0.3064  0.9091
  104OSM   H14A10540   2.919   5.194  11.759 -1.4195  0.4361  0.6167
  104OSM   H14B10541   2.987   5.232  11.598 -0.5686 -1.0695 -0.6721
  104OSM   H14C10542   3.049   5.107  11.687  0.7922  2.4496 -0.7476
  104OSM    C1310543   2.924   4.996  11.483 -0.0363 -0.7023 -0.0717
  104OSM   H13A10544   3.021   4.959  11.512 -0.5539 -2.6711 -0.6988
  104OSM   H13B10545   2.929   5.074  11.409  1.2629 -0.7645 -0.0710
  104OSM   H13C10546   2.856   4.921  11.446 -0.1998  0.6361 -2.6694
  104OSM    C1210547   2.736   5.136  11.569 -0.4290 -0.1886 -0.1430
  104OSM   H12A10548   2.698   5.185  11.658 -0.2652  0.5049 -0.4468
  104OSM   H12B10549   2.652   5.072  11.547 -1.9411  2.4865 -3.0290
  104OSM    C1110550   2.742   5.240  11.450 -0.4458 -0.0835 -0.3971
  104OSM   H11A10551   2.671   5.324  11.465  1.9292  1.8197  1.0047
  104OSM   H11B10552   2.711   5.188  11.357 -2.8748 -0.1223  0.3701
  104OSM      P10553   2.919   5.430  11.391 -0.0811  0.0048  0.1230
  104OSM    O1310554   2.832   5.517  11.474 -0.2003 -0.1500  0.0162
  104OSM    O1410555   3.065   5.451  11.402  0.2400 -0.3933 -0.0101
  104OSM    O1110556   2.871   5.443  11.235 -0.0621 -0.2742 -0.4317
  104OSM    O1210557   2.882   5.286  11.433  0.4867  0.1319  0.4397
  104OSM    C1S10558   2.963   5.444  11.120 -0.1791  0.0893  0.0892
  104OSM    H1S10559   3.053   5.380  11.137  0.4962  1.3281  1.4527
  104OSM    H1T10560   3.001   5.547  11.103  0.7515 -0.4296 -1.1003
  104OSM     NF10561   2.983   5.407  10.877  0.6314  0.1258  0.7517
  104OSM    HNF10562   2.992   5.492  10.826  1.5056  1.2582  2.6649
  104OSM    C2S10563   2.887   5.403  10.990  0.4600  0.6296  0.1371
  104OSM    H2S10564   2.850   5.303  11.021 -1.3055  1.1603 -0.1172
  104OSM    C3S10565   2.755   5.489  10.967 -0.1355 -0.2355  0.5407
  104OSM    H3S10566   2.792   5.587  10.930 -1.3642 -0.3315 -1.1031
  104OSM     O310567   2.675   5.533  11.077 -0.3026 -0.3251 -0.2511
  104OSM    HO310568   2.742   5.531  11.146 -2.1267 -0.8238  1.6430
  104OSM    C4S10569   2.670   5.429  10.858 -0.1664 -0.3852 -0.7221
  104OSM    H4S10570   2.620   5.334  10.880 -0.3234 -0.7963 -2.6510
  104OSM    C5S10571   2.652   5.480  10.737 -0.0504  0.3933  0.2334
  104OSM    H5S10572   2.720   5.562  10.713  1.7537 -0.4819  2.0222
  104OSM    C6S10573   2.562   5.420  10.637  0.0506 -0.3726  0.5103
  104OSM    H6S10574   2.508   5.505  10.590  0.2118 -0.2469  0.5539
  104OSM    H6T10575   2.481   5.357  10.681 -0.1566 -0.6976 -0.3181
  104OSM    C7S10576   2.644   5.327  10.540 -0.5821 -0.2634  0.1359
  104OSM    H7S10577   2.646   5.232  10.596 -0.8653 -0.0224  0.5613
  104OSM    H7T10578   2.742   5.376  10.521 -1.6918  1.3754 -1.7890
  104OSM    C8S10579   2.569   5.291  10.411  0.6114  0.1264 -0.7130
  104OSM    H8S10580   2.458   5.282  10.419  0.6046 -0.2089 -1.1807
  104OSM    H8T10581   2.608   5.190  10.390 -0.3768 -0.7613  1.3821
  104OSM    C9S10582   2.625   5.360  10.285  0.2076 -0.3866 -0.4426
  104OSM    H9S10583   2.730   5.331  10.263  1.4072  0.7328  3.1498
  104OSM    H9T10584   2.622   5.468  10.309 -0.4021  0.1042 -2.5232
  104OSM   C10S10585   2.538   5.325  10.161 -0.1552 -0.0507  0.1010
  104OSM   H10S10586   2.438   5.367  10.183 -1.1759 -2.4003  0.2074
  104OSM   H10T10587   2.554   5.216  10.145  1.8694 -0.0320  1.5672
  104OSM   C11S10588   2.588   5.391  10.031 -0.4757  0.7515 -0.0432
  104OSM   H11S10589   2.687   5.364   9.989  0.0952  1.7357  0.6524
  104OSM   H11T10590   2.602   5.499  10.053  2.7238  0.1564  1.4250
  104OSM   C12S10591   2.486   5.386   9.920  0.9702 -0.7037  0.0185
  104OSM   H12S10592   2.512   5.474   9.858 -0.5824 -0.1961  0.0401
  104OSM   H12T10593   2.383   5.409   9.955  1.0426  0.5512 -0.5521
  104OSM   C13S10594   2.500   5.272   9.832  0.2183  1.2473  0.3283
  104OSM   H13S10595   2.498   5.178   9.892 -0.4338  1.7243  1.0838
  104OSM   H13T10596   2.591   5.278   9.770  0.3176  0.1355  0.3340
  104OSM   C14S10597   2.386   5.264   9.733 -0.0336  0.1159  0.2093
  104OSM   H14S10598   2.373   5.357   9.674 -1.4818  0.8662  1.6274
  104OSM   H14T10599   2.296   5.231   9.790  2.0488 -3.1482  1.9189
  104OSM   C15S10600   2.411   5.155   9.629  0.6636  0.5685 -0.5634
  104OSM   H15S10601   2.391   5.055   9.674  0.9463 -0.2607 -2.1921
  104OSM   H15T10602   2.518   5.163   9.603  1.1212 -0.4805  0.8622
  104OSM   C16S10603   2.322   5.157   9.509 -0.3069  0.5636  0.9454
  104OSM   H16S10604   2.341   5.229   9.427 -0.0049  1.0017  1.3949
  104OSM   H16T10605   2.215   5.166   9.540 -0.3761  0.9119  0.6173
  104OSM   C17S10606   2.318   5.010   9.438 -0.3067 -0.0634  0.6547
  104OSM   H17S10607   2.274   4.943   9.515 -2.4306  0.2288 -0.2160
  104OSM   H17T10608   2.423   4.989   9.409 -0.5390 -3.2985  1.7866
  104OSM   C18S10609   2.231   5.008   9.306  0.1334  0.4267  0.3805
  104OSM   H18S10610   2.122   5.025   9.319 -0.1359  0.9501 -2.0262
  104OSM   H18T10611   2.243   4.909   9.256  3.1928  1.2224 -0.6876
  104OSM   H18U10612   2.263   5.091   9.239 -0.7224  1.6517  1.4433
  104OSM    C1F10613   3.091   5.330  10.867 -0.4862  0.1551  0.4548
  104OSM     OF10614   3.115   5.240  10.953  0.2964  0.0426 -0.1775
  104OSM    C2F10615   3.181   5.356  10.757 -0.8795  0.2659  0.3570
  104OSM    H2F10616   3.240   5.262  10.752 -0.2475  0.6802 -0.0842
  104OSM    H2G10617   3.248   5.441  10.778  1.5014 -1.3275 -0.4143
  104OSM    C3F10618   3.107   5.378  10.620 -0.2072 -0.2443 -0.4874
  104OSM    H3F10619   3.051   5.474  10.626  1.3756  0.6271  2.8610
  104OSM    H3G10620   3.040   5.290  10.608  0.7557 -1.0474 -0.1090
  104OSM    C4F10621   3.206   5.386  10.506  0.0465  0.7250  0.4212
  104OSM    H4F10622   3.294   5.322  10.529  1.3064  2.3877  0.3940
  104OSM    H4G10623   3.243   5.489  10.485  0.5797  0.2028 -1.3909
  104OSM    C5F10624   3.130   5.332  10.380 -0.2360  0.2239 -0.3360
  104OSM    H5F10625   3.044   5.402  10.376  0.2874  1.1026  2.2369
  104OSM    H5G10626   3.109   5.223  10.383  0.1585  0.1387 -0.6189
  104OSM    C6F10627   3.225   5.347  10.257 -0.7762  0.3270 -0.1479
  104OSM    H6F10628   3.320   5.294  10.282 -0.7615 -0.1008 -1.0400
  104OSM    H6G10629   3.243   5.456  10.245  0.8420  0.3259  1.7506
  104OSM    C7F10630   3.174   5.286  10.127 -0.0568  0.8225  0.6706
  104OSM    H7F10631   3.153   5.178  10.140  3.1872 -0.0856 -0.5154
  104OSM    H7G10632   3.256   5.303  10.054  0.1757  0.7020  0.9011
  104OSM    C8F10633   3.038   5.342  10.072 -0.2271 -0.0677 -0.0671
  104OSM    H8F10634   2.963   5.316  10.150  0.1866 -0.3808  0.2343
  104OSM    H8G10635   3.024   5.275   9.985 -0.2999  0.4866 -0.4847
  104OSM    C9F10636   3.031   5.483  10.024  0.1478 -0.5841 -0.0015
  104OSM    H9F10637   3.048   5.551  10.109  2.6101 -1.2137  0.0791
  104OSM   C10F10638   3.016   5.532   9.902  0.0437 -0.6655  0.1893
  104OSM   H10F10639   3.020   5.641   9.892  1.6654 -0.6867  0.2317
  104OSM   C11F10640   3.005   5.450   9.769  0.6780 -0.2833 -0.4068
  104OSM   H11F10641   3.003   5.341   9.792  1.8506 -0.0208  1.1864
  104OSM   H11G10642   3.093   5.470   9.704  2.7617 -1.3798  1.9146
  104OSM   C12F10643   2.876   5.507   9.703  1.2675  0.7186  0.7687
  104OSM   H12F10644   2.893   5.603   9.650 -0.6123  0.6515 -0.0331
  104OSM   H12G10645   2.785   5.520   9.766  1.3771 -1.4448  1.4471
  104OSM   C13F10646   2.830   5.413   9.584 -0.0844 -0.0294  0.6243
  104OSM   H13F10647   2.806   5.316   9.634  0.7608  0.6270  2.3837
  104OSM   H13G10648   2.911   5.390   9.512 -0.0090 -0.2467  0.7785
  104OSM   C14F10649   2.712   5.462   9.505  0.1380 -0.9177  0.1946
  104OSM   H14F10650   2.747   5.554   9.453 -0.3604 -1.9030 -1.9582
  104OSM   H14G10651   2.625   5.489   9.569  0.0830 -0.3980 -0.0949
  104OSM   C15F10652   2.679   5.357   9.398 -0.1055  0.3352 -0.2404
  104OSM   H15F10653   2.614   5.277   9.440 -1.4799  1.3884 -0.2859
  104OSM   H15G10654   2.779   5.317   9.371  0.6541  1.7339  0.3994
  104OSM   C16F10655   2.598   5.422   9.278  0.2699 -0.0459 -0.9987
  104OSM   H16F10656   2.663   5.498   9.230 -1.3884  2.1502  0.0847
  104OSM   H16G10657   2.509   5.466   9.327 -0.9279 -2.1614 -1.1556
  104OSM   C17F10658   2.536   5.326   9.179  0.7409 -0.4465 -0.3024
  104OSM   H17F10659   2.470   5.390   9.115  0.9199  1.9547  1.7573
  104OSM   H17G10660   2.484   5.240   9.225  1.2334 -0.9466 -0.6712
  104OSM   C18F10661   2.642   5.262   9.087 -0.7079  0.2310  0.7384
  104OSM   H18F10662   2.696   5.341   9.030 -2.3057  0.8984  0.0946
  104OSM   H18G10663   2.592   5.185   9.025 -1.5770  1.7801 -0.5565
  104OSM   H18H10664   2.713   5.200   9.147  0.6967  0.0511 -1.0317
  105OSM      N10665   0.302   4.324  10.856  0.8906  0.2407 -0.0378
  105OSM    C1510666   0.356   4.406  10.969  0.1171 -0.0288  0.1452
  105OSM   H15A10667   0.299   4.384  11.058  0.5122 -1.1833  0.1336
  105OSM   H15B10668   0.350   4.513  10.962 -0.8164 -0.0604  0.3679
  105OSM   H15C10669   0.458   4.375  10.985  0.1123 -1.0012 -1.5282
  105OSM    C1410670   0.403   4.341  10.748  0.6350  0.5367  0.1796
  105OSM   H14A10671   0.368   4.284  10.663  0.7322 -2.5769  2.0546
  105OSM   H14B10672   0.493   4.297  10.789 -0.3350 -0.3642  1.4208
  105OSM   H14C10673   0.402   4.444  10.716 -0.3924  0.0623 -1.4089
  105OSM    C1310674   0.318   4.180  10.892  0.3004 -0.1288  0.1608
  105OSM   H13A10675   0.414   4.166  10.939  0.4181  0.2279  0.0261
  105OSM   H13B10676   0.312   4.123  10.801  0.1215  0.9265 -0.4993
  105OSM   H13C10677   0.236   4.154  10.957 -0.4115  0.1778 -0.6029
  105OSM    C1210678   0.165   4.367  10.819 -0.1247  0.6166  0.3963
  105OSM   H12A10679   0.134   4.295  10.745  0.7979  1.4056 -0.8133
  105OSM   H12B10680   0.168   4.469  10.783  0.2902  0.2581 -0.6359
  105OSM    C1110681   0.049   4.352  10.924  0.4180  0.1882 -0.4370
  105OSM   H11A10682  -0.046   4.384  10.877  0.5241 -1.1774 -1.6556
  105OSM   H11B10683   0.064   4.416  11.014 -2.3799 -1.5089  1.3732
  105OSM      P10684  -0.054   4.109  10.899  0.1329 -0.2429 -0.0900
  105OSM    O1310685  -0.046   3.979  10.963  0.2258 -0.3646 -0.0848
  105OSM    O1410686  -0.186   4.175  10.875 -0.2764 -0.3536 -0.5952
  105OSM    O1110687   0.005   4.095  10.750 -0.6939  0.0712  0.3693
  105OSM    O1210688   0.049   4.211  10.970  0.3873 -0.0198  0.7896
  105OSM    C1S10689  -0.071   4.011  10.652  0.2337  0.0303 -0.4901
  105OSM    H1S10690  -0.167   4.062  10.628  0.3371 -0.1617 -1.3596
  105OSM    H1T10691  -0.094   3.909  10.691 -0.3369 -0.8397 -2.9373
  105OSM     NF10692  -0.090   3.888  10.439  0.1151 -0.5222 -0.3606
  105OSM    HNF10693  -0.085   3.790  10.459  0.1427 -0.3281  0.6328
  105OSM    C2S10694  -0.002   3.979  10.517  0.2147  0.0772  0.0574
  105OSM    H2S10695   0.008   4.079  10.470  2.4627  0.7928  1.8145
  105OSM    C3S10696   0.137   3.923  10.540 -0.2725  0.1974 -0.5399
  105OSM    H3S10697   0.139   3.818  10.575  1.0475  0.1026 -0.8636
  105OSM     O310698   0.215   3.995  10.638  0.4135  0.3034 -0.3407
  105OSM    HO310699   0.148   4.059  10.666 -1.3192 -0.1352 -3.0362
  105OSM    C4S10700   0.214   3.917  10.413 -0.5184 -0.9646 -0.1098
  105OSM    H4S10701   0.275   4.006  10.389  0.1078 -1.8817 -2.1360
  105OSM    C5S10702   0.222   3.809  10.338 -0.2266  0.2101 -0.1685
  105OSM    H5S10703   0.180   3.711  10.367  1.1701 -0.0321  1.1549
  105OSM    C6S10704   0.292   3.801  10.208  0.2993  0.5203 -0.4735
  105OSM    H6S10705   0.317   3.696  10.182  0.1250  0.1742  0.7263
  105OSM    H6T10706   0.388   3.856  10.212  1.1441 -0.9965  1.6760
  105OSM    C7S10707   0.201   3.862  10.101  0.2565  0.9257 -0.7848
  105OSM    H7S10708   0.192   3.971  10.122 -0.1324  1.0144 -1.4082
  105OSM    H7T10709   0.103   3.812  10.101  0.1266  1.1780 -0.6144
  105OSM    C8S10710   0.261   3.854   9.957  0.1153 -0.3140 -0.3086
  105OSM    H8S10711   0.312   3.756   9.944 -1.5067 -1.4079  1.0690
  105OSM    H8T10712   0.342   3.930   9.958  0.2906 -0.4919  0.9219
  105OSM    C9S10713   0.144   3.879   9.862 -0.2970  0.1126  0.0891
  105OSM    H9S10714   0.088   3.969   9.896 -1.0636  0.5046 -2.0699
  105OSM    H9T10715   0.064   3.802   9.870 -1.4786  0.9626 -2.6248
  105OSM   C10S10716   0.192   3.898   9.719  0.1791 -0.2451 -0.3894
  105OSM   H10S10717   0.244   3.806   9.685  0.0554  0.3932 -2.4463
  105OSM   H10T10718   0.274   3.973   9.730  1.8406 -1.8227 -1.3983
  105OSM   C11S10719   0.084   3.950   9.627  0.2102  0.1174  0.1823
  105OSM   H11S10720   0.059   4.051   9.665 -1.1859  0.2176 -0.9267
  105OSM   H11T10721   0.007   3.873   9.648  1.7795 -0.4584  5.2286
  105OSM   C12S10722   0.130   3.947   9.481 -0.6255 -0.5348 -0.0710
  105OSM   H12S10723   0.040   3.959   9.416  0.3071 -0.3300 -1.3772
  105OSM   H12T10724   0.182   3.854   9.449 -0.0455  0.3387 -1.8220
  105OSM   C13S10725   0.219   4.064   9.428 -0.6273  0.0683 -0.2482
  105OSM   H13S10726   0.325   4.046   9.457 -0.1612  2.3700 -0.3261
  105OSM   H13T10727   0.183   4.158   9.476  1.7649  1.0180 -0.1623
  105OSM   C14S10728   0.224   4.087   9.280 -0.1777  0.2197 -0.1841
  105OSM   H14S10729   0.118   4.101   9.251 -0.9477 -1.2266  1.7266
  105OSM   H14T10730   0.266   3.998   9.228 -0.3505 -0.0044  0.0561
  105OSM   C15S10731   0.304   4.212   9.241  0.2981 -0.4444 -0.5463
  105OSM   H15S10732   0.404   4.207   9.289  1.1257 -0.2591 -2.1792
  105OSM   H15T10733   0.259   4.305   9.280  1.6591  0.0621 -0.1463
  105OSM   C16S10734   0.326   4.221   9.088 -1.1135 -0.1148  0.9555
  105OSM   H16S10735   0.358   4.123   9.049  0.2984  1.3949 -2.0377
  105OSM   H16T10736   0.408   4.293   9.065 -0.7556 -0.6184  0.6531
  105OSM   C17S10737   0.204   4.265   9.012 -0.4598 -0.1481  0.1262
  105OSM   H17S10738   0.172   4.360   9.060 -1.4929 -1.7665  2.9241
  105OSM   H17T10739   0.135   4.181   9.036 -0.6252  0.2382  1.0753
  105OSM   C18S10740   0.232   4.286   8.862  0.7267 -0.2540 -0.1454
  105OSM   H18S10741   0.136   4.302   8.807  0.5555 -0.4523  0.0931
  105OSM   H18T10742   0.269   4.191   8.819 -1.0341  0.0452 -2.5566
  105OSM   H18U10743   0.304   4.370   8.855 -0.7679  1.4894  3.0902
  105OSM    C1F10744  -0.196   3.935  10.369 -0.3080 -0.0555  0.0901
  105OSM     OF10745  -0.229   4.056  10.369  0.1098 -0.2401  0.0842
  105OSM    C2F10746  -0.276   3.832  10.294  0.1065  0.0095 -0.9359
  105OSM    H2F10747  -0.360   3.809  10.363  0.5560  0.5293 -0.1887
  105OSM    H2G10748  -0.209   3.744  10.293 -2.3927 -2.0128 -1.7096
  105OSM    C3F10749  -0.318   3.874  10.153  0.2754  0.3348 -0.2866
  105OSM    H3F10750  -0.393   3.954  10.170 -1.3411 -0.9420 -1.0693
  105OSM    H3G10751  -0.363   3.786  10.101  0.8194  0.8668 -1.7073
  105OSM    C4F10752  -0.201   3.926  10.075 -0.4710  0.6084  0.0298
  105OSM    H4F10753  -0.144   3.844  10.026 -0.7442  0.0765  0.5913
  105OSM    H4G10754  -0.135   3.989  10.138 -0.8976  1.7560 -0.6386
  105OSM    C5F10755  -0.223   4.014   9.947  0.7133 -0.0145 -0.8111
  105OSM    H5F10756  -0.121   4.053   9.924  1.6895 -2.8094 -1.6079
  105OSM    H5G10757  -0.301   4.090   9.970  0.9065  0.1163 -0.5676
  105OSM    C6F10758  -0.282   3.921   9.838 -0.5198 -0.0135 -0.0936
  105OSM    H6F10759  -0.368   3.864   9.880 -0.9294 -0.1247 -1.0383
  105OSM    H6G10760  -0.193   3.861   9.807 -0.4996 -0.1729  0.2651
  105OSM    C7F10761  -0.337   4.007   9.726  0.6517 -0.4002 -0.1071
  105OSM    H7F10762  -0.268   4.090   9.699 -1.3909  0.7151 -2.3021
  105OSM    H7G10763  -0.425   4.054   9.774  0.1798 -0.9492 -0.4192
  105OSM    C8F10764  -0.384   3.931   9.594 -1.4709  0.0848  0.1137
  105OSM    H8F10765  -0.456   3.857   9.634  0.2088 -0.9470  1.3799
  105OSM    H8G10766  -0.297   3.876   9.552 -0.9329 -0.3639  1.7335
  105OSM    C9F10767  -0.432   4.015   9.482  0.4181  0.1280  0.5884
  105OSM    H9F10768  -0.525   4.071   9.501 -0.4536 -1.5749  1.6056
  105OSM   C10F10769  -0.388   4.018   9.351 -0.1410  0.5837  0.1664
  105OSM   H10F10770  -0.453   4.070   9.279  1.1943 -0.1971 -1.6593
  105OSM   C11F10771  -0.266   3.947   9.289 -0.2842 -0.5127  0.5227
  105OSM   H11F10772  -0.227   3.860   9.346  0.7444 -0.6552 -0.3743
  105OSM   H11G10773  -0.192   4.030   9.292 -0.7880  0.1363 -2.3784
  105OSM   C12F10774  -0.283   3.900   9.138 -0.1456 -0.0494 -0.1128
  105OSM   H12F10775  -0.312   3.981   9.067  0.7811  1.0936  0.7694
  105OSM   H12G10776  -0.368   3.829   9.143  0.4167 -0.6675  1.2696
  105OSM   C13F10777  -0.150   3.832   9.091  0.1540  0.3517  0.7580
  105OSM   H13F10778  -0.184   3.765   9.009 -1.1205  0.2696  1.3205
  105OSM   H13G10779  -0.110   3.767   9.171 -0.1925  0.2906  0.8857
  105OSM   C14F10780  -0.038   3.922   9.051 -0.1817  0.6690 -0.1996
  105OSM   H14F10781   0.007   3.961   9.144 -0.9547 -1.2561  1.0425
  105OSM   H14G10782  -0.073   4.004   8.985  0.2229  1.8527  1.0053
  105OSM   C15F10783   0.084   3.837   8.993  0.3278 -0.1814 -0.0983
  105OSM   H15F10784   0.037   3.789   8.905  0.0824  0.3640 -0.2723
  105OSM   H15G10785   0.113   3.760   9.067  1.5026  1.3029  1.0587
  105OSM   C16F10786   0.211   3.905   8.946  0.3307 -0.3406  0.8536
  105OSM   H16F10787   0.253   3.946   9.040  1.5902 -1.2280  0.7068
  105OSM   H16G10788   0.184   3.988   8.876 -0.2393 -1.8915 -0.8653
  105OSM   C17F10789   0.303   3.811   8.872  0.1756  0.0590 -0.2456
  105OSM   H17F10790   0.250   3.756   8.791 -0.3401 -0.0290  0.1431
  105OSM   H17G10791   0.336   3.729   8.940 -2.9043 -0.5780  0.6290
  105OSM   C18F10792   0.426   3.877   8.820  0.1767  0.5972 -0.3361
  105OSM   H18F10793   0.470   3.934   8.904 -1.5363  1.0884  0.2735
  105OSM   H18G10794   0.399   3.952   8.743 -2.0176  1.4497  1.1723
  105OSM   H18H10795   0.501   3.800   8.792 -0.8844 -2.0420  3.2973
  106OSM      N10796   2.627   3.346  10.619 -0.0852 -0.2753  0.2304
  106OSM    C1510797   2.608   3.261  10.499  0.2165  0.1442 -0.3786
  106OSM   H15A10798   2.503   3.240  10.497  0.0509  0.8686  0.2534
  106OSM   H15B10799   2.670   3.172  10.497 -1.1291 -0.8684  1.1023
  106OSM   H15C10800   2.644   3.309  10.409  0.1840 -0.6607 -0.8324
  106OSM    C1410801   2.769   3.387  10.640  0.0964  0.5855  0.1765
  106OSM   H14A10802   2.776   3.457  10.722 -4.2124  0.2862  1.0472
  106OSM   H14B10803   2.798   3.441  10.551  1.3406  0.7119  0.6373
  106OSM   H14C10804   2.843   3.315  10.672  0.7557  0.9635 -0.4673
  106OSM    C1310805   2.552   3.473  10.589 -0.0699  0.7224  0.0030
  106OSM   H13A10806   2.565   3.546  10.667 -0.1768  0.6104  0.1254
  106OSM   H13B10807   2.445   3.457  10.599 -0.2308  2.5797  2.1855
  106OSM   H13C10808   2.576   3.520  10.495  0.8663  1.3589  0.5466
  106OSM    C1210809   2.570   3.282  10.746 -0.1484 -0.0653 -0.3756
  106OSM   H12A10810   2.607   3.329  10.836 -0.4243  0.1383 -0.3688
  106OSM   H12B10811   2.611   3.183  10.760 -1.1731 -0.4988 -0.3610
  106OSM    C1110812   2.415   3.259  10.745  0.3392 -0.5873  0.2950
  106OSM   H11A10813   2.368   3.359  10.733  3.8248  1.0346 -1.1570
  106OSM   H11B10814   2.366   3.228  10.840 -0.1933  1.3415  0.6890
  106OSM      P10815   2.399   3.021  10.648  0.1900  0.0942  0.0058
  106OSM    O1310816   2.524   3.001  10.720 -0.0349  0.1057  0.9657
  106OSM    O1410817   2.283   2.945  10.698  0.3107 -0.1430 -0.2476
  106OSM    O1110818   2.429   2.978  10.506  0.5294  0.3399  0.0775
  106OSM    O1210819   2.367   3.174  10.636  0.0425  0.0127 -0.2495
  106OSM    C1S10820   2.336   2.999  10.400 -1.1863 -0.1746  0.3928
  106OSM    H1S10821   2.298   3.103  10.402 -1.9135 -0.4290  0.0176
  106OSM    H1T10822   2.247   2.934  10.391 -0.3705 -1.0295 -5.9062
  106OSM     NF10823   2.304   3.013  10.155 -0.7092 -0.3612  0.7766
  106OSM    HNF10824   2.249   2.939  10.117  1.1726 -0.7851 -1.3155
  106OSM    C2S10825   2.402   2.974  10.261 -0.9500 -0.1028  0.6685
  106OSM    H2S10826   2.491   3.040  10.251 -0.2271 -1.1121  0.2863
  106OSM    C3S10827   2.443   2.823  10.244 -0.2640 -0.2954 -0.7731
  106OSM    H3S10828   2.356   2.754  10.254  0.1697 -0.6095  1.3250
  106OSM     O310829   2.527   2.783  10.355 -0.0202  0.4090  0.3320
  106OSM    HO310830   2.519   2.854  10.420  0.9687  0.6349  0.2233
  106OSM    C4S10831   2.515   2.788  10.115 -0.3027  0.3192  0.6653
  106OSM    H4S10832   2.612   2.839  10.105  1.1203 -2.3166  0.1608
  106OSM    C5S10833   2.465   2.708  10.019 -0.2505 -0.0304 -0.7524
  106OSM    H5S10834   2.373   2.652  10.043 -1.2920  1.8723 -0.0806
  106OSM    C6S10835   2.551   2.671   9.902 -0.8346  0.2284 -0.3094
  106OSM    H6S10836   2.566   2.562   9.914 -0.1754  0.3723  0.2279
  106OSM    H6T10837   2.652   2.716   9.918 -0.4705 -0.5056 -0.4834
  106OSM    C7S10838   2.490   2.681   9.759 -0.5701  0.4024 -0.2965
  106OSM    H7S10839   2.471   2.787   9.730  0.1429  0.4022 -0.7722
  106OSM    H7T10840   2.385   2.648   9.774 -0.9540 -0.3484 -3.8134
  106OSM    C8S10841   2.553   2.600   9.647 -0.1525  0.2952  0.1644
  106OSM    H8S10842   2.552   2.491   9.668  1.0866  0.3698  0.6573
  106OSM    H8T10843   2.657   2.634   9.628  0.1455 -0.8772 -0.4031
  106OSM    C9S10844   2.470   2.603   9.517  0.0151 -0.2317 -0.2475
  106OSM    H9S10845   2.474   2.701   9.464  0.3516 -1.1572 -1.9994
  106OSM    H9T10846   2.364   2.591   9.546  0.3100  0.6142  1.3327
  106OSM   C10S10847   2.495   2.499   9.411  0.0976 -0.4674 -0.3082
  106OSM   H10S10848   2.396   2.461   9.377 -0.4888 -1.1738  1.9794
  106OSM   H10T10849   2.549   2.410   9.449  2.5277  0.4757 -1.3825
  106OSM   C11S10850   2.574   2.549   9.289 -0.1638  0.4866  0.0712
  106OSM   H11S10851   2.668   2.598   9.324  1.4574 -2.3204 -0.0664
  106OSM   H11T10852   2.519   2.627   9.232 -1.2404  0.6791  1.3182
  106OSM   C12S10853   2.620   2.443   9.194 -0.4252 -0.1346 -0.2961
  106OSM   H12S10854   2.529   2.384   9.172 -1.0703  0.0893  1.6159
  106OSM   H12T10855   2.678   2.368   9.252 -1.6030 -1.4933 -0.8273
  106OSM   C13S10856   2.692   2.479   9.071  0.4435 -0.1045  0.5160
  106OSM   H13S10857   2.777   2.543   9.104  1.4747 -1.0124 -0.3099
  106OSM   H13T10858   2.635   2.548   9.004  2.4809  1.8378  0.6479
  106OSM   C14S10859   2.730   2.362   8.980  0.1155 -0.5381  0.3834
  106OSM   H14S10860   2.638   2.345   8.920 -1.1576 -0.8734  2.3381
  106OSM   H14T10861   2.751   2.276   9.048  1.4614 -0.2731  0.3297
  106OSM   C15S10862   2.847   2.394   8.877  0.2379  0.3320  0.1219
  106OSM   H15S10863   2.937   2.362   8.934 -0.2159  0.1650  0.7650
  106OSM   H15T10864   2.856   2.500   8.846  0.0843 -0.5403 -3.2950
  106OSM   C16S10865   2.835   2.307   8.748  0.0926  0.0161 -0.1198
  106OSM   H16S10866   2.933   2.320   8.698 -0.0055  2.4418  0.2046
  106OSM   H16T10867   2.752   2.348   8.686 -0.8368  2.1274  2.3016
  106OSM   C17S10868   2.816   2.156   8.774 -0.1557 -0.5681 -0.1563
  106OSM   H17S10869   2.722   2.128   8.826  1.2033 -2.4215  1.4561
  106OSM   H17T10870   2.895   2.118   8.842 -0.6702  1.4105  1.6801
  106OSM   C18S10871   2.826   2.077   8.642  0.2322  0.1717  0.1245
  106OSM   H18S10872   2.837   1.967   8.656  0.5046  0.3778  1.7142
  106OSM   H18T10873   2.912   2.130   8.595  0.2553 -0.2070 -0.2720
  106OSM   H18U10874   2.734   2.100   8.584  0.4554  2.4804  0.6168
  106OSM    C1F10875   2.281   3.144  10.137  0.6181  0.0467 -0.0368
  106OSM     OF10876   2.333   3.236  10.190  0.1042 -0.2867  0.0007
  106OSM    C2F10877   2.162   3.169  10.048 -0.2098 -0.9696  0.1083
  106OSM    H2F10878   2.113   3.257  10.093 -0.9297 -0.4300 -1.6368
  106OSM    H2G10879   2.096   3.081  10.065  0.1379 -0.8268  2.4077
  106OSM    C3F10880   2.183   3.197   9.898 -0.2520 -0.6546 -0.3675
  106OSM    H3F10881   2.245   3.289   9.888 -1.6645  0.3337 -0.3646
  106OSM    H3G10882   2.082   3.202   9.852 -0.1830  0.5213 -0.4444
  106OSM    C4F10883   2.257   3.085   9.828 -0.7553 -0.1024 -0.3826
  106OSM    H4F10884   2.190   2.997   9.824 -0.2575 -0.4976 -0.1253
  106OSM    H4G10885   2.344   3.054   9.890 -0.2930 -3.4167 -2.4670
  106OSM    C5F10886   2.308   3.114   9.687 -0.3625 -0.2328 -0.4543
  106OSM    H5F10887   2.370   3.029   9.652 -1.4035 -1.8663  1.4604
  106OSM    H5G10888   2.378   3.198   9.702  0.6011 -1.3524  1.7264
  106OSM    C6F10889   2.188   3.137   9.590 -0.6177  0.2735 -0.1785
  106OSM    H6F10890   2.122   3.221   9.619 -0.0047  1.1043 -1.1035
  106OSM    H6G10891   2.125   3.048   9.606 -0.1576  0.2164  1.4315
  106OSM    C7F10892   2.206   3.144   9.441 -0.4395  0.1016  0.4314
  106OSM    H7F10893   2.268   3.234   9.424 -2.5370  1.9069  1.7550
  106OSM    H7G10894   2.103   3.146   9.398  0.0524  0.0147 -0.7790
  106OSM    C8F10895   2.284   3.027   9.379 -0.2294  0.0806  0.1315
  106OSM    H8F10896   2.234   2.930   9.396  0.7430 -0.5936 -0.7553
  106OSM    H8G10897   2.383   3.020   9.428 -1.8270 -1.3625  3.4833
  106OSM    C9F10898   2.295   3.042   9.233 -0.2948 -0.6224  0.3341
  106OSM    H9F10899   2.312   3.145   9.199 -0.0342 -0.7433  0.0953
  106OSM   C10F10900   2.252   2.951   9.144  0.3031 -0.5424  0.0891
  106OSM   H10F10901   2.275   2.966   9.038 -2.5183 -2.0544 -0.8177
  106OSM   C11F10902   2.226   2.801   9.170 -0.1270  0.0652 -0.8308
  106OSM   H11F10903   2.144   2.810   9.245  3.1668  3.1088  2.9007
  106OSM   H11G10904   2.320   2.767   9.219  1.0467  2.8398 -0.9204
  106OSM   C12F10905   2.190   2.703   9.060 -0.6711  0.3755  0.6150
  106OSM   H12F10906   2.179   2.603   9.107  2.6028 -0.0832  0.6008
  106OSM   H12G10907   2.275   2.696   8.989 -1.4585 -1.5170 -0.2259
  106OSM   C13F10908   2.051   2.722   8.995 -0.7768 -0.2404 -0.0142
  106OSM   H13F10909   2.060   2.824   8.951  2.5834 -0.6553 -0.5815
  106OSM   H13G10910   1.981   2.732   9.080  0.3786  1.7783  0.7961
  106OSM   C14F10911   2.003   2.627   8.885 -0.3073  0.1521  0.6120
  106OSM   H14F10912   1.907   2.671   8.849  1.6638  1.4116 -3.8010
  106OSM   H14G10913   1.987   2.531   8.938  1.4155 -0.2399  0.4689
  106OSM   C15F10914   2.089   2.613   8.761 -0.1618  0.4467  0.3809
  106OSM   H15F10915   2.188   2.565   8.780  0.4453  0.5278 -2.2420
  106OSM   H15G10916   2.115   2.717   8.731  1.0872 -0.0018 -0.1579
  106OSM   C16F10917   2.018   2.550   8.633 -0.4761  0.2369 -0.2196
  106OSM   H16F10918   1.908   2.567   8.634 -0.5033  0.2987 -1.9903
  106OSM   H16G10919   2.037   2.441   8.625 -2.2593 -0.2169  0.9738
  106OSM   C17F10920   2.065   2.613   8.502 -0.2463  0.5726  0.2056
  106OSM   H17F10921   2.056   2.534   8.424 -0.5031  1.1468 -0.3491
  106OSM   H17G10922   2.174   2.632   8.508 -0.3590  1.2318  0.1790
  106OSM   C18F10923   2.006   2.747   8.458  0.2109  0.0813  0.1150
  106OSM   H18F10924   2.059   2.790   8.371 -1.3897 -1.3436 -1.6618
  106OSM   H18G10925   2.015   2.810   8.549 -1.0991  0.2730  0.1299
  106OSM   H18H10926   1.899   2.727   8.434  0.3392 -0.3100 -0.1404
  107OSM      N10927   2.539   0.108  10.777 -0.4802  0.6468  0.8248
  107OSM    C1510928   2.676   0.071  10.830 -0.3049  0.4152 -0.5316
  107OSM   H15A10929   2.725   0.158  10.871  1.6080 -1.9492  2.6997
  107OSM   H15B10930   2.738   0.031  10.752 -1.8574 -1.9372 -0.6794
  107OSM   H15C10931   2.665  -0.007  10.905  0.6409  2.0689  1.4282
  107OSM    C1410932   2.461  -0.014  10.768 -0.6636  0.4222  0.2210
  107OSM   H14A10933   2.443  -0.052  10.868  2.5089 -0.7117  0.4768
  107OSM   H14B10934   2.513  -0.087  10.708  0.0619  1.7158 -0.7501
  107OSM   H14C10935   2.369   0.004  10.715 -0.6540 -2.2209 -0.8550
  107OSM    C1310936   2.476   0.208  10.867  0.2639  0.3125 -0.0815
  107OSM   H13A10937   2.415   0.165  10.945  0.7871  1.4286  0.9746
  107OSM   H13B10938   2.404   0.258  10.804 -0.6472 -0.7387  0.0902
  107OSM   H13C10939   2.543   0.273  10.920  4.2146 -2.8057 -0.7601
  107OSM    C1210940   2.558   0.173  10.644 -0.3813 -0.5329  0.1802
  107OSM   H12A10941   2.597   0.105  10.570  2.4748  1.2263 -0.0721
  107OSM   H12B10942   2.634   0.250  10.641 -1.2783  0.3407 -0.5115
  107OSM    C1110943   2.426   0.245  10.575 -0.3195  0.6456 -0.0842
  107OSM   H11A10944   2.337   0.183  10.600 -0.2308 -0.1052 -1.5160
  107OSM   H11B10945   2.437   0.251  10.464 -2.8744 -0.3379 -0.4624
  107OSM      P10946   2.512   0.488  10.616  0.1300 -0.2867 -0.0155
  107OSM    O1310947   2.498   0.576  10.736 -0.0501 -0.5054  0.6106
  107OSM    O1410948   2.646   0.435  10.585 -0.0226 -0.8093 -0.3483
  107OSM    O1110949   2.453   0.573  10.494 -0.2076 -0.0248 -0.1725
  107OSM    O1210950   2.396   0.374  10.626  0.0058  0.4258  0.3321
  107OSM    C1S10951   2.463   0.539  10.354  0.0740  0.3268  0.1877
  107OSM    H1S10952   2.538   0.459  10.340  1.6409  1.7391  0.2454
  107OSM    H1T10953   2.507   0.624  10.298 -0.1287  0.3932  0.1296
  107OSM     NF10954   2.336   0.493  10.155 -0.3056  0.2181  0.5283
  107OSM    HNF10955   2.296   0.577  10.120 -2.6955 -0.4813  1.4035
  107OSM    C2S10956   2.326   0.488  10.294  0.1477 -0.1937 -0.1886
  107OSM    H2S10957   2.308   0.386  10.333 -1.2206 -0.0480 -0.3871
  107OSM    C3S10958   2.202   0.569  10.349  0.4697 -1.0212  0.3928
  107OSM    H3S10959   2.212   0.676  10.318  3.4300 -0.9608  1.2517
  107OSM     O310960   2.187   0.579  10.492 -0.1181 -0.2840 -0.1517
  107OSM    HO310961   2.273   0.545  10.519 -0.7382 -1.2788  0.6380
  107OSM    C4S10962   2.066   0.516  10.297  0.8019  0.0458  0.0369
  107OSM    H4S10963   2.001   0.596  10.258  0.7915  1.7051  3.1528
  107OSM    C5S10964   2.003   0.390  10.297 -0.7851 -0.1064  0.2009
  107OSM    H5S10965   2.065   0.310  10.340  0.6838  0.4498 -0.7781
  107OSM    C6S10966   1.867   0.363  10.240  0.1523 -0.4448 -0.0154
  107OSM    H6S10967   1.810   0.459  10.249  0.4966 -0.2266 -0.1398
  107OSM    H6T10968   1.799   0.293  10.293 -0.5079  1.8703  2.3844
  107OSM    C7S10969   1.881   0.334  10.092 -0.4661  0.7230  0.1411
  107OSM    H7S10970   1.958   0.400  10.048 -0.2891  1.0588  0.9469
  107OSM    H7T10971   1.794   0.358  10.027 -0.8861  1.7692  1.0676
  107OSM    C8S10972   1.937   0.190  10.068 -0.3733  0.2495  0.5915
  107OSM    H8S10973   1.859   0.114  10.091 -1.1166  1.3306  1.7375
  107OSM    H8T10974   2.033   0.174  10.120 -0.7061 -0.1903  1.0774
  107OSM    C9S10975   1.972   0.170   9.923 -0.4832 -0.5131  0.3710
  107OSM    H9S10976   1.894   0.212   9.856  1.1474 -0.0699 -1.3244
  107OSM    H9T10977   1.982   0.062   9.896 -0.8812 -0.4666  0.0158
  107OSM   C10S10978   2.096   0.240   9.876 -1.1748  0.6538  0.1440
  107OSM   H10S10979   2.182   0.208   9.939 -0.1060 -1.1271 -2.1039
  107OSM   H10T10980   2.092   0.351   9.877 -0.5033  0.6849  1.0157
  107OSM   C11S10981   2.132   0.198   9.731 -0.3290  0.0201 -0.1617
  107OSM   H11S10982   2.208   0.263   9.682  1.4159 -1.5308  0.3580
  107OSM   H11T10983   2.036   0.198   9.675  1.1522 -2.5295 -2.9647
  107OSM   C12S10984   2.201   0.064   9.712 -0.0906  0.0179  0.1967
  107OSM   H12S10985   2.148  -0.019   9.763 -0.8019  1.0910  1.2635
  107OSM   H12T10986   2.303   0.061   9.757  0.1112 -1.9995 -0.2830
  107OSM   C13S10987   2.218   0.021   9.563 -0.1481 -0.1398  0.4156
  107OSM   H13S10988   2.284   0.097   9.515  1.8266 -1.0558  1.5677
  107OSM   H13T10989   2.119   0.011   9.514 -0.4630 -2.5915  1.4422
  107OSM   C14S10990   2.301  -0.111   9.555 -0.6772  0.2809  0.3735
  107OSM   H14S10991   2.258  -0.196   9.612 -2.0640  0.1352 -0.8069
  107OSM   H14T10992   2.404  -0.095   9.592 -0.3819 -3.0169  1.2437
  107OSM   C15S10993   2.320  -0.174   9.408  0.1600  0.5452 -0.3341
  107OSM   H15S10994   2.230  -0.221   9.364  0.2941  0.6957 -0.7733
  107OSM   H15T10995   2.388  -0.260   9.422 -0.6469 -0.1128 -0.4150
  107OSM   C16S10996   2.393  -0.080   9.307 -0.0817 -0.3334 -0.8282
  107OSM   H16S10997   2.484  -0.048   9.362 -0.6067 -1.3535  0.6873
  107OSM   H16T10998   2.329   0.010   9.293  2.9279  1.8094 -2.0384
  107OSM   C17S10999   2.417  -0.140   9.167  0.5780  0.0654 -0.0051
  107OSM   H17S11000   2.434  -0.250   9.175  0.3435  0.1085  1.4413
  107OSM   H17T11001   2.510  -0.095   9.126 -0.5752  0.2359 -2.5496
  107OSM   C18S11002   2.302  -0.101   9.078 -0.0388 -0.2027 -0.5249
  107OSM   H18S11003   2.285   0.009   9.078 -1.6485 -0.4208 -1.1965
  107OSM   H18T11004   2.214  -0.155   9.121  0.2598 -1.7823 -1.8230
  107OSM   H18U11005   2.313  -0.140   8.975 -0.5408 -1.5945 -0.0851
  107OSM    C1F11006   2.408   0.402  10.089 -0.4363  0.4328 -0.3850
  107OSM     OF11007   2.441   0.300  10.150 -0.6797 -0.6065  0.0489
  107OSM    C2F11008   2.460   0.436   9.955  0.0231 -0.4464  0.2217
  107OSM    H2F11009   2.541   0.509   9.975 -0.4519  0.9528 -2.4270
  107OSM    H2G11010   2.382   0.498   9.906  0.8703  0.3860 -0.1059
  107OSM    C3F11011   2.513   0.306   9.884 -0.0124 -0.3559  0.6153
  107OSM    H3F11012   2.432   0.230   9.879 -0.6429  0.1201  2.6833
  107OSM    H3G11013   2.601   0.271   9.941  2.0494  1.6940 -1.1256
  107OSM    C4F11014   2.566   0.349   9.746  0.8089  0.5998  0.1641
  107OSM    H4F11015   2.628   0.265   9.707  0.7120  0.6039 -0.0041
  107OSM    H4G11016   2.642   0.429   9.756  0.4863  1.0499 -0.8221
  107OSM    C5F11017   2.452   0.364   9.638 -0.3545  0.6861  0.1961
  107OSM    H5F11018   2.386   0.442   9.682  1.1317  0.3284  3.4252
  107OSM    H5G11019   2.402   0.266   9.626  0.7491  0.4924 -4.4453
  107OSM    C6F11020   2.512   0.396   9.503  0.0956 -0.1549 -0.6466
  107OSM    H6F11021   2.622   0.390   9.512  0.2311 -0.4306 -2.2886
  107OSM    H6G11022   2.492   0.499   9.469  1.8274 -0.2523 -2.0681
  107OSM    C7F11023   2.472   0.291   9.399 -0.5661  0.4027 -0.3096
  107OSM    H7F11024   2.372   0.325   9.362 -0.4861  0.8941 -0.0912
  107OSM    H7G11025   2.457   0.189   9.439  0.8066  0.5734  0.6819
  107OSM    C8F11026   2.563   0.301   9.278  0.0754 -0.6525 -0.4963
  107OSM    H8F11027   2.667   0.275   9.306 -0.1257  0.0917  1.0618
  107OSM    H8G11028   2.561   0.411   9.264 -2.7302 -0.2154  2.1695
  107OSM    C9F11029   2.518   0.237   9.151  0.9235  0.3202  0.6544
  107OSM    H9F11030   2.410   0.234   9.134  0.8544  1.1799  0.9121
  107OSM   C10F11031   2.605   0.194   9.050  0.3746  0.0283  0.2319
  107OSM   H10F11032   2.574   0.138   8.960 -2.9717  0.1574  1.1655
  107OSM   C11F11033   2.755   0.200   9.053  0.0442 -0.0640 -0.2776
  107OSM   H11F11034   2.801   0.252   9.140 -2.2287 -1.4993  1.9486
  107OSM   H11G11035   2.792   0.261   8.969 -0.2962  0.6086  0.0554
  107OSM   C12F11036   2.831   0.070   9.049  0.2846 -0.1993 -0.5036
  107OSM   H12F11037   2.815   0.016   9.145  2.1323 -0.2617 -0.2027
  107OSM   H12G11038   2.938   0.100   9.051 -0.2957  2.1910  1.9460
  107OSM   C13F11039   2.793  -0.020   8.931 -0.0351 -0.1751 -0.4173
  107OSM   H13F11040   2.687  -0.054   8.930 -0.0547 -0.3777 -3.7140
  107OSM   H13G11041   2.847  -0.117   8.941 -1.5918 -1.0062  0.3936
  107OSM   C14F11042   2.824   0.032   8.790 -0.4523 -0.2969  0.1781
  107OSM   H14F11043   2.933   0.047   8.776 -0.5028 -0.8039 -0.8509
  107OSM   H14G11044   2.785   0.135   8.775 -0.6035  0.1550  3.0321
  107OSM   C15F11045   2.768  -0.053   8.671  0.1427 -0.4748  0.3497
  107OSM   H15F11046   2.798  -0.004   8.575 -2.0469 -0.3049 -0.3056
  107OSM   H15G11047   2.657  -0.055   8.666  0.1511 -0.0052 -3.4027
  107OSM   C16F11048   2.828  -0.195   8.677 -0.0234  0.4037 -0.0975
  107OSM   H16F11049   2.808  -0.247   8.581 -0.8687  1.1298 -0.3306
  107OSM   H16G11050   2.779  -0.258   8.755  1.4611  0.0081  0.5363
  107OSM   C17F11051   2.983  -0.195   8.693  0.2990 -0.3951 -0.0195
  107OSM   H17F11052   2.995  -0.173   8.801  1.0300  0.3306 -0.2423
  107OSM   H17G11053   3.029  -0.115   8.632 -0.3691 -0.6843 -0.9379
  107OSM   C18F11054   3.042  -0.330   8.654  0.1908  0.3488  0.6556
  107OSM   H18F11055   3.010  -0.407   8.727  1.0163 -0.6068  0.0315
  107OSM   H18G11056   3.152  -0.341   8.663  0.0198 -3.0575 -0.1081
  107OSM   H18H11057   3.010  -0.350   8.549 -1.1565  1.2528  0.8687
  108OSM      N11058   6.300   3.905  10.978  0.1120  0.2032 -0.1966
  108OSM    C1511059   6.231   3.787  11.048  1.4067  0.2843 -0.2106
  108OSM   H15A11060   6.143   3.760  10.991  1.4569  0.1001 -0.1998
  108OSM   H15B11061   6.206   3.819  11.148  1.4727 -0.0903 -0.0758
  108OSM   H15C11062   6.297   3.702  11.045 -3.2523 -3.7287 -2.6898
  108OSM    C1411063   6.200   4.019  10.965 -0.1912  0.4515 -0.2583
  108OSM   H14A11064   6.157   4.049  11.060  0.3130 -0.0107  0.1218
  108OSM   H14B11065   6.113   3.998  10.904  0.3438 -0.8699 -0.6216
  108OSM   H14C11066   6.246   4.110  10.930  1.4205  0.0474  0.7181
  108OSM    C1311067   6.406   3.954  11.073 -0.5781  0.1974 -0.0652
  108OSM   H13A11068   6.455   4.040  11.030 -0.6379  0.2821  0.0345
  108OSM   H13B11069   6.479   3.876  11.091 -0.9693 -0.3300 -0.7247
  108OSM   H13C11070   6.378   3.983  11.174  1.8024  0.2657  0.6476
  108OSM    C1211071   6.351   3.848  10.850  0.2034 -0.6960 -0.2618
  108OSM   H12A11072   6.396   3.934  10.802  0.9585 -0.1397  1.3850
  108OSM   H12B11073   6.269   3.822  10.784  0.7774 -0.1814 -1.2047
  108OSM    C1111074   6.456   3.735  10.850  0.0058 -0.3537  0.3086
  108OSM   H11A11075   6.536   3.760  10.923  1.6839  1.4743 -1.9912
  108OSM   H11B11076   6.499   3.735  10.748 -0.4334  0.1904  0.1153
  108OSM      P11077   6.451   3.473  10.841  0.1763 -0.3728  0.3570
  108OSM    O1311078   6.597   3.470  10.822  0.0167 -0.5548  0.0007
  108OSM    O1411079   6.375   3.367  10.913 -0.1356 -0.3720 -0.3820
  108OSM    O1111080   6.392   3.465  10.687 -0.4501 -0.1784 -0.1247
  108OSM    O1211081   6.398   3.612  10.886 -0.5039  0.3521  0.8060
  108OSM    C1S11082   6.260   3.501  10.648 -0.0849 -0.4695  0.1895
  108OSM    H1S11083   6.227   3.591  10.704  1.9643  1.6717 -1.8302
  108OSM    H1T11084   6.197   3.412  10.669  0.7186 -0.7268  1.6922
  108OSM     NF11085   6.137   3.636  10.473 -0.5196  0.3093  0.3187
  108OSM    HNF11086   6.049   3.596  10.449 -0.5505 -0.1412  1.1502
  108OSM    C2S11087   6.250   3.544  10.495 -0.2340 -0.5460 -0.6045
  108OSM    H2S11088   6.345   3.598  10.479  0.4893 -1.6932 -0.2985
  108OSM    C3S11089   6.255   3.415  10.400 -0.2570  0.1866 -0.1949
  108OSM    H3S11090   6.167   3.354  10.432  0.5645 -0.9005  0.0567
  108OSM     O311091   6.368   3.326  10.425  0.4805  0.1843  0.3541
  108OSM    HO311092   6.405   3.361  10.506  1.6515  0.0846 -0.1200
  108OSM    C4S11093   6.248   3.453  10.262  0.1159 -0.2717  0.0479
  108OSM    H4S11094   6.345   3.488  10.225  0.5775 -0.2686  1.2258
  108OSM    C5S11095   6.146   3.415  10.181  0.1719 -0.0204  0.0935
  108OSM    H5S11096   6.058   3.369  10.227  0.0048 -0.1023 -0.3059
  108OSM    C6S11097   6.147   3.440  10.031  0.5132 -0.5208 -0.3360
  108OSM    H6S11098   6.210   3.531  10.019  0.5083 -0.2536  1.4609
  108OSM    H6T11099   6.047   3.461   9.987  0.1908 -2.0830 -0.3858
  108OSM    C7S11100   6.203   3.331   9.943  0.4911  0.5346  0.5105
  108OSM    H7S11101   6.128   3.250   9.954 -0.3036  0.9744 -1.1978
  108OSM    H7T11102   6.299   3.294   9.984  0.4786 -1.8852 -1.3598
  108OSM    C8S11103   6.201   3.380   9.793  0.4084 -0.4520  0.1941
  108OSM    H8S11104   6.290   3.442   9.771 -0.1460  0.3223  0.0526
  108OSM    H8T11105   6.125   3.461   9.789  0.9069 -0.0511 -2.5691
  108OSM    C9S11106   6.211   3.271   9.688 -0.1914  0.2193  0.2141
  108OSM    H9S11107   6.122   3.205   9.707  0.4565 -0.8492 -0.3760
  108OSM    H9T11108   6.298   3.204   9.707  0.2059  1.0514  1.4053
  108OSM   C10S11109   6.225   3.316   9.546 -0.8453 -0.3292  0.5313
  108OSM   H10S11110   6.294   3.403   9.549 -2.6944  1.2017  2.4031
  108OSM   H10T11111   6.127   3.356   9.511  0.3057  1.3984 -0.9182
  108OSM   C11S11112   6.275   3.208   9.455  0.8905  0.0184 -0.1248
  108OSM   H11S11113   6.359   3.154   9.503  1.1049  1.8799  1.7314
  108OSM   H11T11114   6.313   3.249   9.359  2.2891 -0.8739  0.0191
  108OSM   C12S11115   6.165   3.104   9.424 -0.0429  0.2269  0.6980
  108OSM   H12S11116   6.073   3.159   9.394 -0.4669  1.0152  3.2027
  108OSM   H12T11117   6.141   3.048   9.517  0.0768  1.3887  1.4478
  108OSM   C13S11118   6.191   3.009   9.305 -0.1168  0.0641  0.0167
  108OSM   H13S11119   6.116   2.927   9.307 -0.0300 -0.0183 -0.1443
  108OSM   H13T11120   6.285   2.956   9.328 -0.6937 -0.7031  0.6486
  108OSM   C14S11121   6.199   3.069   9.162 -0.4195  0.3235  0.3770
  108OSM   H14S11122   6.272   3.152   9.155  0.5692 -0.6212 -0.9077
  108OSM   H14T11123   6.096   3.105   9.141 -1.7353 -2.3110  1.7093
  108OSM   C15S11124   6.246   2.957   9.079  0.1077 -0.3222 -0.5772
  108OSM   H15S11125   6.158   2.891   9.064  0.6338 -1.6756  1.8141
  108OSM   H15T11126   6.324   2.892   9.124  0.2642  0.5444  0.4551
  108OSM   C16S11127   6.296   3.014   8.949  0.1755 -0.6897  0.1410
  108OSM   H16S11128   6.392   3.064   8.975  0.7635 -1.6775 -0.0926
  108OSM   H16T11129   6.223   3.082   8.901  0.5806  0.0978  0.6179
  108OSM   C17S11130   6.326   2.904   8.848 -0.6065  0.2603 -0.2080
  108OSM   H17S11131   6.245   2.839   8.811  0.8015 -2.7622  1.6285
  108OSM   H17T11132   6.395   2.822   8.878 -1.5238 -0.1236  0.9619
  108OSM   C18S11133   6.389   2.972   8.730  0.2791  0.2464  0.6411
  108OSM   H18S11134   6.317   3.024   8.663  1.4550 -2.0316 -2.6239
  108OSM   H18T11135   6.428   2.897   8.658 -2.9447 -1.3939  0.4233
  108OSM   H18U11136   6.473   3.042   8.750  1.2911 -1.1602  1.4655
  108OSM    C1F11137   6.140   3.765  10.502  0.3984  0.1303 -0.1454
  108OSM     OF11138   6.228   3.828  10.562 -0.4286  0.2967  0.6663
  108OSM    C2F11139   6.013   3.842  10.456  0.2320 -0.7852  0.1354
  108OSM    H2F11140   5.946   3.866  10.541 -1.3495 -0.5807 -1.1284
  108OSM    H2G11141   5.965   3.765  10.392  1.4049 -2.4329  1.1450
  108OSM    C3F11142   6.058   3.957  10.365  0.6810 -0.6801  0.0007
  108OSM    H3F11143   6.144   3.919  10.306  1.7678  1.6195  0.0006
  108OSM    H3G11144   6.097   4.037  10.431 -0.3390 -0.4025  0.2793
  108OSM    C4F11145   5.946   4.012  10.277  0.0948 -0.1640 -0.1887
  108OSM    H4F11146   5.919   4.114  10.312 -0.2385 -0.3375  0.0595
  108OSM    H4G11147   5.852   3.956  10.296  0.5546 -0.7399  0.3942
  108OSM    C5F11148   5.966   4.020  10.126  0.3138  0.2874  0.3886
  108OSM    H5F11149   6.066   4.065  10.108  1.5883 -2.2788  0.5436
  108OSM    H5G11150   5.885   4.080  10.080  0.7628 -2.0655 -3.9309
  108OSM    C6F11151   5.973   3.878  10.063 -0.2195 -0.2442  0.6185
  108OSM    H6F11152   5.874   3.865  10.015  0.7375  0.6822 -1.7511
  108OSM    H6G11153   6.009   3.795  10.128  0.7140 -1.2829 -1.1517
  108OSM    C7F11154   6.065   3.872   9.937  0.1277 -0.6510 -0.0823
  108OSM    H7F11155   6.058   3.768   9.897 -1.3504 -0.7868  0.4736
  108OSM    H7G11156   6.166   3.885   9.982 -0.6803  0.2997  1.5262
  108OSM    C8F11157   6.037   3.978   9.824  0.6216  0.8684 -0.0319
  108OSM    H8F11158   6.110   3.976   9.740  0.3379 -2.6965 -0.3287
  108OSM    H8G11159   6.059   4.074   9.876  0.8495  0.2441  1.0444
  108OSM    C9F11160   5.907   3.962   9.762  0.7199 -0.8069  0.1599
  108OSM    H9F11161   5.837   4.036   9.803  1.0069 -1.2150  1.4188
  108OSM   C10F11162   5.868   3.874   9.666 -0.6494 -0.5496 -0.2097
  108OSM   H10F11163   5.762   3.873   9.637 -1.4430  1.3656  2.2156
  108OSM   C11F11164   5.959   3.769   9.613 -0.4060  0.1752  0.1667
  108OSM   H11F11165   5.914   3.669   9.629 -3.4234  1.7973  2.7213
  108OSM   H11G11166   6.047   3.767   9.681  0.4280  0.9246 -0.8483
  108OSM   C12F11167   6.009   3.778   9.471 -1.1085  0.1261 -0.3475
  108OSM   H12F11168   6.075   3.861   9.440 -0.5179 -0.0621  0.3709
  108OSM   H12G11169   5.925   3.772   9.399 -0.8685 -0.6120 -0.5809
  108OSM   C13F11170   6.101   3.656   9.430 -1.1899  0.1656 -0.2943
  108OSM   H13F11171   6.035   3.567   9.439 -0.7291 -0.3277 -1.5928
  108OSM   H13G11172   6.190   3.653   9.497 -0.2171  1.0590 -1.5074
  108OSM   C14F11173   6.155   3.665   9.292  0.7005 -0.1737  0.2576
  108OSM   H14F11174   6.229   3.747   9.283 -0.5796  1.1576  1.3381
  108OSM   H14G11175   6.074   3.679   9.218 -1.7087 -1.7109  2.4552
  108OSM   C15F11176   6.218   3.531   9.238 -0.1160 -1.0589 -0.7139
  108OSM   H15F11177   6.154   3.449   9.278 -0.5102 -1.4252 -2.0119
  108OSM   H15G11178   6.319   3.523   9.283 -0.3538 -3.5530 -0.4787
  108OSM   C16F11179   6.214   3.522   9.091 -0.0002  0.2949  0.9575
  108OSM   H16F11180   6.251   3.602   9.024 -1.9641 -0.0654 -0.6666
  108OSM   H16G11181   6.104   3.523   9.075 -0.2279  1.8628  2.4080
  108OSM   C17F11182   6.264   3.389   9.032 -0.1293  0.2682  0.3330
  108OSM   H17F11183   6.187   3.310   9.045  0.1650  0.2214  1.9530
  108OSM   H17G11184   6.339   3.359   9.108 -1.1895  0.2267  1.3840
  108OSM   C18F11185   6.342   3.402   8.896  0.2385 -0.5498  0.1786
  108OSM   H18F11186   6.423   3.478   8.900 -0.7487  0.8179 -2.7355
  108OSM   H18G11187   6.280   3.428   8.808 -0.5781 -1.3387  0.5057
  108OSM   H18H11188   6.380   3.300   8.876 -1.2610 -0.8391 -1.3981
  109OSM      N11189   6.581   4.462  11.399  0.3141  0.0823  0.0026
  109OSM    C1511190   6.653   4.331  11.394 -0.1048  0.4999  0.2113
  109OSM   H15A11191   6.759   4.350  11.380  0.0278  2.0850  2.7557
  109OSM   H15B11192   6.618   4.268  11.313 -0.7098  1.9172 -0.6740
  109OSM   H15C11193   6.650   4.266  11.480  0.0955  0.3848  0.1329
  109OSM    C1411194   6.438   4.440  11.432  0.1627  0.3650  0.6306
  109OSM   H14A11195   6.381   4.529  11.409 -0.5209 -0.6757 -2.2240
  109OSM   H14B11196   6.416   4.405  11.532 -0.6483 -0.2324  0.2607
  109OSM   H14C11197   6.393   4.365  11.368  0.1247  0.3781  0.6407
  109OSM    C1311198   6.634   4.554  11.503  0.4421  0.5861  0.7809
  109OSM   H13A11199   6.575   4.643  11.516  0.8993  0.9287  0.5087
  109OSM   H13B11200   6.723   4.593  11.458 -0.6863  1.5535 -0.7058
  109OSM   H13C11201   6.643   4.511  11.602 -0.3884 -1.1625  0.1556
  109OSM    C1211202   6.599   4.530  11.264  0.7991  0.7608 -0.2459
  109OSM   H12A11203   6.555   4.468  11.186  1.2791  1.3770 -1.0251
  109OSM   H12B11204   6.704   4.538  11.242  1.7911 -1.1232  3.1681
  109OSM    C1111205   6.538   4.672  11.246 -0.5517  0.0645  0.5327
  109OSM   H11A11206   6.577   4.735  11.328  0.4082  0.9957 -0.5929
  109OSM   H11B11207   6.427   4.669  11.248 -0.8178 -1.2898 -3.9040
  109OSM      P11208   6.721   4.782  11.105  0.0516 -0.5048  0.1146
  109OSM    O1311209   6.698   4.926  11.124 -0.4624 -0.8748 -0.0259
  109OSM    O1411210   6.821   4.732  11.191 -0.3559  0.2501 -0.4471
  109OSM    O1111211   6.762   4.751  10.953 -0.1939 -0.0171 -0.0235
  109OSM    O1211212   6.582   4.705  11.116  0.5879 -0.0728  0.3192
  109OSM    C1S11213   6.665   4.758  10.844 -0.1480 -0.0498 -0.9911
  109OSM    H1S11214   6.580   4.825  10.867 -0.0482  0.0550 -0.9268
  109OSM    H1T11215   6.623   4.658  10.821 -0.3767 -0.1201 -0.2937
  109OSM     NF11216   6.655   4.866  10.625  0.1291  1.2890 -0.3667
  109OSM    HNF11217   6.666   4.815  10.541 -1.5304  0.3477 -0.0601
  109OSM    C2S11218   6.748   4.826  10.728  0.1338 -0.1087  0.1623
  109OSM    H2S11219   6.804   4.913  10.769  1.9263 -1.2751  0.2552
  109OSM    C3S11220   6.869   4.734  10.675 -0.2997  0.3126  0.6633
  109OSM    H3S11221   6.814   4.643  10.643  1.8311 -1.4127  1.6669
  109OSM     O311222   6.958   4.683  10.767  0.6247 -0.1731  0.2958
  109OSM    HO311223   6.906   4.689  10.847 -1.4731 -0.2482 -0.9740
  109OSM    C4S11224   6.936   4.789  10.553  0.1728 -0.3452 -0.0747
  109OSM    H4S11225   6.887   4.758  10.459 -2.0282  2.6485 -0.0547
  109OSM    C5S11226   7.054   4.860  10.553  0.0054  0.2516  0.0273
  109OSM    H5S11227   7.108   4.887  10.645  1.6473  0.1982 -0.8824
  109OSM    C6S11228   7.131   4.913  10.431 -0.3846  0.0772  0.2477
  109OSM    H6S11229   7.196   4.827  10.403 -0.1051  0.1470  0.6728
  109OSM    H6T11230   7.201   4.995  10.458 -2.4730  1.4612  1.8507
  109OSM    C7S11231   7.037   4.954  10.309 -0.2877  1.1800 -0.3224
  109OSM    H7S11232   6.946   5.002  10.351 -1.6903 -1.8994  0.5028
  109OSM    H7T11233   6.994   4.860  10.269  0.4961  1.0916 -0.9717
  109OSM    C8S11234   7.100   5.017  10.189  0.0668 -0.0494 -0.0632
  109OSM    H8S11235   7.211   5.020  10.189  0.0551  1.9509  0.8581
  109OSM    H8T11236   7.064   5.120  10.208 -0.5423 -0.3456  0.4044
  109OSM    C9S11237   7.052   4.978  10.047  0.1782 -0.2181  0.3327
  109OSM    H9S11238   6.942   4.995  10.049  0.6688  4.2245 -0.7232
  109OSM    H9T11239   7.072   4.870  10.028 -1.0987 -0.6978  1.5373
  109OSM   C10S11240   7.118   5.061   9.935 -0.4948 -0.1302  0.7369
  109OSM   H10S11241   7.224   5.026   9.933 -0.7036 -0.8161 -1.4500
  109OSM   H10T11242   7.121   5.170   9.958  1.6573  0.9972 -3.6987
  109OSM   C11S11243   7.053   5.035   9.799  0.2370 -0.3431  0.0704
  109OSM   H11S11244   6.952   5.083   9.797 -0.0777 -0.9407  0.8850
  109OSM   H11T11245   7.041   4.925   9.796 -3.6237 -0.0341 -1.5232
  109OSM   C12S11246   7.120   5.086   9.666  0.1037 -0.1012  0.0481
  109OSM   H12S11247   7.203   5.015   9.643  0.8065  0.8472 -0.3836
  109OSM   H12T11248   7.163   5.186   9.687  0.0357  0.3768 -1.8981
  109OSM   C13S11249   7.028   5.098   9.547 -0.0652  0.6097 -0.2093
  109OSM   H13S11250   6.947   5.174   9.558 -1.2062 -0.4029 -1.2580
  109OSM   H13T11251   6.988   4.995   9.537  2.1524 -0.2522 -0.6722
  109OSM   C14S11252   7.117   5.118   9.421  0.0425  0.3580 -0.3272
  109OSM   H14S11253   7.192   5.037   9.407 -1.1384 -0.8120 -0.1203
  109OSM   H14T11254   7.155   5.217   9.451  0.7522 -0.2077  0.7106
  109OSM   C15S11255   7.033   5.116   9.300 -0.2751 -0.3508  0.5647
  109OSM   H15S11256   6.942   5.180   9.307 -0.2736 -0.3201  0.3187
  109OSM   H15T11257   6.992   5.017   9.273 -0.3046 -0.0852 -0.4256
  109OSM   C16S11258   7.116   5.161   9.174 -1.1039 -0.4081  0.2703
  109OSM   H16S11259   7.184   5.074   9.163 -0.6005 -0.1705  1.3382
  109OSM   H16T11260   7.178   5.245   9.214  1.4975 -1.8904 -0.4303
  109OSM   C17S11261   7.041   5.183   9.049 -0.4192 -0.5379  0.2669
  109OSM   H17S11262   6.944   5.236   9.064 -0.2279 -0.6118  1.9441
  109OSM   H17T11263   7.010   5.086   9.006  0.7260 -1.3062  1.1131
  109OSM   C18S11264   7.124   5.263   8.952 -0.0921  0.2989  0.1233
  109OSM   H18S11265   7.212   5.198   8.932 -1.3461 -1.4923  0.1789
  109OSM   H18T11266   7.157   5.351   9.010 -0.8067  0.2601  0.6094
  109OSM   H18U11267   7.064   5.289   8.862 -0.1248  0.4974  0.2029
  109OSM    C1F11268   6.566   4.964  10.650 -0.2948 -0.4962  0.2606
  109OSM     OF11269   6.573   5.035  10.751 -0.0348 -0.0020 -0.2989
  109OSM    C2F11270   6.461   4.989  10.539 -0.5210  0.0807  0.4183
  109OSM    H2F11271   6.400   4.900  10.514 -1.1209  0.7370 -0.5267
  109OSM    H2G11272   6.524   5.024  10.454 -0.6342  0.7473  0.6031
  109OSM    C3F11273   6.361   5.099  10.583  1.2836  0.1044  0.4117
  109OSM    H3F11274   6.414   5.188  10.622  0.6681  0.0682  1.3685
  109OSM    H3G11275   6.299   5.067  10.669 -0.5167 -1.7214 -1.4515
  109OSM    C4F11276   6.267   5.134  10.471  0.2707 -0.4201 -0.5261
  109OSM    H4F11277   6.197   5.208  10.515 -1.0025 -1.6364 -0.4255
  109OSM    H4G11278   6.208   5.048  10.435  0.2876 -0.2995 -0.8447
  109OSM    C5F11279   6.348   5.198  10.354  1.1641 -0.1245 -0.1096
  109OSM    H5F11280   6.417   5.125  10.305 -0.8823 -0.0543 -3.4272
  109OSM    H5G11281   6.411   5.278  10.400  2.0292 -0.3173 -0.9126
  109OSM    C6F11282   6.255   5.234  10.237 -1.1908  0.2556 -0.0154
  109OSM    H6F11283   6.221   5.143  10.183  0.5437  0.4395 -1.5083
  109OSM    H6G11284   6.319   5.300  10.174  1.4813 -1.4062  0.7683
  109OSM    C7F11285   6.131   5.307  10.297 -0.0578  1.2496 -0.1742
  109OSM    H7F11286   6.163   5.390  10.364  2.8223  0.4940 -0.5204
  109OSM    H7G11287   6.068   5.235  10.354  2.0415 -0.4288  0.1369
  109OSM    C8F11288   6.032   5.369  10.194  0.3588  0.1827  0.6106
  109OSM    H8F11289   6.082   5.441  10.126 -2.3219  1.2586 -0.3710
  109OSM    H8G11290   5.961   5.432  10.252  0.9476  1.2464  0.2135
  109OSM    C9F11291   5.961   5.265  10.115 -0.1808 -0.4572  0.2753
  109OSM    H9F11292   5.876   5.224  10.170 -0.6358  1.8978  1.4099
  109OSM   C10F11293   6.003   5.222   9.997 -0.5073  0.5698 -0.0813
  109OSM   H10F11294   5.936   5.160   9.935 -0.7465 -0.0269  0.7575
  109OSM   C11F11295   6.121   5.268   9.923  0.3020  0.3860  0.1962
  109OSM   H11F11296   6.184   5.177   9.908 -0.4295 -0.0865 -0.0314
  109OSM   H11G11297   6.186   5.333   9.985  0.2863 -0.2491  0.8989
  109OSM   C12F11298   6.094   5.329   9.787 -1.1992  0.4953 -0.0692
  109OSM   H12F11299   6.191   5.350   9.738 -2.3478  3.3963 -1.3050
  109OSM   H12G11300   6.049   5.430   9.790  0.7923  1.4815 -1.5651
  109OSM   C13F11301   6.014   5.241   9.689 -0.0622  0.0738  0.7029
  109OSM   H13F11302   5.906   5.235   9.716 -0.1511 -0.0038  0.3290
  109OSM   H13G11303   6.044   5.136   9.711  1.3364  0.3329  0.1659
  109OSM   C14F11304   6.020   5.276   9.540  0.2500 -1.0886  0.0776
  109OSM   H14F11305   5.979   5.378   9.529 -2.3655 -1.7680  2.5843
  109OSM   H14G11306   5.951   5.212   9.481 -3.1900  3.1319 -1.0016
  109OSM   C15F11307   6.162   5.273   9.473 -0.0259 -0.9718 -0.9341
  109OSM   H15F11308   6.201   5.170   9.463  1.3576 -0.4229 -1.4584
  109OSM   H15G11309   6.235   5.343   9.520 -3.2471  1.7850  0.4032
  109OSM   C16F11310   6.125   5.339   9.340 -0.5528  0.7273 -0.1766
  109OSM   H16F11311   6.113   5.449   9.347  3.4378  1.2869  0.3288
  109OSM   H16G11312   6.026   5.305   9.304 -0.7632  2.0063 -0.8905
  109OSM   C17F11313   6.246   5.329   9.235  0.3648 -0.5495 -0.8988
  109OSM   H17F11314   6.267   5.220   9.233 -1.0855 -0.8416 -2.0712
  109OSM   H17G11315   6.340   5.379   9.266  2.3284 -4.0272 -0.6218
  109OSM   C18F11316   6.207   5.372   9.094  0.3737  0.3325  0.6286
  109OSM   H18F11317   6.112   5.324   9.060  0.2452  0.0962  1.2922
  109OSM   H18G11318   6.283   5.342   9.019 -0.2700  1.3373 -0.4733
  109OSM   H18H11319   6.196   5.482   9.084  1.7389  0.5391  1.2645
  110OSM      N11320   0.903   4.370  11.105  0.6206  0.1201  0.8758
  110OSM    C1511321   1.028   4.420  11.172 -0.2601 -0.4291 -0.2307
  110OSM   H15A11322   1.006   4.496  11.244  2.1983  3.0541 -2.8160
  110OSM   H15B11323   1.092   4.463  11.096  0.7867  1.6688  1.7077
  110OSM   H15C11324   1.078   4.334  11.214 -3.6405 -1.5674  1.8065
  110OSM    C1411325   0.944   4.255  11.015  0.5782  0.0510  0.2352
  110OSM   H14A11326   0.974   4.172  11.078 -1.9080 -1.6246 -0.6008
  110OSM   H14B11327   1.025   4.284  10.950  0.9413 -1.2800  0.0489
  110OSM   H14C11328   0.859   4.220  10.959 -0.4776 -0.4548  2.0555
  110OSM    C1311329   0.818   4.319  11.212  0.0454 -0.6942  0.6845
  110OSM   H13A11330   0.884   4.249  11.262  0.7288  0.4000  1.3430
  110OSM   H13B11331   0.723   4.277  11.184 -0.1472 -0.2054  0.6027
  110OSM   H13C11332   0.796   4.387  11.293  1.1592 -0.0611  0.4676
  110OSM    C1211333   0.826   4.475  11.027  0.1203 -0.5210 -0.2062
  110OSM   H12A11334   0.792   4.555  11.091 -1.8144 -1.0537 -0.5136
  110OSM   H12B11335   0.735   4.425  11.000 -0.5053  0.1389  0.6036
  110OSM    C1111336   0.903   4.545  10.913 -0.7041  0.3882  0.0710
  110OSM   H11A11337   0.841   4.624  10.865  0.0867  1.0515  0.1221
  110OSM   H11B11338   0.932   4.459  10.849 -0.7947  1.1859 -1.0698
  110OSM      P11339   1.023   4.761  11.027 -0.4980 -0.3044  0.2385
  110OSM    O1311340   0.906   4.773  11.120 -0.0883  0.3159  0.8889
  110OSM    O1411341   1.158   4.791  11.075  0.4310  0.0086 -0.8818
  110OSM    O1111342   0.990   4.860  10.913  0.5223 -0.1545  0.6722
  110OSM    O1211343   1.021   4.613  10.963  0.2598  0.4324  0.1383
  110OSM    C1S11344   1.073   4.872  10.796 -0.1654  0.2206 -0.3753
  110OSM    H1S11345   1.178   4.842  10.816 -0.7021 -1.3862  0.1916
  110OSM    H1T11346   1.081   4.979  10.769  0.2536  0.3862  0.3883
  110OSM     NF11347   1.120   4.817  10.569  0.0190 -0.9797 -0.1347
  110OSM    HNF11348   1.113   4.900  10.514  0.8243  0.2936  1.5933
  110OSM    C2S11349   1.021   4.796  10.671  1.0817 -0.0356  0.3848
  110OSM    H2S11350   1.011   4.687  10.693 -0.3215 -0.4507 -2.0328
  110OSM    C3S11351   0.876   4.849  10.633  0.5552 -0.5259 -0.2323
  110OSM    H3S11352   0.876   4.956  10.605 -0.9883  0.0035  1.5979
  110OSM     O311353   0.780   4.855  10.742  0.2378 -0.8412  0.1328
  110OSM    HO311354   0.834   4.842  10.820  0.6028 -0.6728 -0.0865
  110OSM    C4S11355   0.807   4.771  10.524  0.5904  0.0539  0.2359
  110OSM    H4S11356   0.829   4.663  10.516 -0.8685 -0.1931 -1.0406
  110OSM    C5S11357   0.740   4.830  10.423  0.2300 -0.9756  0.0448
  110OSM    H5S11358   0.725   4.939  10.425 -0.8599 -1.1187  0.2274
  110OSM    C6S11359   0.726   4.765  10.290  0.6325  0.6611  0.6143
  110OSM    H6S11360   0.625   4.719  10.285  1.2711 -0.7512  0.0749
  110OSM    H6T11361   0.799   4.682  10.281 -2.0181 -2.0104  2.2038
  110OSM    C7S11362   0.745   4.853  10.165 -0.6647 -0.0236 -0.0193
  110OSM    H7S11363   0.850   4.889  10.152 -0.2561 -0.8142  0.9289
  110OSM    H7T11364   0.680   4.942  10.175  0.5409  0.9971 -1.0005
  110OSM    C8S11365   0.716   4.786  10.029 -0.6641 -0.1663 -0.0229
  110OSM    H8S11366   0.610   4.754  10.028 -1.1286  1.2515  1.3652
  110OSM    H8T11367   0.785   4.699  10.016 -1.7692 -0.9593 -0.7375
  110OSM    C9S11368   0.741   4.886   9.918  0.4210  0.8405  0.0830
  110OSM    H9S11369   0.842   4.929   9.907  0.5512  0.9993  1.5996
  110OSM    H9T11370   0.673   4.974   9.927 -1.9203 -0.9603  1.1740
  110OSM   C10S11371   0.697   4.825   9.786  0.1826 -0.0527 -0.9296
  110OSM   H10S11372   0.590   4.800   9.779 -0.0598  0.9415 -0.9838
  110OSM   H10T11373   0.751   4.729   9.770  1.0257  0.4925 -1.4273
  110OSM   C11S11374   0.726   4.928   9.671 -0.9455 -0.0079  0.4017
  110OSM   H11S11375   0.837   4.937   9.673 -0.9183 -0.3757  0.6689
  110OSM   H11T11376   0.683   5.025   9.703  1.4801  0.4338  2.6773
  110OSM   C12S11377   0.691   4.866   9.532 -0.8308 -0.1189  0.4366
  110OSM   H12S11378   0.588   4.825   9.530 -0.0789 -2.0809  0.1903
  110OSM   H12T11379   0.760   4.783   9.506  0.7930  1.7255 -1.5073
  110OSM   C13S11380   0.725   4.977   9.425 -0.1011  0.0232  0.1186
  110OSM   H13S11381   0.824   5.020   9.452  0.3707 -0.8080 -0.2590
  110OSM   H13T11382   0.641   5.049   9.432  0.3617  0.7907 -1.6417
  110OSM   C14S11383   0.733   4.923   9.281 -0.3239  0.7254  0.4845
  110OSM   H14S11384   0.637   4.871   9.264 -0.2093 -0.0317  1.9357
  110OSM   H14T11385   0.815   4.849   9.284  0.5665  1.6364 -0.5855
  110OSM   C15S11386   0.759   5.022   9.174  0.7575  0.3872 -0.2995
  110OSM   H15S11387   0.862   5.061   9.183  0.5005  0.6957  1.8986
  110OSM   H15T11388   0.701   5.115   9.194  3.1348  1.3224  3.0574
  110OSM   C16S11389   0.718   4.964   9.034 -0.0290 -0.0325 -0.0824
  110OSM   H16S11390   0.608   4.955   9.034 -0.1970  0.9547  2.7763
  110OSM   H16T11391   0.756   4.860   9.044  0.8700  0.3103  0.1939
  110OSM   C17S11392   0.773   5.036   8.911  0.4058 -0.7630  0.4396
  110OSM   H17S11393   0.881   5.048   8.933  0.7622 -1.4223 -0.8793
  110OSM   H17T11394   0.728   5.138   8.914  0.0136 -0.9458  1.0907
  110OSM   C18S11395   0.761   4.963   8.783  0.0365 -0.2078 -0.3494
  110OSM   H18S11396   0.820   5.015   8.705  1.1158  0.4030  0.8505
  110OSM   H18T11397   0.656   4.966   8.745  1.1041 -0.4061 -3.6445
  110OSM   H18U11398   0.788   4.855   8.791 -1.0597 -0.4759  0.0301
  110OSM    C1F11399   1.229   4.740  10.570  0.5364  0.1226  0.3836
  110OSM     OF11400   1.243   4.659  10.659  0.4809 -0.2811 -0.6674
  110OSM    C2F11401   1.332   4.768  10.464 -0.2330  0.9237 -0.1426
  110OSM    H2F11402   1.409   4.840  10.498  1.3170 -0.9018  0.3827
  110OSM    H2G11403   1.283   4.794  10.368  1.3047 -2.1797 -1.9206
  110OSM    C3F11404   1.404   4.632  10.439 -0.6887  0.1329  0.8865
  110OSM    H3F11405   1.344   4.545  10.405  0.7311 -1.2091  1.6971
  110OSM    H3G11406   1.451   4.597  10.533  0.5235 -1.8766 -0.3891
  110OSM    C4F11407   1.514   4.651  10.333 -0.4622  0.1201  0.3374
  110OSM    H4F11408   1.585   4.566  10.332 -0.6553 -0.0891  1.8107
  110OSM    H4G11409   1.576   4.735  10.369 -3.4923  1.5791  2.5411
  110OSM    C5F11410   1.467   4.669  10.189  0.5277  0.3262 -0.4416
  110OSM    H5F11411   1.553   4.693  10.122 -0.9486  3.3709 -1.3984
  110OSM    H5G11412   1.397   4.754  10.181 -2.5620 -1.7984  1.6617
  110OSM    C6F11413   1.400   4.548  10.113 -0.5783 -0.7562  0.5843
  110OSM    H6F11414   1.297   4.537  10.153 -1.7490  0.9169 -1.7008
  110OSM    H6G11415   1.450   4.450  10.112 -0.7918 -0.8661  0.6212
  110OSM    C7F11416   1.386   4.569   9.958  0.3671 -0.1715  0.3502
  110OSM    H7F11417   1.493   4.584   9.933 -0.3459  1.8441 -1.8495
  110OSM    H7G11418   1.345   4.667   9.927  0.8536  0.2220  0.9132
  110OSM    C8F11419   1.324   4.451   9.888 -0.3042  0.1176 -0.3117
  110OSM    H8F11420   1.371   4.361   9.932 -2.3868 -0.3101  1.1576
  110OSM    H8G11421   1.350   4.455   9.780  0.4896 -1.4220 -0.1958
  110OSM    C9F11422   1.175   4.452   9.915  0.6138 -0.4141  0.0719
  110OSM    H9F11423   1.140   4.404  10.008  1.2064 -0.3553  0.3317
  110OSM   C10F11424   1.075   4.500   9.843 -0.2103 -0.7047 -0.3863
  110OSM   H10F11425   0.979   4.484   9.895 -0.5093  0.9861 -0.3598
  110OSM   C11F11426   1.067   4.583   9.722 -0.3367 -0.2672  0.0038
  110OSM   H11F11427   1.164   4.630   9.693  0.2121 -1.8555 -0.8809
  110OSM   H11G11428   1.005   4.674   9.738  0.5918  0.2531  0.7603
  110OSM   C12F11429   1.008   4.509   9.604 -0.1645 -0.5528 -0.4269
  110OSM   H12F11430   0.903   4.487   9.635  0.2499  0.3861  1.8559
  110OSM   H12G11431   1.076   4.425   9.580  3.2760  1.8385  0.1641
  110OSM   C13F11432   0.993   4.594   9.475  0.0882  0.0861  0.0235
  110OSM   H13F11433   1.094   4.620   9.437  1.0626 -0.5902  1.9850
  110OSM   H13G11434   0.950   4.690   9.512 -0.8126 -1.0227  2.0057
  110OSM   C14F11435   0.912   4.539   9.358  0.6788 -0.1368  0.3500
  110OSM   H14F11436   0.970   4.453   9.318  1.7697 -0.1958  1.9402
  110OSM   H14G11437   0.898   4.620   9.284  1.2181  2.5408  2.9863
  110OSM   C15F11438   0.773   4.492   9.398  0.3205  0.2140 -0.4791
  110OSM   H15F11439   0.722   4.577   9.449  0.5272  0.3900 -0.5661
  110OSM   H15G11440   0.779   4.411   9.474 -0.3358  0.6737  0.0722
  110OSM   C16F11441   0.687   4.453   9.272  0.0056  0.2318  0.5420
  110OSM   H16F11442   0.689   4.536   9.199  0.4113  1.5763  2.0139
  110OSM   H16G11443   0.583   4.446   9.310 -0.6310 -1.6981 -1.3898
  110OSM   C17F11444   0.720   4.324   9.206  0.3047  0.6545 -0.6070
  110OSM   H17F11445   0.634   4.255   9.218 -0.3845  1.4830 -0.6703
  110OSM   H17G11446   0.814   4.287   9.252 -0.3855 -0.7647 -0.2666
  110OSM   C18F11447   0.746   4.330   9.060 -0.0912  0.1025  0.9376
  110OSM   H18F11448   0.777   4.231   9.020 -0.0648  0.1645  0.8030
  110OSM   H18G11449   0.823   4.404   9.029  2.1856 -2.3385  0.3803
  110OSM   H18H11450   0.653   4.347   9.002  0.7395  2.4626  0.1550
  111OSM      N11451   3.425   2.429  10.974  0.1073  0.4036 -0.1519
  111OSM    C1511452   3.347   2.306  11.019  0.0571  0.5602  0.0982
  111OSM   H15A11453   3.414   2.233  11.060  0.8388  1.9173  1.3315
  111OSM   H15B11454   3.291   2.264  10.936  1.6065  0.4470 -0.9208
  111OSM   H15C11455   3.274   2.321  11.097 -0.6521  1.0306 -0.6354
  111OSM    C1411456   3.473   2.512  11.092  0.0330 -0.2120  0.0969
  111OSM   H14A11457   3.522   2.604  11.064 -0.0173  0.3369  1.7341
  111OSM   H14B11458   3.543   2.459  11.155  1.5873 -0.2283 -1.5651
  111OSM   H14C11459   3.386   2.548  11.146  0.0662 -1.3248  0.9151
  111OSM    C1311460   3.536   2.383  10.898  0.2055  0.0379  0.4662
  111OSM   H13A11461   3.577   2.470  10.848  2.8392 -2.2360 -1.6014
  111OSM   H13B11462   3.498   2.318  10.820 -1.9050  2.2225 -0.4926
  111OSM   H13C11463   3.607   2.325  10.954 -0.0052 -0.7063 -0.0143
  111OSM    C1211464   3.325   2.512  10.886 -0.3657 -0.0883  0.5146
  111OSM   H12A11465   3.368   2.606  10.853 -1.2498 -0.3522 -1.5915
  111OSM   H12B11466   3.240   2.530  10.949 -0.1702 -0.9351  1.0396
  111OSM    C1111467   3.278   2.438  10.754 -0.3844 -0.0205  0.6855
  111OSM   H11A11468   3.356   2.387  10.694 -2.7263 -1.7520 -1.0697
  111OSM   H11B11469   3.228   2.508  10.684 -0.1759 -2.9840 -2.6820
  111OSM      P11470   3.156   2.211  10.701  0.2143 -0.1275  0.7792
  111OSM    O1311471   3.258   2.108  10.748  0.3187 -0.2643  0.2365
  111OSM    O1411472   3.008   2.167  10.711  0.3970  0.0994 -0.0535
  111OSM    O1111473   3.178   2.283  10.558  0.3165 -0.1851 -0.4758
  111OSM    O1211474   3.178   2.338  10.784  0.0105 -0.6830  0.1563
  111OSM    C1S11475   3.188   2.207  10.433  0.2804  0.5062 -0.1951
  111OSM    H1S11476   3.151   2.105  10.454  1.0171  0.7138  2.6037
  111OSM    H1T11477   3.296   2.190  10.410  0.0163 -3.1759  0.5688
  111OSM     NF11478   3.109   2.183  10.201  0.3585 -0.5742 -0.7084
  111OSM    HNF11479   3.149   2.233  10.124  0.5069  0.2721 -0.0993
  111OSM    C2S11480   3.103   2.267  10.326  0.3849 -0.1982  0.1583
  111OSM    H2S11481   2.996   2.279  10.351 -0.5364 -1.0608 -2.8947
  111OSM    C3S11482   3.146   2.414  10.295 -0.6585 -0.5650  0.9218
  111OSM    H3S11483   3.253   2.410  10.266 -0.5703 -2.1771  1.4042
  111OSM     O311484   3.160   2.513  10.396  0.2860 -0.0896 -0.2783
  111OSM    HO311485   3.167   2.457  10.474  1.9442 -0.0093 -0.3227
  111OSM    C4S11486   3.080   2.468  10.171  0.2583  0.6289  0.3161
  111OSM    H4S11487   3.131   2.447  10.076 -0.4928 -1.2859  0.3069
  111OSM    C5S11488   2.971   2.551  10.147 -0.1501 -0.7848 -0.1069
  111OSM    H5S11489   2.922   2.606  10.229  1.4359  2.5594 -1.2200
  111OSM    C6S11490   2.916   2.601  10.012  0.0821  0.1023 -0.2157
  111OSM    H6S11491   2.960   2.699   9.984  0.2940  0.1261  0.1944
  111OSM    H6T11492   2.805   2.609  10.004 -0.0013 -1.1433 -0.5828
  111OSM    C7S11493   2.964   2.515   9.892  0.1484 -0.4494  0.0027
  111OSM    H7S11494   2.937   2.409   9.909 -0.8154 -0.0176  1.2881
  111OSM    H7T11495   3.075   2.510   9.892  0.1072 -2.6088  1.3767
  111OSM    C8S11496   2.894   2.550   9.754 -0.1609  0.0092 -1.2167
  111OSM    H8S11497   2.915   2.656   9.728  1.0929  0.5463  1.5801
  111OSM    H8T11498   2.786   2.532   9.774  0.4851 -3.3495 -0.1163
  111OSM    C9S11499   2.951   2.465   9.644  0.2729  0.2867 -0.1692
  111OSM    H9S11500   2.938   2.359   9.672  1.0103  0.4760  0.9480
  111OSM    H9T11501   3.059   2.489   9.645  1.0811 -2.2391 -4.1594
  111OSM   C10S11502   2.896   2.494   9.506 -0.5220 -0.3820  0.6563
  111OSM   H10S11503   2.906   2.601   9.479  2.2242 -0.6495  0.3357
  111OSM   H10T11504   2.785   2.486   9.512 -0.7048  1.2959  0.0936
  111OSM   C11S11505   2.960   2.409   9.390  0.0999 -0.3258 -0.3790
  111OSM   H11S11506   3.071   2.421   9.385  0.4023 -1.4150  1.9881
  111OSM   H11T11507   2.912   2.451   9.299 -1.4859 -2.0412 -0.3910
  111OSM   C12S11508   2.942   2.258   9.404 -0.5173  0.5258 -0.4370
  111OSM   H12S11509   2.836   2.230   9.418 -0.5145  0.9737  0.5057
  111OSM   H12T11510   2.993   2.229   9.498  1.1099  0.7357 -1.2136
  111OSM   C13S11511   3.000   2.173   9.293 -0.3751  0.4822  0.3142
  111OSM   H13S11512   2.944   2.178   9.197 -0.9264 -2.1773  0.4170
  111OSM   H13T11513   2.993   2.068   9.328  0.7378  0.2795 -0.0200
  111OSM   C14S11514   3.151   2.203   9.257 -0.1346  0.3087 -0.2034
  111OSM   H14S11515   3.201   2.201   9.356 -1.9296 -0.2588  0.7380
  111OSM   H14T11516   3.154   2.310   9.226 -1.1370  0.2285 -0.6291
  111OSM   C15S11517   3.222   2.096   9.164  0.1202 -0.2992  0.8689
  111OSM   H15S11518   3.209   1.997   9.213  0.6029 -2.2376 -2.5771
  111OSM   H15T11519   3.324   2.128   9.134 -1.8797  4.8476 -1.7155
  111OSM   C16S11520   3.147   2.085   9.027 -0.4401 -0.0789 -0.0483
  111OSM   H16S11521   3.158   2.189   8.988  1.5748  0.9195  2.8828
  111OSM   H16T11522   3.036   2.078   9.037 -0.2155 -0.5390  3.2542
  111OSM   C17S11523   3.206   1.983   8.932 -0.1488 -0.8578  0.5373
  111OSM   H17S11524   3.214   1.883   8.980  1.3302 -0.6030  0.8730
  111OSM   H17T11525   3.309   2.021   8.916 -0.4966  0.1471  0.6007
  111OSM   C18S11526   3.138   1.984   8.792  0.4035 -0.1915 -1.2878
  111OSM   H18S11527   3.142   2.082   8.741 -0.1612 -0.3534 -1.6514
  111OSM   H18T11528   3.032   1.955   8.806  0.1272 -0.0787 -3.0046
  111OSM   H18U11529   3.187   1.909   8.726  0.7364  0.5087 -1.8455
  111OSM    C1F11530   3.062   2.061  10.189  0.1587 -0.6663 -0.2380
  111OSM     OF11531   3.014   1.999  10.283 -0.2335 -0.2051 -0.2770
  111OSM    C2F11532   3.084   2.004  10.049 -0.1436  0.5021  0.3592
  111OSM    H2F11533   3.053   1.898  10.044  0.2179  0.4252 -0.2837
  111OSM    H2G11534   3.194   2.006  10.042 -0.2457  0.7395 -1.8571
  111OSM    C3F11535   3.011   2.090   9.942 -0.0864  0.1620 -0.5224
  111OSM    H3F11536   3.061   2.188   9.933  2.6634 -1.0164  0.6326
  111OSM    H3G11537   2.908   2.106   9.980  0.0598  0.3273 -0.1971
  111OSM    C4F11538   3.015   2.022   9.812 -0.1235  0.0878 -0.5161
  111OSM    H4F11539   3.104   1.956   9.809 -0.9506 -1.4305  2.9264
  111OSM    H4G11540   3.013   2.101   9.734 -1.2777  0.5813 -0.0084
  111OSM    C5F11541   2.880   1.938   9.795 -0.2536  0.4121  1.2754
  111OSM    H5F11542   2.792   1.995   9.830 -1.0399 -1.2279  2.0438
  111OSM    H5G11543   2.886   1.858   9.871  1.8234 -1.2420 -0.4987
  111OSM    C6F11544   2.849   1.868   9.659 -0.6386  1.0625 -0.1284
  111OSM    H6F11545   2.836   1.950   9.586  2.5626  0.0537 -1.9826
  111OSM    H6G11546   2.756   1.807   9.667 -0.6169  1.0590  0.1122
  111OSM    C7F11547   2.950   1.761   9.627  0.4152  0.4507  0.5974
  111OSM    H7F11548   2.944   1.678   9.700 -3.1860 -0.9838 -1.1091
  111OSM    H7G11549   3.055   1.797   9.624  0.2053  1.0444 -0.3060
  111OSM    C8F11550   2.930   1.689   9.489  0.3534 -0.4327 -0.1742
  111OSM    H8F11551   2.822   1.663   9.491  0.4804 -0.9791  1.5102
  111OSM    H8G11552   2.993   1.599   9.508 -0.9362 -1.1697  0.7658
  111OSM    C9F11553   2.976   1.760   9.365 -0.3749  0.5280 -0.1218
  111OSM    H9F11554   2.935   1.861   9.356 -0.6964  0.2849 -1.6389
  111OSM   C10F11555   3.074   1.732   9.286 -0.2245 -0.2254 -0.2796
  111OSM   H10F11556   3.097   1.802   9.205 -1.6530  0.7302  0.0921
  111OSM   C11F11557   3.152   1.601   9.277 -0.4879 -0.4267 -0.1172
  111OSM   H11F11558   3.135   1.543   9.370 -2.0619  1.1206  0.6241
  111OSM   H11G11559   3.262   1.617   9.278 -0.4577 -0.6585  0.1435
  111OSM   C12F11560   3.127   1.515   9.152  0.0413 -0.3127  0.2980
  111OSM   H12F11561   3.027   1.467   9.150 -0.7744  1.3496 -1.3126
  111OSM   H12G11562   3.207   1.442   9.128 -0.3210 -0.7035  0.2635
  111OSM   C13F11563   3.112   1.597   9.015 -0.3128 -0.1719  0.2082
  111OSM   H13F11564   3.211   1.633   8.980 -1.3832  1.0077 -1.7856
  111OSM   H13G11565   3.036   1.677   9.021  1.5034  1.6761 -0.2570
  111OSM   C14F11566   3.059   1.494   8.916 -0.5092 -0.0026 -0.0415
  111OSM   H14F11567   2.964   1.456   8.959 -0.4961  1.0970  1.0074
  111OSM   H14G11568   3.140   1.418   8.906 -0.3006  0.4211 -1.7731
  111OSM   C15F11569   3.014   1.555   8.777  0.4212  0.3909  0.4960
  111OSM   H15F11570   2.972   1.649   8.819 -0.0654 -0.2461  1.4706
  111OSM   H15G11571   2.944   1.480   8.736 -0.2587  0.3305  1.7243
  111OSM   C16F11572   3.122   1.565   8.660 -0.0168 -0.8676 -0.3759
  111OSM   H16F11573   3.200   1.636   8.694 -2.4483  1.5044  0.7101
  111OSM   H16G11574   3.070   1.623   8.580 -1.2011 -0.3809  0.6999
  111OSM   C17F11575   3.166   1.428   8.601  0.2578 -0.0405  0.3282
  111OSM   H17F11576   3.077   1.369   8.571  2.5141 -3.0726 -0.9130
  111OSM   H17G11577   3.228   1.366   8.669  0.5243 -0.9513 -0.7074
  111OSM   C18F11578   3.243   1.432   8.473 -0.0303 -0.3490 -0.0694
  111OSM   H18F11579   3.265   1.326   8.446 -0.7864 -0.2319 -1.2179
  111OSM   H18G11580   3.333   1.494   8.491 -0.2758 -0.0318  0.0857
  111OSM   H18H11581   3.183   1.483   8.395 -0.5997  1.6604  1.6004
  112OSM      N11582   3.490   6.061  11.329  0.4882 -0.4340 -0.4335
  112OSM    C1511583   3.603   5.964  11.357 -0.5957  0.7244  0.2949
  112OSM   H15A11584   3.693   5.999  11.405  0.1933 -1.4106  0.4828
  112OSM   H15B11585   3.631   5.912  11.267 -5.5937  0.3169 -1.3245
  112OSM   H15C11586   3.559   5.891  11.423 -1.8856  1.5242  0.3364
  112OSM    C1411587   3.379   5.995  11.249  0.1842 -0.5355 -0.4503
  112OSM   H14A11588   3.431   5.970  11.158  2.6991  3.4421 -0.3425
  112OSM   H14B11589   3.303   6.068  11.226  1.6114  1.0245 -0.3710
  112OSM   H14C11590   3.337   5.907  11.295  1.3708 -1.4627 -1.0828
  112OSM    C1311591   3.443   6.103  11.468  0.5356 -0.2297 -0.1427
  112OSM   H13A11592   3.427   6.016  11.530  0.6427  0.6598  1.1769
  112OSM   H13B11593   3.347   6.150  11.458  0.4233 -0.4450 -0.0948
  112OSM   H13C11594   3.505   6.179  11.514 -2.4723  2.0570  0.4401
  112OSM    C1211595   3.538   6.183  11.260  0.2774  0.9527  0.1312
  112OSM   H12A11596   3.630   6.213  11.308  1.2035 -1.0135 -0.3210
  112OSM   H12B11597   3.462   6.259  11.259 -0.7353 -0.0318 -0.3727
  112OSM    C1111598   3.570   6.166  11.107 -1.0472 -0.8953  0.6309
  112OSM   H11A11599   3.616   6.264  11.082 -0.2912 -1.7724 -1.6166
  112OSM   H11B11600   3.477   6.159  11.047 -0.7729 -0.7868  0.1947
  112OSM      P11601   3.676   5.980  10.942 -0.3463  0.3349  0.2658
  112OSM    O1311602   3.812   6.023  10.895 -0.4544  0.6509 -0.2168
  112OSM    O1411603   3.640   5.834  10.964 -0.5650  0.3594  0.6060
  112OSM    O1111604   3.560   6.040  10.859  0.1443 -0.0525  0.6636
  112OSM    O1211605   3.654   6.051  11.082 -0.0233 -0.2444 -0.2463
  112OSM    C1S11606   3.589   6.136  10.753 -0.0961 -0.0950 -0.7172
  112OSM    H1S11607   3.685   6.192  10.765 -0.0163  0.1046 -2.1972
  112OSM    H1T11608   3.505   6.208  10.753 -2.6307 -2.8895 -0.8513
  112OSM     NF11609   3.620   6.154  10.497  0.7337 -0.4241  0.1428
  112OSM    HNF11610   3.563   6.150  10.416  3.0914  0.0411 -1.6553
  112OSM    C2S11611   3.597   6.064  10.610  0.4009  0.7967  0.1271
  112OSM    H2S11612   3.689   6.001  10.617  0.9173  1.6286  1.0010
  112OSM    C3S11613   3.490   5.962  10.587 -0.1361  0.6012 -0.6779
  112OSM    H3S11614   3.394   6.018  10.575  0.8698  3.4437  2.7316
  112OSM     O311615   3.457   5.877  10.692 -0.2171 -0.5277 -0.1298
  112OSM    HO311616   3.488   5.932  10.763 -0.8997  1.1385 -1.0643
  112OSM    C4S11617   3.506   5.890  10.455 -0.2688  0.0938  0.0364
  112OSM    H4S11618   3.455   5.943  10.373 -1.4812 -0.0155  0.6993
  112OSM    C5S11619   3.557   5.767  10.430  0.3693 -0.1445 -0.1848
  112OSM    H5S11620   3.600   5.712  10.516  1.4232 -0.7034 -1.0445
  112OSM    C6S11621   3.551   5.684  10.299  0.3508  0.0357 -0.8341
  112OSM    H6S11622   3.517   5.582  10.328  2.2473 -0.8673 -1.6287
  112OSM    H6T11623   3.653   5.654  10.267  0.5665  1.3236 -1.4047
  112OSM    C7S11624   3.480   5.734  10.176  0.3336  0.2489  0.4143
  112OSM    H7S11625   3.525   5.823  10.127 -1.0202  0.3620 -0.6921
  112OSM    H7T11626   3.378   5.773  10.195  0.6642  1.4740 -0.2341
  112OSM    C8S11627   3.463   5.616  10.071  0.8496  0.1700 -0.8183
  112OSM    H8S11628   3.422   5.532  10.130  1.0696  1.9616  2.1114
  112OSM    H8T11629   3.564   5.582  10.038  0.4562 -1.1221 -0.7298
  112OSM    C9S11630   3.379   5.648   9.953 -0.0101 -0.9876 -0.0804
  112OSM    H9S11631   3.282   5.685   9.994  0.8260  1.5491 -0.1858
  112OSM    H9T11632   3.358   5.553   9.900 -0.5656 -0.2226 -1.2898
  112OSM   C10S11633   3.443   5.750   9.852  0.1594 -0.7795  0.1182
  112OSM   H10S11634   3.546   5.713   9.829 -0.5481 -0.9264 -3.2965
  112OSM   H10T11635   3.449   5.849   9.901 -1.1766  0.3640 -1.9056
  112OSM   C11S11636   3.354   5.764   9.728  0.1414  0.4060  0.4287
  112OSM   H11S11637   3.373   5.859   9.674  0.0171 -0.5593 -1.4010
  112OSM   H11T11638   3.248   5.776   9.761 -0.2069  1.8408 -1.1066
  112OSM   C12S11639   3.377   5.653   9.620  0.3839  0.6543 -0.1014
  112OSM   H12S11640   3.330   5.560   9.660 -0.5325  0.7283 -0.9673
  112OSM   H12T11641   3.484   5.627   9.609  0.3319  0.2105  0.3753
  112OSM   C13S11642   3.322   5.680   9.479 -0.1781 -0.2144 -0.9003
  112OSM   H13S11643   3.221   5.724   9.489  0.0072 -0.3688  3.2760
  112OSM   H13T11644   3.325   5.578   9.434  1.7631 -0.4716 -0.2701
  112OSM   C14S11645   3.418   5.776   9.409 -0.6328  0.5547  0.6200
  112OSM   H14S11646   3.523   5.739   9.410 -0.0499  1.8830 -2.1812
  112OSM   H14T11647   3.413   5.875   9.460  0.2495  1.5917 -1.2089
  112OSM   C15S11648   3.380   5.810   9.266 -0.0966 -0.0686  0.1308
  112OSM   H15S11649   3.447   5.882   9.216 -0.9219 -0.3697 -1.4720
  112OSM   H15T11650   3.283   5.864   9.272 -0.2389 -0.0025 -2.0882
  112OSM   C16S11651   3.370   5.689   9.177 -1.0265 -0.1555 -0.3702
  112OSM   H16S11652   3.286   5.627   9.214  0.6541 -2.4350 -0.1837
  112OSM   H16T11653   3.466   5.636   9.191 -1.7378 -0.7390  3.5228
  112OSM   C17S11654   3.341   5.720   9.031  0.3601 -0.0826  0.3079
  112OSM   H17S11655   3.405   5.807   9.003  0.8086 -0.2527  0.8006
  112OSM   H17T11656   3.235   5.751   9.017  1.0824  1.9516 -1.1616
  112OSM   C18S11657   3.383   5.606   8.939  0.4389 -0.2188 -0.4643
  112OSM   H18S11658   3.387   5.636   8.833 -0.0571  0.0491 -0.4119
  112OSM   H18T11659   3.313   5.519   8.935  0.9603 -0.7500  1.0415
  112OSM   H18U11660   3.481   5.569   8.977 -0.5533 -3.0758 -0.3917
  112OSM    C1F11661   3.711   6.251  10.482  0.2168 -0.1104 -0.1414
  112OSM     OF11662   3.790   6.259  10.569 -0.3629  0.2948  0.6586
  112OSM    C2F11663   3.706   6.345  10.364 -1.1025  0.1088 -0.3910
  112OSM    H2F11664   3.614   6.407  10.373 -1.4667 -0.2768 -1.2902
  112OSM    H2G11665   3.698   6.281  10.274  1.5970 -0.2427 -0.4692
  112OSM    C3F11666   3.825   6.445  10.359 -0.2543 -0.1466  0.0940
  112OSM    H3F11667   3.924   6.394  10.359  0.5626  1.3239  1.4708
  112OSM    H3G11668   3.816   6.518  10.442 -0.7002  0.7873 -0.7528
  112OSM    C4F11669   3.825   6.529  10.232 -0.1798 -1.2465  0.1303
  112OSM    H4F11670   3.850   6.637  10.246  0.0220 -1.1487 -0.8681
  112OSM    H4G11671   3.724   6.523  10.187 -1.4058  0.1467  2.4843
  112OSM    C5F11672   3.923   6.473  10.128 -0.1137 -0.5934 -0.7768
  112OSM    H5F11673   3.913   6.367  10.097  0.2190 -0.5553 -1.0234
  112OSM    H5G11674   4.022   6.462  10.178  0.0894  0.7219 -0.8550
  112OSM    C6F11675   3.926   6.565  10.001  0.6732 -0.5640 -0.1850
  112OSM    H6F11676   3.947   6.671  10.029  2.2062 -0.7981 -0.3703
  112OSM    H6G11677   3.830   6.559   9.946  0.1131  1.0453  0.5349
  112OSM    C7F11678   4.038   6.531   9.907  0.5331 -0.0403 -0.8790
  112OSM    H7F11679   4.133   6.521   9.963  0.1572  0.4006 -0.1456
  112OSM    H7G11680   4.060   6.613   9.836 -1.3356  0.1536 -1.2919
  112OSM    C8F11681   4.002   6.404   9.829 -0.1529 -0.4888  0.3568
  112OSM    H8F11682   3.891   6.396   9.831 -0.1008 -1.1040  1.9148
  112OSM    H8G11683   4.036   6.320   9.893 -2.6994  0.0947  2.6477
  112OSM    C9F11684   4.056   6.404   9.685  0.8145  0.3414  0.1241
  112OSM    H9F11685   4.096   6.499   9.647  1.0169  0.1642 -0.1120
  112OSM   C10F11686   4.059   6.283   9.616  0.4990 -0.2415  0.4594
  112OSM   H10F11687   4.110   6.275   9.519  2.6947 -4.0970  1.6802
  112OSM   C11F11688   4.028   6.137   9.654  0.2314 -0.0573  0.2217
  112OSM   H11F11689   3.979   6.144   9.754  0.3783 -1.5898  0.4236
  112OSM   H11G11690   4.122   6.079   9.665  0.2048  0.1186  1.7026
  112OSM   C12F11691   3.928   6.071   9.563 -0.3613  0.1405 -0.5757
  112OSM   H12F11692   3.842   6.140   9.547 -0.5738  0.0327  0.0357
  112OSM   H12G11693   3.890   5.982   9.619  2.6818 -0.5313  0.6184
  112OSM   C13F11694   3.985   6.041   9.421  0.2168 -0.5447 -0.2733
  112OSM   H13F11695   4.081   5.989   9.442  0.1921 -0.3062  0.4933
  112OSM   H13G11696   4.010   6.143   9.385  0.3072 -0.2751  0.5188
  112OSM   C14F11697   3.877   5.961   9.343 -0.6191  0.1224 -0.4096
  112OSM   H14F11698   3.782   6.017   9.355  0.1314  1.1237  1.1185
  112OSM   H14G11699   3.866   5.853   9.369  2.5115  0.2041  1.7282
  112OSM   C15F11700   3.912   5.963   9.191  0.4335 -0.0110  0.4277
  112OSM   H15F11701   4.012   5.919   9.172 -0.2621 -1.3811 -0.2475
  112OSM   H15G11702   3.901   6.067   9.152 -0.0436 -0.4400 -0.6359
  112OSM   C16F11703   3.810   5.885   9.102 -0.7443  0.2643  0.9238
  112OSM   H16F11704   3.711   5.936   9.103 -1.0398 -0.2435 -0.0074
  112OSM   H16G11705   3.804   5.783   9.145  0.9053 -0.0636  0.4572
  112OSM   C17F11706   3.863   5.875   8.955 -0.2201  0.5578 -0.0835
  112OSM   H17F11707   3.973   5.860   8.962 -0.0764  1.0242 -1.1792
  112OSM   H17G11708   3.854   5.968   8.895 -1.1105 -0.7987 -2.1432
  112OSM   C18F11709   3.796   5.756   8.885 -0.1347  0.2905 -0.3045
  112OSM   H18F11710   3.688   5.772   8.868  0.0979  1.1514 -1.0028
  112OSM   H18G11711   3.811   5.668   8.952  0.7431 -0.7409 -1.7956
  112OSM   H18H11712   3.851   5.746   8.790 -1.2187  2.4303 -1.2224
  113OSM      N11713   0.099   1.673  10.962  0.1895  0.1514 -0.5330
  113OSM    C1511714  -0.001   1.638  11.069  0.1328  0.6414  0.0918
  113OSM   H15A11715   0.046   1.662  11.163  1.0454 -1.6501  0.2978
  113OSM   H15B11716  -0.010   1.530  11.072  1.9894  0.4559  0.6059
  113OSM   H15C11717  -0.096   1.689  11.070 -0.7541 -0.9255  0.8361
  113OSM    C1411718   0.091   1.820  10.940 -0.5854 -0.2467  0.5163
  113OSM   H14A11719  -0.009   1.848  10.908 -0.2575 -1.3561 -1.6273
  113OSM   H14B11720   0.160   1.842  10.860 -1.1121  0.9287  0.3557
  113OSM   H14C11721   0.122   1.871  11.030  1.5023 -0.6187  0.0544
  113OSM    C1311722   0.228   1.629  11.013  0.1907  0.1854 -0.2444
  113OSM   H13A11723   0.220   1.522  11.021 -1.4076  0.2354 -0.8892
  113OSM   H13B11724   0.251   1.663  11.112  0.1052 -0.5024  0.0168
  113OSM   H13C11725   0.315   1.658  10.954  1.5695  1.7441  2.3733
  113OSM    C1211726   0.075   1.590  10.840 -0.3118  0.3372 -1.2376
  113OSM   H12A11727  -0.015   1.626  10.792 -2.5791  0.1689  2.5199
  113OSM   H12B11728   0.066   1.489  10.877 -0.3314  1.5489  2.5561
  113OSM    C1111729   0.184   1.593  10.728  0.1831  0.1601 -0.8740
  113OSM   H11A11730   0.229   1.694  10.719  0.8674 -0.0412  0.0841
  113OSM   H11B11731   0.136   1.558  10.635 -0.2070 -2.7303  0.3007
  113OSM      P11732   0.433   1.489  10.703 -0.0010 -0.2085 -0.0820
  113OSM    O1311733   0.509   1.609  10.735 -0.2012  0.3666  0.3849
  113OSM    O1411734   0.498   1.359  10.735 -0.0273 -0.3721 -0.1008
  113OSM    O1111735   0.397   1.499  10.544 -0.2469 -0.6888  0.3622
  113OSM    O1211736   0.285   1.498  10.768  0.7931  0.2530 -0.6722
  113OSM    C1S11737   0.464   1.400  10.467 -0.2010  0.0930 -0.3777
  113OSM    H1S11738   0.404   1.306  10.467  2.3470 -1.6346  0.9879
  113OSM    H1T11739   0.571   1.380  10.485 -0.1389  0.4651 -0.3272
  113OSM     NF11740   0.510   1.324  10.232 -0.0158 -0.0864 -0.1233
  113OSM    HNF11741   0.603   1.320  10.195 -0.0735  2.5696 -0.7155
  113OSM    C2S11742   0.477   1.440  10.317  0.0995  0.2962  0.1236
  113OSM    H2S11743   0.376   1.473  10.285  0.2134  1.2748  0.7345
  113OSM    C3S11744   0.577   1.557  10.293  0.1261  0.3855 -0.0469
  113OSM    H3S11745   0.678   1.511  10.299 -0.0754 -0.1562 -0.6964
  113OSM     O311746   0.573   1.658  10.387  0.7909 -0.3022 -0.1071
  113OSM    HO311747   0.523   1.614  10.456  2.3150  2.3087  2.9470
  113OSM    C4S11748   0.566   1.610  10.159  0.3050  0.0115  0.5832
  113OSM    H4S11749   0.614   1.549  10.081  3.3869  2.7509  0.1126
  113OSM    C5S11750   0.513   1.727  10.110  0.6296 -0.0377 -0.4350
  113OSM    H5S11751   0.465   1.802  10.175  1.2717 -1.0231  1.2274
  113OSM    C6S11752   0.507   1.749   9.965 -0.1653 -0.1558 -0.0271
  113OSM    H6S11753   0.564   1.841   9.941  2.1199 -1.3093  0.7603
  113OSM    H6T11754   0.398   1.759   9.942 -0.2078 -2.9111 -1.4975
  113OSM    C7S11755   0.553   1.640   9.859  0.2582  0.4573 -0.3751
  113OSM    H7S11756   0.524   1.539   9.894  0.7438  0.2130 -0.6721
  113OSM    H7T11757   0.663   1.631   9.857  0.1337 -2.1223  0.6701
  113OSM    C8S11758   0.493   1.670   9.723  0.4006 -0.4192 -0.2150
  113OSM    H8S11759   0.513   1.771   9.682 -3.8767  0.5198 -0.4624
  113OSM    H8T11760   0.383   1.659   9.730  0.3945 -0.7566 -0.8479
  113OSM    C9S11761   0.538   1.568   9.623  0.4032 -0.5819  0.3323
  113OSM    H9S11762   0.510   1.468   9.663 -2.6570 -0.6673 -1.6974
  113OSM    H9T11763   0.648   1.587   9.619  0.1416  0.9792 -0.2728
  113OSM   C10S11764   0.471   1.598   9.484  0.3006 -0.1486  0.7130
  113OSM   H10S11765   0.487   1.707   9.475  2.0532 -0.4423 -0.2690
  113OSM   H10T11766   0.362   1.591   9.502  0.3114  3.3060  3.0626
  113OSM   C11S11767   0.532   1.529   9.366 -0.0709  0.0402  0.1779
  113OSM   H11S11768   0.543   1.420   9.387  1.6777 -0.0304 -0.8884
  113OSM   H11T11769   0.638   1.562   9.359 -0.7297  2.0583 -0.8477
  113OSM   C12S11770   0.460   1.542   9.227 -0.5516 -0.3938  0.0140
  113OSM   H12S11771   0.362   1.594   9.237 -0.0906  0.8053 -1.4219
  113OSM   H12T11772   0.437   1.441   9.188 -0.4745 -1.6535  2.9522
  113OSM   C13S11773   0.555   1.612   9.122  0.2821 -0.1971  0.1381
  113OSM   H13S11774   0.662   1.580   9.127  1.0289  2.2489  1.0919
  113OSM   H13T11775   0.554   1.723   9.130  0.3060 -0.0338 -1.6625
  113OSM   C14S11776   0.506   1.592   8.970 -0.2308 -0.2039  0.5341
  113OSM   H14S11777   0.404   1.634   8.956 -0.7040 -1.2222  0.8526
  113OSM   H14T11778   0.497   1.485   8.945 -1.8726 -0.1228  0.6470
  113OSM   C15S11779   0.610   1.640   8.864  0.4639 -0.0097 -0.8446
  113OSM   H15S11780   0.706   1.591   8.889 -0.4724 -0.9222  1.2227
  113OSM   H15T11781   0.630   1.749   8.876 -0.9824  0.1208  0.8600
  113OSM   C16S11782   0.563   1.606   8.714  0.6526 -0.5185 -0.1246
  113OSM   H16S11783   0.468   1.660   8.694  0.9874  0.7759  1.5849
  113OSM   H16T11784   0.545   1.497   8.702  2.0270 -0.5281 -3.1608
  113OSM   C17S11785   0.662   1.635   8.600 -0.4305  0.0557  0.1360
  113OSM   H17S11786   0.757   1.584   8.627  0.6999  1.7080 -0.5480
  113OSM   H17T11787   0.676   1.744   8.586  0.6866 -0.1709 -0.6703
  113OSM   C18S11788   0.614   1.581   8.460  0.1535  0.6644  0.0617
  113OSM   H18S11789   0.582   1.476   8.472 -0.7544  0.6136 -2.3693
  113OSM   H18T11790   0.680   1.594   8.371 -1.2003  1.3923 -0.8709
  113OSM   H18U11791   0.524   1.641   8.434  1.6431  3.0801  0.1182
  113OSM    C1F11792   0.418   1.238  10.198 -0.3433 -0.0316 -0.1577
  113OSM     OF11793   0.316   1.220  10.266  0.6623 -0.0954  0.4514
  113OSM    C2F11794   0.443   1.169  10.067  0.1250  0.5995  0.7870
  113OSM    H2F11795   0.423   1.060  10.075 -0.4247  0.4454 -1.8734
  113OSM    H2G11796   0.549   1.172  10.034 -0.1480  2.1955 -0.0223
  113OSM    C3F11797   0.344   1.218   9.956 -0.1295 -0.1112  0.2611
  113OSM    H3F11798   0.363   1.318   9.912 -0.0241 -2.0789 -4.7920
  113OSM    H3G11799   0.238   1.207   9.986 -0.5630  2.6035 -0.0334
  113OSM    C4F11800   0.352   1.125   9.835 -0.2563  0.1574 -0.1203
  113OSM    H4F11801   0.297   1.032   9.861 -2.0350  1.0895 -0.3825
  113OSM    H4G11802   0.456   1.088   9.824 -0.4470 -0.5026  0.1948
  113OSM    C5F11803   0.285   1.175   9.709  0.8327 -0.2892  0.1868
  113OSM    H5F11804   0.318   1.279   9.686  1.4049 -0.5595 -0.2600
  113OSM    H5G11805   0.174   1.182   9.706  0.7175 -1.6738  0.3445
  113OSM    C6F11806   0.322   1.085   9.587  0.2155 -0.3869  0.0413
  113OSM    H6F11807   0.251   1.001   9.594 -1.3994  1.0388  1.8976
  113OSM    H6G11808   0.426   1.048   9.599  0.6292 -0.3017 -2.6577
  113OSM    C7F11809   0.312   1.153   9.452 -0.0351 -0.1609 -0.1368
  113OSM    H7F11810   0.362   1.252   9.452  1.5107 -0.8987 -1.3214
  113OSM    H7G11811   0.203   1.170   9.439  0.3011  1.7545 -0.6398
  113OSM    C8F11812   0.369   1.074   9.328 -0.2747  0.0210 -0.2415
  113OSM    H8F11813   0.336   1.139   9.244  0.0986  2.0785  1.1233
  113OSM    H8G11814   0.304   0.984   9.327 -1.6657  0.9861  0.2906
  113OSM    C9F11815   0.520   1.048   9.318  0.2687 -0.5438  0.5612
  113OSM    H9F11816   0.580   1.140   9.320 -0.3082 -0.0730 -1.4478
  113OSM   C10F11817   0.583   0.929   9.292 -0.8154  0.0109  0.0589
  113OSM   H10F11818   0.693   0.936   9.292 -0.8597  1.7056  2.0974
  113OSM   C11F11819   0.518   0.787   9.272  0.0967  0.1105  0.1912
  113OSM   H11F11820   0.412   0.786   9.306 -0.1397 -1.0061 -0.5377
  113OSM   H11G11821   0.572   0.713   9.335  0.5941 -0.1121 -0.4871
  113OSM   C12F11822   0.514   0.765   9.116 -0.1628 -0.5730 -0.0401
  113OSM   H12F11823   0.455   0.847   9.070 -0.7511 -0.5403  0.7307
  113OSM   H12G11824   0.456   0.671   9.111  0.7007 -1.2121  1.2739
  113OSM   C13F11825   0.646   0.762   9.047  0.0843 -0.3299  0.3018
  113OSM   H13F11826   0.711   0.690   9.101 -0.9649  0.2521  2.4662
  113OSM   H13G11827   0.687   0.864   9.068 -2.1857  0.5277  0.8338
  113OSM   C14F11828   0.630   0.736   8.893  0.3379 -0.2388 -0.9801
  113OSM   H14F11829   0.545   0.800   8.859  0.7485 -0.1120 -1.7890
  113OSM   H14G11830   0.603   0.628   8.888  2.1478 -0.7847  0.1997
  113OSM   C15F11831   0.754   0.767   8.809  0.2477  0.0332  0.2392
  113OSM   H15F11832   0.831   0.698   8.850  1.7123  0.7233 -1.2426
  113OSM   H15G11833   0.779   0.873   8.832  0.5065  0.3126 -1.2675
  113OSM   C16F11834   0.734   0.750   8.656 -0.0387 -0.1563  0.0511
  113OSM   H16F11835   0.653   0.818   8.626 -1.0617 -1.9111 -1.3608
  113OSM   H16G11836   0.693   0.647   8.647 -1.7622  0.2608  2.1739
  113OSM   C17F11837   0.859   0.771   8.572  0.8077 -0.1674 -0.0310
  113OSM   H17F11838   0.936   0.694   8.592  1.4548  1.1514  3.3101
  113OSM   H17G11839   0.909   0.861   8.615  0.6282 -0.1618  0.1699
  113OSM   C18F11840   0.836   0.787   8.422 -0.2263  0.4552 -0.0183
  113OSM   H18F11841   0.771   0.873   8.397 -0.4785 -0.2840 -2.1511
  113OSM   H18G11842   0.801   0.693   8.373  3.2404 -0.7312 -0.5059
  113OSM   H18H11843   0.937   0.810   8.383  1.6360 -0.7510  3.7131
  114OSM      N11844   2.434   4.475  11.537 -0.0595  0.0693  0.2771
  114OSM    C1511845   2.497   4.343  11.516 -0.4265 -0.7167 -0.0196
  114OSM   H15A11846   2.435   4.274  11.570 -1.4832  0.8783  0.9035
  114OSM   H15B11847   2.600   4.339  11.546  0.0490  0.2556 -1.3959
  114OSM   H15C11848   2.491   4.316  11.411 -1.0227 -1.4951  0.2031
  114OSM    C1411849   2.284   4.473  11.521 -0.0525  0.0515  0.5233
  114OSM   H14A11850   2.250   4.576  11.529 -2.1867 -0.5217 -0.3219
  114OSM   H14B11851   2.229   4.420  11.597 -1.0026  0.0768 -0.1204
  114OSM   H14C11852   2.247   4.439  11.425 -0.3334  0.0626  0.6263
  114OSM    C1311853   2.451   4.501  11.685  0.1746 -0.0262 -0.0458
  114OSM   H13A11854   2.428   4.411  11.740  1.4887  0.2944  1.1111
  114OSM   H13B11855   2.403   4.590  11.722  0.0298  0.7430 -1.9989
  114OSM   H13C11856   2.557   4.511  11.706  0.2083 -1.2565  0.4870
  114OSM    C1211857   2.490   4.584  11.447 -0.2457  0.2542 -0.5351
  114OSM   H12A11858   2.589   4.603  11.485 -0.6859 -1.0709  1.4611
  114OSM   H12B11859   2.428   4.670  11.471 -1.7891 -1.7551  3.7606
  114OSM    C1111860   2.486   4.577  11.290 -0.2781 -0.3486  0.1906
  114OSM   H11A11861   2.547   4.490  11.257 -0.7447  0.3002 -2.6497
  114OSM   H11B11862   2.534   4.669  11.250 -0.6983 -0.3325 -0.2838
  114OSM      P11863   2.254   4.688  11.219  0.3981  0.3053 -0.3083
  114OSM    O1311864   2.115   4.632  11.239 -0.5390 -0.3258 -0.7556
  114OSM    O1411865   2.301   4.799  11.303 -0.2422  0.0138 -0.7407
  114OSM    O1111866   2.271   4.720  11.067 -0.2251 -0.0988  0.2866
  114OSM    O1211867   2.354   4.566  11.235 -0.0187  0.2523  0.1475
  114OSM    C1S11868   2.398   4.778  11.023  0.2202 -0.7772  0.0474
  114OSM    H1S11869   2.484   4.707  11.030 -0.9258 -2.0741  2.0370
  114OSM    H1T11870   2.434   4.860  11.089  1.7363 -0.5471 -1.0170
  114OSM     NF11871   2.519   4.903  10.845  0.0830  0.2371 -0.0625
  114OSM    HNF11872   2.500   4.999  10.824  2.1013  0.5164 -0.8387
  114OSM    C2S11873   2.399   4.821  10.874 -0.0234 -0.4934  0.2611
  114OSM    H2S11874   2.405   4.728  10.814 -1.7769 -0.5814  0.1502
  114OSM    C3S11875   2.261   4.887  10.831 -0.1711  0.1855 -0.4040
  114OSM    H3S11876   2.251   4.983  10.886 -2.1572 -0.7759  1.0032
  114OSM     O311877   2.145   4.819  10.873  0.4098 -0.4468  0.0087
  114OSM    HO311878   2.171   4.750  10.936  1.3592  0.0075  0.1255
  114OSM    C4S11879   2.254   4.935  10.684  0.1112  0.3372 -0.6105
  114OSM    H4S11880   2.296   5.035  10.666  1.9494  0.4555  3.2828
  114OSM    C5S11881   2.208   4.857  10.581  0.1914 -0.2851  0.6586
  114OSM    H5S11882   2.176   4.753  10.594  2.5201 -1.0801  0.4535
  114OSM    C6S11883   2.211   4.885  10.431 -0.1424  0.1355 -0.1542
  114OSM    H6S11884   2.108   4.881  10.388 -0.2096 -0.7333  0.0661
  114OSM    H6T11885   2.259   4.794  10.389 -1.0950 -0.6328  0.3732
  114OSM    C7S11886   2.260   5.027  10.390  0.0036 -0.9304 -0.1619
  114OSM    H7S11887   2.371   5.022  10.388  0.1581  1.4353 -0.7600
  114OSM    H7T11888   2.228   5.103  10.464 -2.0746 -2.0880  0.2100
  114OSM    C8S11889   2.222   5.081  10.248  0.0174 -0.1937  0.2539
  114OSM    H8S11890   2.280   5.174  10.231 -0.9503  0.5309  0.8124
  114OSM    H8T11891   2.111   5.088  10.249  0.1288  2.6640  0.2695
  114OSM    C9S11892   2.263   4.978  10.137  0.6849 -0.6809 -0.0091
  114OSM    H9S11893   2.244   4.872  10.163 -1.1241 -0.9872 -2.2109
  114OSM    H9T11894   2.369   4.991  10.107 -0.0513  1.1881 -2.0684
  114OSM   C10S11895   2.180   5.007  10.008  0.7420  0.0100  0.4758
  114OSM   H10S11896   2.227   5.084   9.942  0.5924 -0.4695 -0.2032
  114OSM   H10T11897   2.078   5.040  10.038  1.4389  1.1998  1.6761
  114OSM   C11S11898   2.170   4.891   9.912 -0.2028 -0.5186  0.1398
  114OSM   H11S11899   2.119   4.811   9.971 -0.1861  0.3856  1.4255
  114OSM   H11T11900   2.271   4.850   9.893  0.3128  1.4332 -1.6991
  114OSM   C12S11901   2.101   4.926   9.775  0.1502  0.2055 -0.4495
  114OSM   H12S11902   2.144   5.005   9.710  0.8952 -1.8026 -2.5317
  114OSM   H12T11903   1.996   4.960   9.790 -0.5571 -2.0170  0.0585
  114OSM   C13S11904   2.089   4.798   9.690 -0.0236  0.2505  0.8580
  114OSM   H13S11905   2.036   4.714   9.738  0.8571 -0.2726  0.9485
  114OSM   H13T11906   2.192   4.763   9.667  0.1705  2.1987 -1.6984
  114OSM   C14S11907   2.011   4.833   9.567  0.8219  0.3287  0.6430
  114OSM   H14S11908   2.053   4.916   9.507  1.9956 -0.9639 -0.4046
  114OSM   H14T11909   1.905   4.845   9.596  0.9535 -0.8484  1.6960
  114OSM   C15S11910   2.009   4.719   9.470 -0.0735  0.8041 -0.2049
  114OSM   H15S11911   1.996   4.627   9.532 -0.5909  1.2857  0.4249
  114OSM   H15T11912   2.106   4.691   9.424  0.0162 -3.5965  2.1158
  114OSM   C16S11913   1.902   4.720   9.358  0.4743  0.1239  0.4067
  114OSM   H16S11914   1.807   4.746   9.409  0.0136 -0.6882 -0.0038
  114OSM   H16T11915   1.876   4.626   9.304 -0.3259 -0.6094  2.0008
  114OSM   C17S11916   1.939   4.828   9.261 -0.0563  0.1018  0.9905
  114OSM   H17S11917   2.048   4.827   9.240 -0.5732 -2.1800 -2.3716
  114OSM   H17T11918   1.923   4.927   9.308 -2.1065 -0.6908  2.1291
  114OSM   C18S11919   1.865   4.809   9.134 -0.3668 -0.0769  0.2498
  114OSM   H18S11920   1.902   4.723   9.075 -0.4072  1.0277 -1.4430
  114OSM   H18T11921   1.871   4.903   9.075 -0.8313  0.2290  0.6691
  114OSM   H18U11922   1.761   4.774   9.151 -0.2484 -0.6987 -0.3023
  114OSM    C1F11923   2.650   4.854  10.845  0.4417 -0.6748 -0.0147
  114OSM     OF11924   2.670   4.739  10.880  0.0936  0.2714 -0.0303
  114OSM    C2F11925   2.752   4.949  10.793  0.9231 -0.7194 -0.6577
  114OSM    H2F11926   2.756   5.037  10.861 -0.0002 -0.1535 -1.3174
  114OSM    H2G11927   2.719   4.977  10.691  0.0773  0.2727 -0.1301
  114OSM    C3F11928   2.891   4.888  10.793 -0.2545  0.1177 -0.6518
  114OSM    H3F11929   2.899   4.791  10.741 -0.1277 -0.2575  0.0557
  114OSM    H3G11930   2.915   4.858  10.898  1.5191 -1.0063 -1.3319
  114OSM    C4F11931   3.007   4.975  10.737 -0.1918 -0.1970  0.8759
  114OSM    H4F11932   3.106   4.960  10.785  0.6846 -0.4181 -0.9115
  114OSM    H4G11933   2.973   5.076  10.767 -0.1377 -0.3552  1.4788
  114OSM    C5F11934   3.036   4.967  10.581  0.3677 -0.6002 -0.0618
  114OSM    H5F11935   3.070   4.863  10.569 -1.3430 -1.5929  2.6922
  114OSM    H5G11936   3.116   5.043  10.565  1.1820 -1.4941 -0.2979
  114OSM    C6F11937   2.923   4.982  10.482 -0.5251 -0.2760 -0.5416
  114OSM    H6F11938   2.890   5.087  10.469  0.2824 -0.1058 -1.2522
  114OSM    H6G11939   2.833   4.922  10.508  0.1911 -0.8120  0.8134
  114OSM    C7F11940   2.970   4.935  10.346  0.5031 -0.5306  0.4096
  114OSM    H7F11941   2.990   4.826  10.332 -0.4414 -0.8591  1.5040
  114OSM    H7G11942   3.065   4.989  10.329  0.2968 -0.1514  0.4591
  114OSM    C8F11943   2.887   4.992  10.229 -0.1699  0.4990  0.3582
  114OSM    H8F11944   2.960   4.986  10.145 -1.3984  1.0845 -0.7794
  114OSM    H8G11945   2.888   5.101  10.249  2.0698  0.6262 -0.1050
  114OSM    C9F11946   2.753   4.931  10.201  0.0747 -0.8512  0.1415
  114OSM    H9F11947   2.687   4.920  10.289 -0.0706  0.8610  0.2831
  114OSM   C10F11948   2.708   4.871  10.088 -0.3508 -0.6347  0.3100
  114OSM   H10F11949   2.602   4.845  10.089 -0.3873 -0.4871  0.3207
  114OSM   C11F11950   2.789   4.854   9.956 -0.1249  0.5760 -0.1040
  114OSM   H11F11951   2.764   4.760   9.902  0.5434 -0.1106  0.7382
  114OSM   H11G11952   2.896   4.836   9.982 -0.0155  1.0961 -0.1827
  114OSM   C12F11953   2.798   4.971   9.854  0.4528  0.0902  0.2716
  114OSM   H12F11954   2.844   5.058   9.906  0.5321  1.0794 -1.3691
  114OSM   H12G11955   2.692   4.991   9.825  0.3984  1.5217  1.3458
  114OSM   C13F11956   2.884   4.928   9.734  0.4536 -1.0486 -0.5356
  114OSM   H13F11957   2.868   4.819   9.719  0.0005 -1.3490  1.7211
  114OSM   H13G11958   2.987   4.947   9.771 -0.5243  2.6310  0.6959
  114OSM   C14F11959   2.854   5.013   9.603  0.4075  0.0128 -0.7256
  114OSM   H14F11960   2.892   5.117   9.606 -0.7259  0.4235  1.0749
  114OSM   H14G11961   2.744   5.029   9.594  0.2954 -1.1809 -1.7744
  114OSM   C15F11962   2.890   4.931   9.483 -0.2491 -0.2037  0.4050
  114OSM   H15F11963   2.837   4.833   9.483 -0.2630 -0.1957  0.5368
  114OSM   H15G11964   2.999   4.911   9.470 -0.1926  1.5587 -3.1845
  114OSM   C16F11965   2.848   4.999   9.352  0.3253  0.4337 -0.0590
  114OSM   H16F11966   2.902   5.095   9.341  0.0469  0.6849  0.6746
  114OSM   H16G11967   2.742   5.031   9.356  0.4054  0.6071  2.2887
  114OSM   C17F11968   2.873   4.913   9.224 -1.0776 -0.3753 -0.5919
  114OSM   H17F11969   2.827   4.814   9.240 -1.7655 -0.2285 -1.5721
  114OSM   H17G11970   2.982   4.894   9.210 -1.0140 -0.1680 -0.3992
  114OSM   C18F11971   2.818   4.967   9.094 -0.1130  0.3608  0.0408
  114OSM   H18F11972   2.870   5.062   9.069  1.8457 -1.2165 -2.2054
  114OSM   H18G11973   2.709   4.981   9.109  0.3565  2.3110  2.4995
  114OSM   H18H11974   2.833   4.885   9.022  1.5063 -0.2127  0.9823
  115OSM      N11975   4.841   3.419  11.053  0.1348 -0.0988  0.4937
  115OSM    C1511976   4.703   3.478  11.074 -0.0485 -0.0758  0.4191
  115OSM   H15A11977   4.621   3.408  11.073 -1.1105  1.1045  1.3150
  115OSM   H15B11978   4.692   3.560  11.005  3.5579 -0.0913 -0.3940
  115OSM   H15C11979   4.692   3.534  11.166 -2.3910 -0.8578  0.6814
  115OSM    C1411980   4.941   3.526  11.094 -0.2695  0.1036 -0.5144
  115OSM   H14A11981   4.915   3.581  11.183 -0.9491  0.5538 -0.9820
  115OSM   H14B11982   4.962   3.594  11.012 -0.2403  0.8950  0.1399
  115OSM   H14C11983   5.033   3.473  11.110 -0.4512  0.2603  1.1677
  115OSM    C1311984   4.857   3.311  11.150  0.3331 -0.1416 -0.3729
  115OSM   H13A11985   4.827   3.346  11.248  1.7711  2.3371 -0.7308
  115OSM   H13B11986   4.959   3.278  11.146  0.5310  0.4490 -0.3874
  115OSM   H13C11987   4.779   3.241  11.126  0.6923 -0.8463  0.4760
  115OSM    C1211988   4.868   3.362  10.910  0.8873  0.3004  0.5012
  115OSM   H12A11989   4.794   3.286  10.888  1.1310  0.1330  0.2547
  115OSM   H12B11990   4.958   3.303  10.910  0.8385  0.0111 -2.8299
  115OSM    C1111991   4.871   3.461  10.791 -0.0262  0.1224  0.1188
  115OSM   H11A11992   4.769   3.490  10.759  0.1415 -0.6565 -1.2214
  115OSM   H11B11993   4.897   3.399  10.702  0.2483 -1.3451  1.1802
  115OSM      P11994   5.114   3.551  10.769 -0.3856 -0.0592 -0.2142
  115OSM    O1311995   5.191   3.654  10.839 -0.0121  0.0507  0.7038
  115OSM    O1411996   5.150   3.409  10.808 -0.6658  0.2284 -0.3205
  115OSM    O1111997   5.130   3.566  10.614  0.8539 -0.1023 -0.5367
  115OSM    O1211998   4.959   3.570  10.799 -0.7085  0.0384 -0.3479
  115OSM    C1S11999   5.038   3.645  10.539 -0.1297  0.3035  0.5657
  115OSM    H1S12000   4.991   3.728  10.595  0.0508 -0.1717  1.4357
  115OSM    H1T12001   4.953   3.590  10.493  1.3078 -2.0836  0.5893
  115OSM     NF12002   5.006   3.807  10.353  0.2358  0.2748 -0.1762
  115OSM    HNF12003   4.952   3.768  10.279  1.0806  0.9389 -1.1751
  115OSM    C2S12004   5.104   3.714  10.416 -0.8892  0.2018  0.2065
  115OSM    H2S12005   5.187   3.776  10.456 -0.5257 -0.3110  0.2557
  115OSM    C3S12006   5.162   3.615  10.318  0.6069 -0.4193 -0.1998
  115OSM    H3S12007   5.075   3.570  10.266 -0.2125 -0.4716  1.1605
  115OSM     O312008   5.235   3.505  10.372 -0.1157 -0.5329  0.0475
  115OSM    HO312009   5.215   3.508  10.466  1.4928 -2.0286  0.5003
  115OSM    C4S12010   5.245   3.688  10.217 -0.1665 -0.2274 -0.1547
  115OSM    H4S12011   5.195   3.682  10.119 -1.0786 -1.3387  0.3491
  115OSM    C5S12012   5.371   3.740  10.231 -0.0770 -0.1692  0.2741
  115OSM    H5S12013   5.426   3.741  10.327 -0.2370  0.0506  0.3643
  115OSM    C6S12014   5.451   3.788  10.114  0.2517 -0.3943 -0.1239
  115OSM    H6S12015   5.407   3.757  10.016  2.2365 -4.7530  0.0978
  115OSM    H6T12016   5.546   3.730  10.101  0.4812  0.2422 -1.5478
  115OSM    C7S12017   5.482   3.939  10.117 -0.9304  0.2773  0.1087
  115OSM    H7S12018   5.534   3.960  10.213  0.2753 -0.5472 -0.3496
  115OSM    H7T12019   5.392   4.004  10.113  0.2152  1.8683 -1.1763
  115OSM    C8S12020   5.582   3.979  10.003  0.4245 -0.3446  0.4728
  115OSM    H8S12021   5.646   3.890   9.984 -1.3301 -2.2943  2.9115
  115OSM    H8T12022   5.637   4.067  10.044  0.8060 -0.3056 -0.1185
  115OSM    C9S12023   5.502   4.035   9.879 -0.3981  0.0352  0.7718
  115OSM    H9S12024   5.567   4.074   9.798 -0.5684 -0.9489  0.1488
  115OSM    H9T12025   5.453   4.131   9.903 -1.5090 -0.2163 -0.3767
  115OSM   C10S12026   5.394   3.949   9.817  0.0108  0.8562  0.3131
  115OSM   H10S12027   5.306   3.942   9.885  0.8266  1.3302  1.4473
  115OSM   H10T12028   5.429   3.845   9.804  0.9096  1.1263  0.5128
  115OSM   C11S12029   5.345   4.007   9.683  0.4378  0.1258  0.2952
  115OSM   H11S12030   5.333   4.117   9.692 -0.5097  0.0739 -0.1302
  115OSM   H11T12031   5.241   3.969   9.676  0.5641 -0.1880  0.0960
  115OSM   C12S12032   5.442   3.976   9.570  0.2006  0.1422 -0.4176
  115OSM   H12S12033   5.468   3.868   9.555 -0.6354  0.0166 -1.0251
  115OSM   H12T12034   5.538   4.028   9.592 -0.4734  1.0248  0.5023
  115OSM   C13S12035   5.391   4.050   9.445  0.1598  0.3525  0.2761
  115OSM   H13S12036   5.400   4.161   9.445 -2.5762  0.8848 -4.9064
  115OSM   H13T12037   5.288   4.010   9.431 -0.1105  1.0693  0.1849
  115OSM   C14S12038   5.472   4.014   9.319  0.2637  0.4429  0.9740
  115OSM   H14S12039   5.498   3.906   9.318  0.0143  0.1867 -4.4605
  115OSM   H14T12040   5.571   4.063   9.327 -0.8880  2.8382  1.3213
  115OSM   C15S12041   5.404   4.048   9.195 -0.7852  0.3811  0.3954
  115OSM   H15S12042   5.373   4.155   9.189  1.8220  1.1481 -0.7445
  115OSM   H15T12043   5.316   3.981   9.185 -0.1006 -0.5132  0.3280
  115OSM   C16S12044   5.495   4.007   9.081  0.3447 -0.3076  0.1983
  115OSM   H16S12045   5.541   3.907   9.089 -0.2433 -0.4350  2.8278
  115OSM   H16T12046   5.580   4.076   9.060 -1.1060  1.1859 -1.0644
  115OSM   C17S12047   5.418   4.023   8.944 -0.7263  0.5854 -0.0025
  115OSM   H17S12048   5.320   3.975   8.963 -0.3570 -0.2900 -0.2446
  115OSM   H17T12049   5.467   3.967   8.862 -2.3514 -1.8755  0.6047
  115OSM   C18S12050   5.399   4.173   8.901 -0.4340 -0.2072  0.3327
  115OSM   H18S12051   5.350   4.230   8.983 -0.0779  0.4540  0.0928
  115OSM   H18T12052   5.320   4.182   8.824 -0.9919  0.5757  0.9823
  115OSM   H18U12053   5.490   4.227   8.869 -1.2476  0.1355 -1.5107
  115OSM    C1F12054   4.982   3.932  10.387  0.1374  0.9089  0.2378
  115OSM     OF12055   5.029   3.976  10.490  0.3055 -0.5279 -0.4541
  115OSM    C2F12056   4.902   4.002  10.283  0.0995  0.0470  0.6570
  115OSM    H2F12057   4.806   4.027  10.332 -0.2149  1.9107 -0.7742
  115OSM    H2G12058   4.896   3.940  10.192 -2.0328  2.2588 -0.8480
  115OSM    C3F12059   4.979   4.132  10.250 -0.1943 -0.2753  0.2296
  115OSM    H3F12060   4.985   4.199  10.338  1.5534  0.3268 -0.3053
  115OSM    H3G12061   4.904   4.189  10.191  1.4343  0.8741 -0.7983
  115OSM    C4F12062   5.111   4.112  10.174 -0.3470 -0.3514  0.9333
  115OSM    H4F12063   5.108   4.017  10.116  0.1108 -0.6455  1.3740
  115OSM    H4G12064   5.194   4.104  10.248  0.1362 -0.4613  0.3867
  115OSM    C5F12065   5.160   4.221  10.079  0.0725 -0.0338  0.2460
  115OSM    H5F12066   5.267   4.214  10.051 -0.3453 -2.9358 -0.9893
  115OSM    H5G12067   5.140   4.319  10.127  0.8651 -0.6013  1.7835
  115OSM    C6F12068   5.089   4.223   9.944  0.3773  0.3087  0.4396
  115OSM    H6F12069   4.994   4.166   9.940  0.9246 -0.5617 -1.2424
  115OSM    H6G12070   5.149   4.170   9.867  0.0839 -0.0694  0.4683
  115OSM    C7F12071   5.050   4.357   9.892 -0.5064  0.1445  0.3676
  115OSM    H7F12072   5.143   4.414   9.872 -0.7339 -0.9151 -5.1745
  115OSM    H7G12073   4.987   4.408   9.969 -0.0112 -2.0954  2.3905
  115OSM    C8F12074   4.972   4.353   9.760  0.1572 -0.5595 -0.1309
  115OSM    H8F12075   4.964   4.455   9.719 -0.5677 -0.9947 -1.0935
  115OSM    H8G12076   4.872   4.311   9.784  0.0499 -0.3194 -0.1552
  115OSM    C9F12077   5.027   4.277   9.643 -0.9072 -0.5572 -0.4656
  115OSM    H9F12078   5.048   4.172   9.665  1.7789 -0.3520 -1.7114
  115OSM   C10F12079   5.061   4.315   9.520 -0.3281 -0.4894 -0.1535
  115OSM   H10F12080   5.117   4.249   9.452 -1.0998  0.3617 -1.6418
  115OSM   C11F12081   5.048   4.454   9.460  0.5625  0.4577  0.2339
  115OSM   H11F12082   5.130   4.519   9.497 -0.0064  0.3830  1.6761
  115OSM   H11G12083   4.948   4.481   9.500 -1.1022 -3.2312 -0.9290
  115OSM   C12F12084   5.037   4.443   9.307  0.0426 -0.2664  0.4730
  115OSM   H12F12085   5.023   4.545   9.267 -1.5356 -0.6497 -0.0256
  115OSM   H12G12086   4.943   4.392   9.279 -0.9777  1.6050  0.3760
  115OSM   C13F12087   5.154   4.381   9.229  0.0010 -0.4871 -0.0461
  115OSM   H13F12088   5.157   4.270   9.233  1.9319 -0.6049 -2.1001
  115OSM   H13G12089   5.245   4.415   9.282 -1.4104  0.8319  1.6261
  115OSM   C14F12090   5.159   4.444   9.083  0.2089 -0.2929 -0.1036
  115OSM   H14F12091   5.250   4.415   9.027  1.9117 -0.5906  2.6368
  115OSM   H14G12092   5.156   4.555   9.084 -0.7814 -0.2970 -0.7392
  115OSM   C15F12093   5.040   4.405   8.999  0.3530  0.8667 -0.8776
  115OSM   H15F12094   4.949   4.451   9.042  0.2553  2.1326 -2.3406
  115OSM   H15G12095   5.031   4.294   9.008 -0.1349  1.0844  2.2886
  115OSM   C16F12096   5.053   4.440   8.851 -0.7863  0.2686 -0.3475
  115OSM   H16F12097   5.147   4.387   8.826 -1.4820 -2.5805  2.4617
  115OSM   H16G12098   5.067   4.549   8.833  2.1000  0.2273  1.0154
  115OSM   C17F12099   4.939   4.389   8.759 -0.1441 -0.1042 -0.6827
  115OSM   H17F12100   4.843   4.423   8.803 -0.1990  2.8313 -2.8069
  115OSM   H17G12101   4.939   4.278   8.751  0.9715 -0.1481 -0.1856
  115OSM   C18F12102   4.947   4.443   8.619 -0.2119 -0.9999 -0.2415
  115OSM   H18F12103   5.041   4.420   8.565  1.5301  2.3300  1.0732
  115OSM   H18G12104   4.950   4.554   8.625  0.8590 -1.0544  0.8384
  115OSM   H18H12105   4.863   4.416   8.551  0.6913 -0.3358 -1.6581
  116OSM      N12106   2.249   1.993  11.040  0.2092  0.7402  0.1324
  116OSM    C1512107   2.346   2.045  11.146 -0.1094  0.0516  0.0699
  116OSM   H15A12108   2.339   1.981  11.233  0.7898 -0.1705 -0.0147
  116OSM   H15B12109   2.320   2.144  11.179 -4.6171 -1.3692  1.4727
  116OSM   H15C12110   2.448   2.036  11.111  0.6511  3.4917  1.0922
  116OSM    C1412111   2.253   1.846  11.030 -0.9784  0.0617 -0.2314
  116OSM   H14A12112   2.188   1.802  10.956 -0.2765 -1.1000 -0.1879
  116OSM   H14B12113   2.234   1.788  11.119  1.8381  0.7564  0.9265
  116OSM   H14C12114   2.354   1.818  11.006 -0.0616  2.6398  0.2895
  116OSM    C1312115   2.114   2.037  11.076  0.4466 -0.6906  0.3830
  116OSM   H13A12116   2.102   2.142  11.054  3.0545 -0.8813 -2.6977
  116OSM   H13B12117   2.094   2.011  11.179 -0.7572  1.9049  0.8823
  116OSM   H13C12118   2.037   1.984  11.021 -0.0682  0.7623 -0.3446
  116OSM    C1212119   2.271   2.047  10.903  0.0252 -1.2431 -0.6820
  116OSM   H12A12120   2.252   2.153  10.903 -0.0137 -1.1865  1.8794
  116OSM   H12B12121   2.211   1.987  10.836  0.3425 -2.1326 -0.1924
  116OSM    C1112122   2.419   2.039  10.857 -0.6298  0.0160  0.0734
  116OSM   H11A12123   2.482   2.113  10.911 -0.6396  2.8126 -3.3314
  116OSM   H11B12124   2.426   2.086  10.756  0.8376  3.8526  1.7445
  116OSM      P12125   2.524   1.819  10.742 -0.0442 -0.2513 -0.2242
  116OSM    O1312126   2.574   1.698  10.807  0.0146  0.2457 -0.3587
  116OSM    O1412127   2.420   1.807  10.641  0.1303 -0.0441 -0.4367
  116OSM    O1112128   2.644   1.900  10.681 -0.5393  0.0765  0.0842
  116OSM    O1212129   2.471   1.910  10.861 -0.0217 -0.4050 -0.6924
  116OSM    C1S12130   2.719   1.862  10.567  0.0393 -0.0089 -0.4337
  116OSM    H1S12131   2.705   1.758  10.532  0.7523 -0.0369 -0.6330
  116OSM    H1T12132   2.825   1.884  10.591 -0.2038  0.3952  0.3197
  116OSM     NF12133   2.726   1.883  10.325  0.2528 -0.3516  0.5252
  116OSM    HNF12134   2.817   1.914  10.297 -0.1478  0.3998 -0.0026
  116OSM    C2S12135   2.673   1.947  10.444 -0.4357 -0.2939  0.1843
  116OSM    H2S12136   2.562   1.945  10.443 -0.4937  0.5224 -2.4279
  116OSM    C3S12137   2.731   2.089  10.463  0.4401  1.1690 -0.3745
  116OSM    H3S12138   2.839   2.086  10.491  0.4381 -2.7545 -0.1352
  116OSM     O312139   2.674   2.155  10.575 -0.2182  0.7205  0.3084
  116OSM    HO312140   2.614   2.093  10.617 -1.1162  1.8101  0.6756
  116OSM    C4S12141   2.730   2.164  10.335 -0.4468 -0.3298 -0.3459
  116OSM    H4S12142   2.827   2.164  10.283  0.1552  0.6080  0.7226
  116OSM    C5S12143   2.623   2.238  10.293  0.0392 -0.6142  0.3809
  116OSM    H5S12144   2.533   2.238  10.357  0.5480  0.7664  1.1517
  116OSM    C6S12145   2.614   2.319  10.164 -0.6678 -0.2560 -0.0356
  116OSM    H6S12146   2.715   2.330  10.120 -0.3537  2.2398  1.1022
  116OSM    H6T12147   2.600   2.428  10.185  0.5661 -0.0397 -0.2714
  116OSM    C7S12148   2.522   2.263  10.055  0.2504  0.1736  0.6622
  116OSM    H7S12149   2.495   2.349   9.989  0.6112 -1.9390 -2.5009
  116OSM    H7T12150   2.428   2.228  10.102  0.3428  1.4430  1.8338
  116OSM    C8S12151   2.586   2.145   9.981 -0.0379  0.2494 -0.3283
  116OSM    H8S12152   2.582   2.054  10.043  1.1191  0.2311 -0.2550
  116OSM    H8T12153   2.692   2.165   9.954 -0.5081 -0.5257 -3.0803
  116OSM    C9S12154   2.516   2.110   9.853  0.8871 -0.5521 -1.0672
  116OSM    H9S12155   2.408   2.094   9.872  1.0531 -0.2830  0.1583
  116OSM    H9T12156   2.552   2.012   9.813 -0.7632 -1.1525 -1.1621
  116OSM   C10S12157   2.520   2.223   9.753  0.8039 -1.0344 -0.6008
  116OSM   H10S12158   2.626   2.244   9.727  0.9757 -2.0763 -0.8176
  116OSM   H10T12159   2.463   2.314   9.782  2.0454 -0.0836 -1.0565
  116OSM   C11S12160   2.457   2.171   9.621 -1.0346 -1.1118  0.0528
  116OSM   H11S12161   2.430   2.259   9.557 -0.4486 -1.8284 -1.2320
  116OSM   H11T12162   2.363   2.116   9.643 -1.9693 -0.1163 -1.2522
  116OSM   C12S12163   2.555   2.088   9.545  0.3424  0.5440  0.3510
  116OSM   H12S12164   2.581   1.986   9.580  1.5918  0.6725 -0.1695
  116OSM   H12T12165   2.649   2.147   9.543 -0.1443  1.3122 -0.5713
  116OSM   C13S12166   2.477   2.081   9.409 -0.1693  0.1648  0.5058
  116OSM   H13S12167   2.477   2.180   9.358  0.4181 -0.2739 -0.3706
  116OSM   H13T12168   2.373   2.046   9.429 -0.5935  0.1924 -1.4612
  116OSM   C14S12169   2.540   1.977   9.309  0.3961 -0.0031 -0.2407
  116OSM   H14S12170   2.463   1.945   9.235  0.6180 -0.7378 -0.1675
  116OSM   H14T12171   2.546   1.890   9.378  1.0887 -0.1452 -0.4726
  116OSM   C15S12172   2.669   2.036   9.246  0.2046  0.1714  0.4736
  116OSM   H15S12173   2.734   2.081   9.325  1.5853  0.7901 -0.9583
  116OSM   H15T12174   2.642   2.117   9.175 -0.0763 -1.3497 -1.2348
  116OSM   C16S12175   2.740   1.920   9.165 -0.0940  0.4567  0.3853
  116OSM   H16S12176   2.745   1.839   9.241  0.9619  1.1405  1.0537
  116OSM   H16T12177   2.845   1.951   9.145  0.1882  0.5182  1.9094
  116OSM   C17S12178   2.665   1.861   9.037  0.1285 -0.3034 -0.4356
  116OSM   H17S12179   2.630   1.946   8.975  2.8887  1.5107  0.3439
  116OSM   H17T12180   2.576   1.813   9.084 -0.5092  1.9587  0.7977
  116OSM   C18S12181   2.753   1.767   8.964 -0.4584  0.0877  0.0274
  116OSM   H18S12182   2.814   1.693   9.021 -0.3482 -0.1314 -0.3751
  116OSM   H18T12183   2.818   1.819   8.891 -1.4654 -0.4131 -1.2628
  116OSM   H18U12184   2.693   1.708   8.892  2.3686  0.0115 -2.4771
  116OSM    C1F12185   2.653   1.785  10.271 -0.6860 -0.5165 -0.4305
  116OSM     OF12186   2.542   1.752  10.310  0.1597  0.0495  0.3257
  116OSM    C2F12187   2.716   1.718  10.142 -0.5680 -1.0424 -0.2981
  116OSM    H2F12188   2.819   1.682  10.165  0.0159 -1.2659 -2.9796
  116OSM    H2G12189   2.720   1.796  10.063 -3.1354  1.9083  2.2318
  116OSM    C3F12190   2.637   1.593  10.100 -0.5153  0.0333  0.0139
  116OSM    H3F12191   2.527   1.608  10.095 -0.6516 -1.0327 -3.6903
  116OSM    H3G12192   2.655   1.514  10.176  0.7630 -0.3275 -0.6283
  116OSM    C4F12193   2.690   1.527   9.969  0.3833 -0.5759 -1.2540
  116OSM    H4F12194   2.702   1.601   9.888 -0.2233  0.2278 -0.6307
  116OSM    H4G12195   2.622   1.449   9.929 -1.3786  0.0215  0.3763
  116OSM    C5F12196   2.830   1.455   9.975 -0.6119 -0.4854 -0.0097
  116OSM    H5F12197   2.830   1.405  10.074 -2.5995  2.1146  1.4449
  116OSM    H5G12198   2.907   1.536   9.980  0.6040 -1.6764  3.0657
  116OSM    C6F12199   2.846   1.358   9.867  0.4121  0.6170 -0.1482
  116OSM    H6F12200   2.762   1.286   9.879  0.4128  0.7860  1.0087
  116OSM    H6G12201   2.941   1.305   9.891  0.8554  2.1677  1.8378
  116OSM    C7F12202   2.867   1.406   9.725 -0.5627  0.5650  0.3202
  116OSM    H7F12203   2.969   1.447   9.710 -0.4478  0.0351 -0.4480
  116OSM    H7G12204   2.798   1.492   9.712 -0.1202  1.1170  1.5018
  116OSM    C8F12205   2.833   1.297   9.613 -0.3962  0.4002 -0.2715
  116OSM    H8F12206   2.856   1.334   9.511  0.7162 -1.0200 -0.5738
  116OSM    H8G12207   2.723   1.287   9.626 -0.8766  1.0116 -3.1569
  116OSM    C9F12208   2.902   1.163   9.625 -0.7578  0.5449 -0.5093
  116OSM    H9F12209   2.867   1.107   9.713 -0.9729  0.6267 -0.5416
  116OSM   C10F12210   2.999   1.111   9.543 -0.2142 -0.3461 -0.8104
  116OSM   H10F12211   3.040   1.013   9.575 -2.1500 -1.2201 -0.9087
  116OSM   C11F12212   3.057   1.167   9.420  0.0628  0.0330  0.3708
  116OSM   H11F12213   3.167   1.159   9.435  0.0085 -2.3069 -0.0792
  116OSM   H11G12214   3.047   1.277   9.408 -1.9262 -0.0278  1.1153
  116OSM   C12F12215   3.029   1.092   9.293 -0.0046  0.5722 -0.3193
  116OSM   H12F12216   3.044   0.983   9.305  1.4851  0.5204 -2.2101
  116OSM   H12G12217   3.086   1.136   9.209 -1.8905  2.6674 -0.6048
  116OSM   C13F12218   2.884   1.110   9.237  0.1092 -0.3916 -0.4055
  116OSM   H13F12219   2.848   1.214   9.251  0.5584  0.0336 -2.1363
  116OSM   H13G12220   2.816   1.044   9.295 -0.1336  1.5356  1.6308
  116OSM   C14F12221   2.882   1.089   9.087  1.3144 -0.3786  0.0269
  116OSM   H14F12222   2.917   1.179   9.033 -0.1964 -0.7831 -1.7064
  116OSM   H14G12223   2.775   1.092   9.057  1.2264  1.0507  0.4320
  116OSM   C15F12224   2.925   0.956   9.040  0.4752 -0.2543 -0.1823
  116OSM   H15F12225   2.866   0.887   9.104 -0.7922  0.7034 -0.2852
  116OSM   H15G12226   3.033   0.945   9.063 -0.1214  1.0591  4.1404
  116OSM   C16F12227   2.894   0.933   8.895 -0.2791 -0.5743 -0.0327
  116OSM   H16F12228   2.788   0.949   8.866 -0.5200 -0.5315  0.8543
  116OSM   H16G12229   2.918   0.829   8.866  1.3419 -0.4203  0.6751
  116OSM   C17F12230   2.980   1.029   8.813 -0.1204 -0.3466  0.4681
  116OSM   H17F12231   2.979   1.128   8.863 -1.2977 -0.4338  0.6294
  116OSM   H17G12232   2.936   1.028   8.711  3.4352 -0.9168 -1.2511
  116OSM   C18F12233   3.129   0.995   8.798  0.5744 -0.8602  0.6134
  116OSM   H18F12234   3.175   1.066   8.726 -1.4882 -0.3012 -0.2147
  116OSM   H18G12235   3.133   0.890   8.760 -0.0809 -0.7522  0.2330
  116OSM   H18H12236   3.179   0.995   8.897  1.0886  1.1727  0.3888
  117OSM      N12237   6.313   1.169  10.929  0.0549 -0.7911  0.2582
  117OSM    C1512238   6.164   1.163  10.958  0.1500 -0.1291  0.8785
  117OSM   H15A12239   6.145   1.085  11.031  0.6736 -1.4517 -0.3567
  117OSM   H15B12240   6.104   1.141  10.872 -0.8669 -1.2047  1.8233
  117OSM   H15C12241   6.128   1.255  11.000 -3.1399 -0.9818  0.1654
  117OSM    C1412242   6.381   1.157  11.060 -0.0504 -0.0632 -0.3596
  117OSM   H14A12243   6.482   1.120  11.050  0.5495  0.1542  3.4020
  117OSM   H14B12244   6.338   1.082  11.125  0.4882  0.6963  0.9174
  117OSM   H14C12245   6.390   1.247  11.120  0.7629 -0.7521  0.5740
  117OSM    C1312246   6.349   1.059  10.839  0.2871  0.1115 -0.2872
  117OSM   H13A12247   6.292   1.068  10.748 -0.9592 -1.5262  0.2957
  117OSM   H13B12248   6.328   0.967  10.890  3.9744 -0.9360 -0.3395
  117OSM   H13C12249   6.455   1.045  10.821  0.3401 -1.5277  1.1143
  117OSM    C1212250   6.333   1.309  10.862 -0.0793  0.1773 -0.1002
  117OSM   H12A12251   6.302   1.379  10.939 -0.7446  1.5152 -1.5458
  117OSM   H12B12252   6.261   1.310  10.782 -0.6289  0.8523  0.3823
  117OSM    C1112253   6.472   1.340  10.806 -0.7503  0.0693 -1.2453
  117OSM   H11A12254   6.462   1.448  10.783 -1.1415  0.3194 -0.0088
  117OSM   H11B12255   6.493   1.279  10.716  1.9628 -0.1990 -0.5426
  117OSM      P12256   6.705   1.248  10.892 -0.2091  0.3942 -0.1339
  117OSM    O1312257   6.790   1.314  10.987 -0.2403 -0.1415 -0.8923
  117OSM    O1412258   6.688   1.104  10.911 -0.2580 -0.3821  0.4178
  117OSM    O1112259   6.748   1.282  10.747  0.1243 -0.2115 -0.3435
  117OSM    O1212260   6.571   1.328  10.905 -0.2488  0.3474  0.4248
  117OSM    C1S12261   6.852   1.221  10.672  0.0844 -0.5846 -0.0264
  117OSM    H1S12262   6.900   1.137  10.727  0.0764  0.5508  1.7722
  117OSM    H1T12263   6.936   1.294  10.669 -0.1409 -0.3179  0.1716
  117OSM     NF12264   6.910   1.096  10.473 -0.0419 -0.2376 -0.2896
  117OSM    HNF12265   6.953   1.139  10.394 -0.4765 -0.2889 -0.5590
  117OSM    C2S12266   6.806   1.176  10.541 -0.3081 -0.5695  0.2563
  117OSM    H2S12267   6.721   1.114  10.574 -0.4217  0.0505  1.1527
  117OSM    C3S12268   6.756   1.291  10.447  0.3244  0.5651 -0.2647
  117OSM    H3S12269   6.835   1.347  10.394 -1.8612  1.9107 -2.3271
  117OSM     O312270   6.662   1.378  10.518 -0.5294 -0.1873  0.4350
  117OSM    HO312271   6.649   1.352  10.610  0.6395  1.5606  1.1492
  117OSM    C4S12272   6.674   1.231  10.333 -0.1407 -0.6096 -0.0580
  117OSM    H4S12273   6.589   1.167  10.360  0.3506 -2.0605 -1.7311
  117OSM    C5S12274   6.694   1.236  10.201  0.6259 -0.8601  0.2999
  117OSM    H5S12275   6.778   1.298  10.166 -0.0051  1.9883  3.3544
  117OSM    C6S12276   6.617   1.169  10.089  0.0258 -0.0371 -0.6527
  117OSM    H6S12277   6.610   1.240  10.004 -1.4253  0.1624 -0.3912
  117OSM    H6T12278   6.516   1.142  10.127  0.9226 -0.9614  1.2493
  117OSM    C7S12279   6.688   1.036  10.052  0.0952 -0.0136  0.3092
  117OSM    H7S12280   6.677   0.960  10.133  1.6270 -3.2769 -2.2902
  117OSM    H7T12281   6.795   1.056  10.028 -0.3209  2.1832  0.1148
  117OSM    C8S12282   6.630   0.972   9.921  0.1923  0.1423 -0.0355
  117OSM    H8S12283   6.521   0.951   9.926  0.7291 -3.0044  0.8096
  117OSM    H8T12284   6.669   0.867   9.922 -0.8166 -0.2435  0.2730
  117OSM    C9S12285   6.653   1.049   9.793  0.0509 -0.1149  0.1350
  117OSM    H9S12286   6.762   1.068   9.790 -0.4119  2.8896 -1.2879
  117OSM    H9T12287   6.614   1.153   9.801  1.9967  0.6216  0.5526
  117OSM   C10S12288   6.613   0.973   9.671  0.4573  0.3308 -0.2170
  117OSM   H10S12289   6.502   0.972   9.670  0.3703  3.2144 -1.3757
  117OSM   H10T12290   6.664   0.875   9.681 -0.8799 -0.6138 -2.0612
  117OSM   C11S12291   6.661   1.040   9.542 -0.2017 -0.5349 -0.3974
  117OSM   H11S12292   6.762   1.003   9.513 -1.6718 -2.0793 -4.2868
  117OSM   H11T12293   6.675   1.149   9.554  3.1295 -0.8572 -0.3763
  117OSM   C12S12294   6.556   0.996   9.431 -0.4068  0.0767 -0.8435
  117OSM   H12S12295   6.452   1.022   9.462 -1.3856 -3.1384 -1.0653
  117OSM   H12T12296   6.557   0.885   9.429  0.4510  0.0862 -1.4019
  117OSM   C13S12297   6.582   1.045   9.288  0.6782 -0.4935  0.1832
  117OSM   H13S12298   6.690   1.042   9.262  1.0224  0.2917  1.4184
  117OSM   H13T12299   6.544   1.149   9.276  0.4536 -0.4349  1.3327
  117OSM   C14S12300   6.523   0.954   9.182 -0.3920 -0.8977  0.6334
  117OSM   H14S12301   6.416   0.929   9.201 -0.2029 -0.5068  2.3294
  117OSM   H14T12302   6.583   0.862   9.169  2.2412  0.3371  2.9703
  117OSM   C15S12303   6.520   1.029   9.047 -0.1949 -0.0544  0.6044
  117OSM   H15S12304   6.628   1.051   9.032 -0.5784  1.8304  0.3691
  117OSM   H15T12305   6.467   1.125   9.034  1.6166  0.6224 -3.0891
  117OSM   C16S12306   6.472   0.948   8.926 -0.1223 -0.0268 -0.1038
  117OSM   H16S12307   6.363   0.962   8.911  0.0791 -0.1382 -2.0122
  117OSM   H16T12308   6.476   0.840   8.949 -3.5010 -0.1683  0.3126
  117OSM   C17S12309   6.563   0.953   8.798 -0.2094 -0.2804 -0.2152
  117OSM   H17S12310   6.515   0.889   8.721  0.1521 -1.9756  0.9094
  117OSM   H17T12311   6.662   0.913   8.828 -0.0244  0.6510  0.4683
  117OSM   C18S12312   6.597   1.095   8.737 -0.1089 -0.4063 -0.3337
  117OSM   H18S12313   6.505   1.148   8.704 -0.8872 -0.1079  2.0816
  117OSM   H18T12314   6.665   1.079   8.651  2.5400 -0.7863  1.7012
  117OSM   H18U12315   6.643   1.161   8.814 -0.3351  1.1418 -1.4614
  117OSM    C1F12316   6.940   0.975  10.499 -0.4873  0.0860 -0.4337
  117OSM     OF12317   6.867   0.901  10.569 -0.1015 -0.1662  0.4922
  117OSM    C2F12318   7.077   0.925  10.450  0.1948 -0.5011  0.3833
  117OSM    H2F12319   7.137   0.919  10.544 -1.2127 -4.1191  1.2215
  117OSM    H2G12320   7.121   1.000  10.380 -1.9617 -0.6537 -1.2172
  117OSM    C3F12321   7.055   0.789  10.380 -0.1909  0.0931  0.4919
  117OSM    H3F12322   6.998   0.720  10.446 -0.7606  0.1028  0.0232
  117OSM    H3G12323   7.157   0.752  10.358 -1.0324 -1.3336 -1.3239
  117OSM    C4F12324   6.982   0.804  10.243 -0.0913  0.3895  0.1267
  117OSM    H4F12325   7.027   0.895  10.198  2.1454  0.8839  3.0936
  117OSM    H4G12326   6.876   0.832  10.261 -0.5968 -0.6506 -1.0811
  117OSM    C5F12327   6.991   0.672  10.160 -0.2616 -0.0021  0.0753
  117OSM    H5F12328   6.956   0.580  10.210 -1.9446  0.2350 -0.6231
  117OSM    H5G12329   7.099   0.658  10.135  0.1524  0.5217  1.4706
  117OSM    C6F12330   6.912   0.697  10.023  0.1055  0.2101 -0.6030
  117OSM    H6F12331   6.939   0.800   9.991  0.8930  0.1733 -0.0975
  117OSM    H6G12332   6.806   0.690  10.057  0.6610 -2.4882  0.8362
  117OSM    C7F12333   6.920   0.585   9.920 -0.3067  0.1285 -0.5429
  117OSM    H7F12334   6.896   0.492   9.976 -2.1518  1.0212  0.2208
  117OSM    H7G12335   7.027   0.576   9.891 -0.2057  0.7995 -0.4054
  117OSM    C8F12336   6.825   0.598   9.800 -0.1802  0.4397  0.7865
  117OSM    H8F12337   6.847   0.699   9.759 -0.3660  0.4528  0.7204
  117OSM    H8G12338   6.724   0.597   9.847 -1.4013  2.5455 -1.5653
  117OSM    C9F12339   6.843   0.485   9.702 -0.1068 -0.3435 -0.4802
  117OSM    H9F12340   6.870   0.388   9.748  0.3490 -0.1520 -0.3313
  117OSM   C10F12341   6.854   0.491   9.571  0.8868  0.1772  0.4775
  117OSM   H10F12342   6.878   0.393   9.526  1.5331  0.6343 -0.1992
  117OSM   C11F12343   6.833   0.611   9.486  0.9227 -0.3401 -0.6339
  117OSM   H11F12344   6.918   0.680   9.509  0.7283 -0.0566 -0.7596
  117OSM   H11G12345   6.738   0.660   9.513  1.0517 -1.2768  1.7321
  117OSM   C12F12346   6.843   0.591   9.339  0.2709  0.7466 -0.0339
  117OSM   H12F12347   6.750   0.543   9.302  0.6834 -1.2043  1.2845
  117OSM   H12G12348   6.925   0.519   9.314 -0.6277 -0.9551  1.6758
  117OSM   C13F12349   6.885   0.714   9.262 -0.2102  0.1308  0.4306
  117OSM   H13F12350   6.995   0.728   9.255 -0.2733 -0.0767 -1.5736
  117OSM   H13G12351   6.838   0.807   9.301 -0.1479  0.9957 -1.4488
  117OSM   C14F12352   6.862   0.708   9.106 -0.2131 -0.4356 -0.6308
  117OSM   H14F12353   6.751   0.707   9.101 -0.3847  0.4607  1.8080
  117OSM   H14G12354   6.888   0.612   9.057  1.1883  0.0569 -0.9092
  117OSM   C15F12355   6.904   0.832   9.025 -0.1151 -0.3884 -0.1932
  117OSM   H15F12356   6.992   0.885   9.068  0.5785 -3.0144  1.8652
  117OSM   H15G12357   6.818   0.903   9.029  0.3365  0.2481 -1.0983
  117OSM   C16F12358   6.948   0.795   8.886  0.0337 -0.4807  0.2627
  117OSM   H16F12359   6.868   0.765   8.815  0.3170 -0.0652 -0.2484
  117OSM   H16G12360   7.020   0.711   8.896  0.3205 -0.3283 -0.4284
  117OSM   C17F12361   7.021   0.910   8.817 -0.8170 -0.1868 -0.2753
  117OSM   H17F12362   7.082   0.881   8.729 -0.8022 -1.9014  0.2604
  117OSM   H17G12363   7.084   0.965   8.891 -0.7847  2.0524 -1.8644
  117OSM   C18F12364   6.929   1.021   8.763 -0.4624 -0.3667  0.7243
  117OSM   H18F12365   6.985   1.106   8.720 -0.1759 -0.8129  0.2068
  117OSM   H18G12366   6.866   1.057   8.848 -2.1464  0.1912 -0.7076
  117OSM   H18H12367   6.858   0.981   8.688  1.2714 -0.1564 -1.0831
  118OSM      N12368   0.696   2.408  11.103  0.6295  0.1278 -0.5798
  118OSM    C1512369   0.817   2.326  11.084 -0.0398  0.6112 -0.5575
  118OSM   H15A12370   0.886   2.384  11.025  1.2860 -1.1759 -0.8759
  118OSM   H15B12371   0.796   2.234  11.031 -2.6224 -0.5122  2.1644
  118OSM   H15C12372   0.871   2.296  11.173  3.3489  1.1850 -2.2676
  118OSM    C1412373   0.615   2.340  11.198  0.1769 -0.1789 -0.3733
  118OSM   H14A12374   0.644   2.345  11.302 -2.0724 -0.1823  0.3177
  118OSM   H14B12375   0.601   2.236  11.175 -0.6075 -0.4194  1.0649
  118OSM   H14C12376   0.517   2.387  11.198 -0.1194 -0.7095  1.6091
  118OSM    C1312377   0.735   2.539  11.156 -0.3723  0.2409  0.5641
  118OSM   H13A12378   0.783   2.516  11.251 -0.3897 -3.1595 -0.1000
  118OSM   H13B12379   0.649   2.600  11.176  0.1458  1.3492 -0.5113
  118OSM   H13C12380   0.794   2.601  11.091 -0.7279 -1.7403 -1.7814
  118OSM    C1212381   0.619   2.437  10.972 -0.1292 -0.6991 -0.2937
  118OSM   H12A12382   0.699   2.482  10.916  0.7991  0.3026  1.7536
  118OSM   H12B12383   0.546   2.513  10.999  0.2920 -0.3432 -0.1526
  118OSM    C1112384   0.561   2.318  10.892 -0.4156  0.6301  0.6915
  118OSM   H11A12385   0.641   2.244  10.875 -1.2589 -0.5427  1.6773
  118OSM   H11B12386   0.535   2.365  10.795  3.0562  1.1021 -0.1319
  118OSM      P12387   0.300   2.310  10.941  0.5254 -0.2211  0.2523
  118OSM    O1312388   0.217   2.197  10.893 -0.0272 -0.0887  0.5470
  118OSM    O1412389   0.250   2.379  11.065 -0.8042  0.3953 -0.6316
  118OSM    O1112390   0.314   2.414  10.823  0.3210  0.3802  0.2819
  118OSM    O1212391   0.448   2.264  10.962 -0.3598  0.0694  0.1903
  118OSM    C1S12392   0.297   2.373  10.684 -0.3842  0.3236 -0.2019
  118OSM    H1S12393   0.301   2.263  10.672  0.9300  0.4365 -1.0949
  118OSM    H1T12394   0.375   2.420  10.619 -0.8962  2.0882  0.3852
  118OSM     NF12395   0.139   2.407  10.489 -0.0770 -0.4704  0.3561
  118OSM    HNF12396   0.158   2.470  10.414  0.4014 -0.7593  0.2360
  118OSM    C2S12397   0.173   2.445  10.629  0.7381 -0.0832 -0.8281
  118OSM    H2S12398   0.086   2.410  10.689 -0.2226  1.9234 -0.9507
  118OSM    C3S12399   0.168   2.599  10.647 -0.2002  0.1799 -0.1809
  118OSM    H3S12400   0.251   2.647  10.591 -0.8327  1.9297  0.3197
  118OSM     O312401   0.185   2.636  10.785  0.1591  0.3909  0.3403
  118OSM    HO312402   0.218   2.555  10.824  0.5579 -0.1522 -1.0729
  118OSM    C4S12403   0.040   2.656  10.598 -0.3553 -0.0850  0.0671
  118OSM    H4S12404  -0.051   2.606  10.634  0.1641 -0.7200  0.5464
  118OSM    C5S12405   0.039   2.758  10.503  0.5691  0.2222  0.4836
  118OSM    H5S12406   0.133   2.794  10.459  0.8471 -0.6807  0.3347
  118OSM    C6S12407  -0.079   2.828  10.435  0.2560 -0.0778  0.4903
  118OSM    H6S12408  -0.087   2.929  10.480  1.6955  1.0371 -1.6249
  118OSM    H6T12409  -0.176   2.781  10.463  1.4262 -1.3143  2.7677
  118OSM    C7S12410  -0.073   2.836  10.282 -0.6833  0.8711 -0.1002
  118OSM    H7S12411  -0.051   2.737  10.236 -0.6026  0.0436  1.6454
  118OSM    H7T12412   0.004   2.909  10.250 -2.2777  3.1533  0.9635
  118OSM    C8S12413  -0.202   2.887  10.223  0.2706  0.1894 -0.2052
  118OSM    H8S12414  -0.228   2.985  10.269 -0.3473 -0.5013  0.9856
  118OSM    H8T12415  -0.296   2.827  10.223  0.1892  0.3069 -0.7535
  118OSM    C9S12416  -0.165   2.910  10.077  0.2793  0.0901 -0.8585
  118OSM    H9S12417  -0.095   2.829  10.047 -1.4518 -1.9600  0.3945
  118OSM    H9T12418  -0.101   3.000  10.071  1.0211 -0.3771 -0.2356
  118OSM   C10S12419  -0.272   2.910   9.973 -0.2957 -0.3367 -0.2709
  118OSM   H10S12420  -0.332   2.997  10.007  1.2324 -0.4118  3.0256
  118OSM   H10T12421  -0.331   2.816   9.975 -2.0948  0.7200 -1.0646
  118OSM   C11S12422  -0.211   2.935   9.832  0.2079 -0.2962  0.7483
  118OSM   H11S12423  -0.111   2.983   9.842 -0.3768  1.4063 -1.0122
  118OSM   H11T12424  -0.273   2.998   9.765  0.0274 -1.4462 -0.2046
  118OSM   C12S12425  -0.191   2.808   9.747 -0.5534  0.3864  0.5088
  118OSM   H12S12426  -0.295   2.775   9.727 -0.5699  0.5644  0.2964
  118OSM   H12T12427  -0.144   2.733   9.815 -0.2604  1.9408  2.0780
  118OSM   C13S12428  -0.119   2.844   9.615 -0.0838  0.6161 -0.2843
  118OSM   H13S12429  -0.120   2.750   9.557 -2.1522  0.4791 -0.0926
  118OSM   H13T12430  -0.014   2.872   9.638  0.3982 -2.7381  2.2402
  118OSM   C14S12431  -0.190   2.950   9.534  0.2409  0.2307  0.4437
  118OSM   H14S12432  -0.184   3.050   9.581 -0.3630  1.6427 -2.2643
  118OSM   H14T12433  -0.301   2.937   9.530  0.2725  0.1310 -0.2165
  118OSM   C15S12434  -0.125   2.965   9.391  0.6585 -0.0693 -0.1187
  118OSM   H15S12435  -0.015   2.970   9.403  0.5881 -0.3753  0.7160
  118OSM   H15T12436  -0.159   3.063   9.353 -1.7458  0.4141  2.8907
  118OSM   C16S12437  -0.144   2.856   9.290  0.1972  0.5827  0.9859
  118OSM   H16S12438  -0.247   2.820   9.273  0.2542  0.4440  0.9274
  118OSM   H16T12439  -0.083   2.772   9.332 -0.3228 -0.1031  0.3826
  118OSM   C17S12440  -0.085   2.882   9.149 -0.6080 -0.4593  0.1966
  118OSM   H17S12441   0.021   2.911   9.160 -0.5163  0.8279 -3.1365
  118OSM   H17T12442  -0.133   2.965   9.093  4.0537 -0.4298 -4.4535
  118OSM   C18S12443  -0.094   2.760   9.059 -0.3707 -0.5788  0.0389
  118OSM   H18S12444  -0.052   2.674   9.116  0.7806 -0.0981 -0.0544
  118OSM   H18T12445  -0.048   2.792   8.963 -1.8139  4.4944  0.7455
  118OSM   H18U12446  -0.197   2.724   9.034  0.7236 -1.6333 -3.5998
  118OSM    C1F12447   0.111   2.278  10.454 -0.0618 -0.3501  0.1170
  118OSM     OF12448   0.097   2.195  10.539  0.7495 -0.2997  0.3464
  118OSM    C2F12449   0.112   2.237  10.307  0.5956 -0.5388 -0.3629
  118OSM    H2F12450   0.214   2.224  10.267 -0.4293 -3.2084 -2.4181
  118OSM    H2G12451   0.067   2.314  10.242  2.3353 -0.0958 -1.0889
  118OSM    C3F12452   0.055   2.093  10.303 -0.1103 -0.3388  0.5105
  118OSM    H3F12453  -0.036   2.084  10.366 -0.9656  1.4224 -0.4001
  118OSM    H3G12454   0.128   2.020  10.344 -1.6401 -1.8762  0.6627
  118OSM    C4F12455   0.011   2.042  10.163  0.2981  0.0430 -0.0352
  118OSM    H4F12456  -0.067   2.118  10.140 -0.1383 -0.7966 -1.3983
  118OSM    H4G12457  -0.024   1.938  10.183  2.6865 -0.4436  2.0911
  118OSM    C5F12458   0.121   2.030  10.061  0.0291 -0.1724 -0.4758
  118OSM    H5F12459   0.200   1.956  10.087 -0.2942 -0.5278 -0.5049
  118OSM    H5G12460   0.175   2.126  10.078  0.2800 -0.0471 -1.8590
  118OSM    C6F12461   0.069   1.998   9.923  0.4704  0.1508  0.3203
  118OSM    H6F12462   0.017   2.091   9.892  0.2227  0.1813  0.8133
  118OSM    H6G12463  -0.010   1.920   9.930  2.1196 -1.5033  1.3839
  118OSM    C7F12464   0.181   1.945   9.831  0.1635  0.2465 -0.1455
  118OSM    H7F12465   0.241   1.863   9.877  2.0855  0.1622 -2.5930
  118OSM    H7G12466   0.257   2.022   9.808 -0.8690  0.8844 -1.5262
  118OSM    C8F12467   0.146   1.880   9.696 -0.3765  0.1824 -0.9472
  118OSM    H8F12468   0.089   1.786   9.713 -0.3920  0.6597  2.4106
  118OSM    H8G12469   0.240   1.848   9.647 -0.7558 -0.9544 -0.9565
  118OSM    C9F12470   0.073   1.977   9.612  0.4995 -0.0274  0.4955
  118OSM    H9F12471   0.049   2.072   9.662  0.2270  0.7201 -0.9920
  118OSM   C10F12472   0.022   1.949   9.493 -0.2137 -0.1781  0.5914
  118OSM   H10F12473  -0.033   2.030   9.443  2.3300  1.6199  0.5312
  118OSM   C11F12474   0.031   1.813   9.423 -0.8600  0.8113  0.1695
  118OSM   H11F12475  -0.062   1.752   9.432  0.1060 -0.5198  1.8348
  118OSM   H11G12476   0.116   1.754   9.465 -1.0788 -0.5587 -1.2364
  118OSM   C12F12477   0.051   1.835   9.272 -0.3811  0.2611 -0.4270
  118OSM   H12F12478  -0.026   1.900   9.226  0.7679  1.6927 -0.4311
  118OSM   H12G12479   0.039   1.733   9.230  1.5571 -0.9008  1.6366
  118OSM   C13F12480   0.180   1.897   9.234 -0.4050 -0.4450  0.9190
  118OSM   H13F12481   0.254   1.816   9.253  0.7814  0.3868  0.0125
  118OSM   H13G12482   0.206   1.985   9.298 -0.8486 -0.0043  0.4977
  118OSM   C14F12483   0.187   1.948   9.088  0.6623  0.3090 -0.3491
  118OSM   H14F12484   0.127   2.040   9.071 -0.3045 -0.3941 -0.8691
  118OSM   H14G12485   0.146   1.863   9.029  0.7275 -0.3387  0.5066
  118OSM   C15F12486   0.335   1.968   9.043  0.0439 -0.2332 -0.1340
  118OSM   H15F12487   0.339   1.990   8.934  1.1828 -1.6316 -0.3967
  118OSM   H15G12488   0.382   1.868   9.041 -0.8023 -0.6870  1.3645
  118OSM   C16F12489   0.408   2.079   9.120 -0.5272 -0.5722  0.2086
  118OSM   H16F12490   0.438   2.037   9.218  4.2387  1.0413 -0.2847
  118OSM   H16G12491   0.343   2.168   9.128 -1.8321 -1.3879 -0.9105
  118OSM   C17F12492   0.548   2.112   9.052  0.3778  0.1026 -0.3892
  118OSM   H17F12493   0.585   2.205   9.100 -0.6396  1.0393 -1.3439
  118OSM   H17G12494   0.539   2.150   8.948 -0.1986 -0.5797 -0.5942
  118OSM   C18F12495   0.658   2.003   9.060  0.2595 -0.2772  0.2468
  118OSM   H18F12496   0.612   1.909   9.025  1.0790 -0.2646 -0.9394
  118OSM   H18G12497   0.698   1.996   9.164  0.1398  2.3498  0.5383
  118OSM   H18H12498   0.738   2.022   8.985 -1.9452  2.7000 -1.5817
  119OSM      N12499   0.864   1.634  10.880  0.1548 -0.0101  1.2487
  119OSM    C1512500   0.779   1.703  10.981  0.1089 -0.3276  0.1035
  119OSM   H15A12501   0.775   1.810  10.965 -0.7972 -0.1969  1.0724
  119OSM   H15B12502   0.815   1.697  11.083 -2.4381  3.4276  1.4450
  119OSM   H15C12503   0.677   1.666  10.987  1.2599 -3.7239  0.8337
  119OSM    C1412504   0.996   1.705  10.874  0.7335 -0.0125  0.2045
  119OSM   H14A12505   1.057   1.671  10.793  1.0341 -1.3642  0.9717
  119OSM   H14B12506   1.047   1.676  10.965 -0.0222 -1.0879  0.3098
  119OSM   H14C12507   0.983   1.812  10.871 -0.1615 -0.1203 -0.1201
  119OSM    C1312508   0.887   1.488  10.924 -0.3434  0.3146  0.2880
  119OSM   H13A12509   0.956   1.435  10.860  0.5731 -0.0499  1.5314
  119OSM   H13B12510   0.790   1.442  10.918 -0.5416  0.6937  0.5121
  119OSM   H13C12511   0.914   1.485  11.029 -1.5103  1.1463  0.6372
  119OSM    C1212512   0.792   1.640  10.743 -0.5804  0.4086 -0.0295
  119OSM   H12A12513   0.788   1.744  10.713 -1.3405 -0.3120 -2.6897
  119OSM   H12B12514   0.688   1.615  10.752 -0.7482  0.6658 -1.0883
  119OSM    C1112515   0.856   1.555  10.629  0.4879 -0.9965 -0.1267
  119OSM   H11A12516   0.786   1.543  10.544  0.8893  2.8148 -1.1963
  119OSM   H11B12517   0.877   1.448  10.652  2.3688 -0.7096 -0.3233
  119OSM      P12518   0.984   1.731  10.493  0.6167 -0.5043 -0.1097
  119OSM    O1312519   0.890   1.838  10.537 -0.1392 -0.2268  0.2215
  119OSM    O1412520   1.123   1.772  10.487 -0.3487  0.2556  0.1111
  119OSM    O1112521   0.942   1.673  10.354  0.3067 -0.0376  0.0946
  119OSM    O1212522   0.982   1.613  10.594  0.1827  0.0649 -0.1940
  119OSM    C1S12523   1.011   1.566  10.294 -0.1550  0.0241  0.2742
  119OSM    H1S12524   0.988   1.468  10.342  3.3575 -0.6840  0.7958
  119OSM    H1T12525   1.120   1.586  10.304 -0.4290  2.7246 -1.1663
  119OSM     NF12526   0.985   1.424  10.104 -0.1866 -0.0934 -0.2002
  119OSM    HNF12527   1.070   1.398  10.059 -0.7404 -1.3682 -0.5402
  119OSM    C2S12528   0.961   1.560  10.151  0.2516 -0.2883 -1.0224
  119OSM    H2S12529   0.853   1.586  10.161 -0.3241 -3.0509  1.3012
  119OSM    C3S12530   1.024   1.676  10.071 -0.2029  0.4114  0.4933
  119OSM    H3S12531   1.132   1.648  10.077 -0.3960 -0.5056 -0.0075
  119OSM     O312532   1.013   1.805  10.131 -0.1776 -0.3069 -0.4458
  119OSM    HO312533   0.977   1.781  10.217 -1.0195 -0.1967 -0.7564
  119OSM    C4S12534   0.980   1.660   9.924 -0.7952  0.2544  0.2122
  119OSM    H4S12535   0.986   1.562   9.875  1.8272  0.2941  0.3185
  119OSM    C5S12536   0.943   1.770   9.854 -0.4472 -0.4172  0.8455
  119OSM    H5S12537   0.939   1.865   9.908  1.4661 -0.3156  0.8881
  119OSM    C6S12538   0.915   1.775   9.702  0.1293  0.0090  0.5084
  119OSM    H6S12539   0.969   1.866   9.668 -2.4560  0.9996 -1.2772
  119OSM    H6T12540   0.807   1.799   9.693 -0.2953  0.8282  5.1834
  119OSM    C7S12541   0.965   1.643   9.628 -0.5766 -0.0482 -0.1973
  119OSM    H7S12542   0.896   1.574   9.681 -0.1215  0.6455  1.3593
  119OSM    H7T12543   1.068   1.607   9.650 -0.7583 -1.3400 -1.3035
  119OSM    C8S12544   0.948   1.655   9.476 -0.1356 -0.5846  0.4428
  119OSM    H8S12545   0.847   1.682   9.437  0.3231 -1.7411 -1.7336
  119OSM    H8T12546   0.964   1.549   9.447  1.0978 -1.2159  3.1430
  119OSM    C9S12547   1.047   1.740   9.403  0.7130 -0.1549 -0.0709
  119OSM    H9S12548   1.148   1.712   9.439  0.3770  0.2920  1.2663
  119OSM    H9T12549   1.024   1.845   9.430 -1.9818 -0.9078  0.8903
  119OSM   C10S12550   1.046   1.717   9.248  0.0006  0.2945 -0.2481
  119OSM   H10S12551   1.073   1.613   9.219  0.5731  0.2667  0.3497
  119OSM   H10T12552   1.131   1.784   9.223  0.9444 -1.0196 -0.6775
  119OSM   C11S12553   0.927   1.771   9.171  0.1730 -0.9233  0.3750
  119OSM   H11S12554   0.917   1.879   9.196  2.8495 -0.6649  0.6374
  119OSM   H11T12555   0.835   1.719   9.205 -0.3306 -0.5668 -0.4212
  119OSM   C12S12556   0.932   1.754   9.018 -0.4183  0.4043 -0.6918
  119OSM   H12S12557   0.833   1.795   8.988  0.0707  1.2722 -1.1617
  119OSM   H12T12558   0.948   1.648   8.989 -2.4302 -0.7472  1.9600
  119OSM   C13S12559   1.038   1.831   8.957 -0.1118  0.1527 -0.2930
  119OSM   H13S12560   1.136   1.787   8.984  1.1252 -0.2364 -4.5959
  119OSM   H13T12561   1.042   1.934   8.998 -1.5644  0.9556 -1.9825
  119OSM   C14S12562   1.024   1.840   8.801 -0.2042  0.3805 -0.0026
  119OSM   H14S12563   1.014   1.743   8.748  0.0390  0.8173 -0.8600
  119OSM   H14T12564   1.126   1.879   8.780  0.3277 -0.5942  0.7117
  119OSM   C15S12565   0.916   1.927   8.750 -0.2027  0.0613 -0.5243
  119OSM   H15S12566   0.930   2.028   8.793 -0.2296  0.5944 -1.7407
  119OSM   H15T12567   0.819   1.894   8.793  0.7807 -1.7560  0.4264
  119OSM   C16S12568   0.915   1.942   8.595  0.0008 -0.5073 -0.6760
  119OSM   H16S12569   0.887   1.844   8.551  0.1720  0.8034 -4.0335
  119OSM   H16T12570   1.018   1.970   8.563  1.0105  0.1299  2.7031
  119OSM   C17S12571   0.808   2.047   8.554 -0.5202  0.4838 -0.5132
  119OSM   H17S12572   0.856   2.147   8.561  0.1273  0.2652 -1.6447
  119OSM   H17T12573   0.724   2.038   8.626 -0.5112 -1.4061 -0.7036
  119OSM   C18S12574   0.747   2.022   8.419 -0.4418  0.1520  0.4995
  119OSM   H18S12575   0.654   2.079   8.398 -1.2829 -0.1861  2.9852
  119OSM   H18T12576   0.737   1.914   8.394 -1.1309  0.5053 -0.8613
  119OSM   H18U12577   0.820   2.058   8.343 -2.7226  2.2628 -0.8349
  119OSM    C1F12578   0.896   1.329  10.133 -0.7344 -0.0605  0.7459
  119OSM     OF12579   0.779   1.354  10.167 -0.3532  0.4047  0.6535
  119OSM    C2F12580   0.939   1.185  10.126 -0.2962  0.4437  0.3525
  119OSM    H2F12581   0.942   1.151  10.231  0.0767 -3.2572 -0.7288
  119OSM    H2G12582   1.032   1.177  10.066 -0.9061 -1.2196 -0.4250
  119OSM    C3F12583   0.836   1.090  10.070  0.1277  0.3859  1.2571
  119OSM    H3F12584   0.744   1.083  10.131 -0.6189  0.0768  0.1405
  119OSM    H3G12585   0.877   0.987  10.075 -0.7995  0.0686  2.7562
  119OSM    C4F12586   0.805   1.119   9.925  0.5194 -0.2216 -0.5495
  119OSM    H4F12587   0.745   1.213   9.920 -1.2076 -1.2005  0.7279
  119OSM    H4G12588   0.731   1.043   9.892  0.7510 -0.4957 -0.4354
  119OSM    C5F12589   0.927   1.125   9.833 -0.3203 -0.2694 -0.0651
  119OSM    H5F12590   0.982   1.028   9.835  0.2839  0.0762  0.8793
  119OSM    H5G12591   0.996   1.208   9.859 -0.2779 -0.4989  0.5703
  119OSM    C6F12592   0.881   1.139   9.688 -0.1974 -0.6003  0.1447
  119OSM    H6F12593   0.805   1.220   9.698 -0.8948 -1.3135  0.7366
  119OSM    H6G12594   0.815   1.057   9.656 -0.4524 -0.5298  0.4853
  119OSM    C7F12595   0.991   1.156   9.585 -0.6290  0.3713  0.0639
  119OSM    H7F12596   1.034   1.055   9.567  1.6447  1.3973 -0.7041
  119OSM    H7G12597   1.080   1.211   9.624  0.0230 -0.9783  0.5474
  119OSM    C8F12598   0.935   1.215   9.452  0.3290 -0.2920 -0.4733
  119OSM    H8F12599   0.868   1.301   9.473 -0.4333 -0.6950 -1.1907
  119OSM    H8G12600   0.857   1.147   9.412 -2.1199  1.3620  1.1757
  119OSM    C9F12601   1.033   1.252   9.344 -0.2395 -0.1780  0.0817
  119OSM    H9F12602   1.130   1.283   9.385 -0.4661  0.9156 -0.1931
  119OSM   C10F12603   1.020   1.231   9.212 -0.8901 -0.6334 -0.0998
  119OSM   H10F12604   1.101   1.260   9.144 -1.6898 -0.6883 -1.0949
  119OSM   C11F12605   0.901   1.180   9.139 -0.2543 -0.5824  0.3239
  119OSM   H11F12606   0.833   1.134   9.213 -0.7098  1.0211  0.9398
  119OSM   H11G12607   0.934   1.102   9.067 -0.6669 -0.8865  0.4678
  119OSM   C12F12608   0.813   1.291   9.077 -0.0315  0.0074 -0.1943
  119OSM   H12F12609   0.881   1.354   9.015  0.7268  0.4045  0.9977
  119OSM   H12G12610   0.781   1.365   9.154 -0.8855  0.7734 -1.2596
  119OSM   C13F12611   0.696   1.244   8.998  0.3855 -0.1286  0.1182
  119OSM   H13F12612   0.634   1.332   8.973 -1.5747 -2.3661 -4.0823
  119OSM   H13G12613   0.633   1.178   9.061  1.0894 -0.0395  0.9271
  119OSM   C14F12614   0.746   1.174   8.860 -0.2798 -0.2320  0.6372
  119OSM   H14F12615   0.778   1.076   8.899 -0.5537  0.6469  3.2792
  119OSM   H14G12616   0.831   1.224   8.808  0.7920 -1.4313  1.1680
  119OSM   C15F12617   0.630   1.153   8.761  0.2431  1.0124 -0.4049
  119OSM   H15F12618   0.554   1.227   8.792  0.3038  0.7630  0.3599
  119OSM   H15G12619   0.585   1.058   8.797  0.6998  0.4175 -1.3577
  119OSM   C16F12620   0.667   1.157   8.617  0.1133  0.1225 -0.2902
  119OSM   H16F12621   0.748   1.087   8.588  0.7441  0.6907  0.0815
  119OSM   H16G12622   0.702   1.259   8.592 -3.0618  1.9291  1.9712
  119OSM   C17F12623   0.554   1.129   8.518  0.3195 -0.8814  0.2240
  119OSM   H17F12624   0.506   1.030   8.534 -2.3295  0.1742 -0.6000
  119OSM   H17G12625   0.587   1.140   8.413  0.8287  0.0696  0.4720
  119OSM   C18F12626   0.431   1.229   8.535  0.3860 -0.2618 -0.5509
  119OSM   H18F12627   0.346   1.229   8.463 -0.7445  0.1730  0.7548
  119OSM   H18G12628   0.463   1.334   8.552  0.8804 -0.1814 -1.8397
  119OSM   H18H12629   0.392   1.213   8.638  2.1948  2.8567  0.7452
  120OSM      N12630   1.567   4.851  10.920  0.9796 -0.0491  0.1796
  120OSM    C1512631   1.464   4.799  11.016  0.6112  0.3675 -0.5200
  120OSM   H15A12632   1.474   4.856  11.107  0.4191 -0.3352 -0.0563
  120OSM   H15B12633   1.482   4.694  11.035  0.0151  0.7115  2.4055
  120OSM   H15C12634   1.367   4.818  10.972  1.3855  2.6350 -1.4048
  120OSM    C1412635   1.705   4.834  10.971  0.2932  0.6374  0.3516
  120OSM   H14A12636   1.774   4.845  10.889  1.7136  0.6443  1.5180
  120OSM   H14B12637   1.718   4.732  11.003 -0.3665  1.1003  2.2433
  120OSM   H14C12638   1.736   4.896  11.053 -0.2485 -0.1372  1.1601
  120OSM    C1312639   1.561   4.767  10.798  0.2519  0.0868  0.1423
  120OSM   H13A12640   1.463   4.770  10.752 -0.2466 -1.1227  1.0615
  120OSM   H13B12641   1.589   4.663  10.809 -1.3828 -0.4128 -0.1298
  120OSM   H13C12642   1.626   4.808  10.722  0.6347 -0.8975 -0.0799
  120OSM    C1212643   1.550   5.000  10.891  0.1144  0.0285  0.3327
  120OSM   H12A12644   1.648   5.032  10.860  0.8661 -2.3103  0.0918
  120OSM   H12B12645   1.515   5.055  10.977 -0.7277  0.2413 -0.1340
  120OSM    C1112646   1.454   5.028  10.777  0.6604 -0.2353  0.3075
  120OSM   H11A12647   1.365   4.961  10.768 -0.2203  0.7570  1.3675
  120OSM   H11B12648   1.510   4.994  10.688 -0.3581 -1.7221  0.1893
  120OSM      P12649   1.301   5.233  10.834 -0.0827  0.1370  0.0091
  120OSM    O1312650   1.182   5.221  10.749  0.1739  0.3832  0.2590
  120OSM    O1412651   1.301   5.180  10.973  0.0391 -0.2357  0.0148
  120OSM    O1112652   1.337   5.389  10.834  0.4875  0.0893 -0.4364
  120OSM    O1212653   1.426   5.164  10.761 -0.0440  0.0292 -0.2648
  120OSM    C1S12654   1.393   5.441  10.714 -0.3920 -0.4915 -0.1819
  120OSM    H1S12655   1.457   5.369  10.659 -0.0559  0.3734 -0.9434
  120OSM    H1T12656   1.477   5.510  10.736  0.2437 -1.2087 -0.2967
  120OSM     NF12657   1.352   5.558  10.496  1.0916  0.8523 -0.1894
  120OSM    HNF12658   1.367   5.656  10.489 -0.8424  1.0988 -1.9438
  120OSM    C2S12659   1.288   5.504  10.615  0.1371  0.3650 -0.3245
  120OSM    H2S12660   1.235   5.413  10.581 -2.0868  1.1034  0.9339
  120OSM    C3S12661   1.173   5.592  10.684  0.1786  0.4327  0.4656
  120OSM    H3S12662   1.215   5.670  10.752  1.8555  0.7204 -0.8307
  120OSM     O312663   1.080   5.512  10.768  0.3991 -0.4273 -0.7086
  120OSM    HO312664   1.126   5.428  10.770 -0.5983 -1.0755  2.8652
  120OSM    C4S12665   1.086   5.678  10.585  0.1937  0.4614  0.1407
  120OSM    H4S12666   1.117   5.784  10.582  2.6253 -0.2234 -1.8387
  120OSM    C5S12667   0.988   5.622  10.513 -0.3601  0.0014  0.2860
  120OSM    H5S12668   0.966   5.514  10.518 -0.1701 -0.0266  0.5150
  120OSM    C6S12669   0.915   5.696  10.403 -0.1841 -0.0624 -0.0126
  120OSM    H6S12670   0.903   5.803  10.429 -2.9954  0.4263 -2.7895
  120OSM    H6T12671   0.815   5.649  10.391  0.0098 -0.3363 -0.5938
  120OSM    C7S12672   0.998   5.668  10.272 -0.4789 -1.0263 -0.8126
  120OSM    H7S12673   1.011   5.558  10.262  1.9581 -0.6553 -2.5693
  120OSM    H7T12674   1.102   5.706  10.282 -1.7526  2.7149 -0.2516
  120OSM    C8S12675   0.933   5.722  10.142 -0.2709 -0.3767  0.0259
  120OSM    H8S12676   0.927   5.833  10.142 -1.9465 -0.4301 -1.4342
  120OSM    H8T12677   0.826   5.692  10.133 -0.3479  0.4665 -2.8566
  120OSM    C9S12678   1.010   5.685  10.015 -0.5844  1.0371 -0.0859
  120OSM    H9S12679   1.023   5.575  10.021  1.6457  1.2194 -0.7583
  120OSM    H9T12680   1.113   5.726  10.011  0.0171 -0.4312 -3.8891
  120OSM   C10S12681   0.932   5.725   9.888 -1.1226  0.4452 -0.3750
  120OSM   H10S12682   0.932   5.835   9.899  1.2467  0.3251  1.8337
  120OSM   H10T12683   0.834   5.672   9.891 -0.6942 -0.2981  1.0692
  120OSM   C11S12684   1.009   5.682   9.761 -0.1868  0.1540  0.3865
  120OSM   H11S12685   1.030   5.573   9.769  0.5058  0.4161  2.7081
  120OSM   H11T12686   1.101   5.742   9.775 -0.7727  1.1473  0.0724
  120OSM   C12S12687   0.951   5.740   9.632  0.0948  0.4671 -0.0514
  120OSM   H12S12688   0.916   5.843   9.656 -1.7294  0.3935 -2.0964
  120OSM   H12T12689   0.861   5.681   9.604  0.4502 -0.5458  0.8778
  120OSM   C13S12690   1.044   5.725   9.517 -0.6564  0.2161 -0.4019
  120OSM   H13S12691   1.056   5.620   9.485  1.1237  1.2775 -3.6680
  120OSM   H13T12692   1.143   5.767   9.547 -0.2777  1.1396 -2.7459
  120OSM   C14S12693   1.000   5.806   9.390  0.6535 -0.1613  0.0176
  120OSM   H14S12694   0.965   5.907   9.421 -0.3565 -0.6749  0.5957
  120OSM   H14T12695   0.917   5.755   9.337  0.2468 -0.1952  0.6779
  120OSM   C15S12696   1.110   5.817   9.293 -0.0270 -0.0384  0.0592
  120OSM   H15S12697   1.145   5.713   9.273 -0.7505 -0.1298 -0.7728
  120OSM   H15T12698   1.201   5.872   9.325  1.2242 -1.9155 -0.1224
  120OSM   C16S12699   1.060   5.870   9.160 -0.6330 -0.1542  0.4144
  120OSM   H16S12700   1.005   5.966   9.168 -0.7387 -0.1706 -0.1324
  120OSM   H16T12701   0.983   5.799   9.124 -1.6330  0.2524  1.6911
  120OSM   C17S12702   1.173   5.900   9.056 -0.0848  0.1374  0.6249
  120OSM   H17S12703   1.245   5.815   9.053  2.2101  1.9327  1.7456
  120OSM   H17T12704   1.244   5.978   9.091  0.8962 -0.5182  0.1580
  120OSM   C18S12705   1.130   5.935   8.914  0.5477 -0.1202  0.9922
  120OSM   H18S12706   1.089   5.843   8.868  2.4643  0.4303 -2.1501
  120OSM   H18T12707   1.220   5.944   8.850  1.6849 -3.2732  1.9704
  120OSM   H18U12708   1.052   6.014   8.904  0.3591 -0.2266  1.5642
  120OSM    C1F12709   1.411   5.476  10.409 -0.4153  0.8577  0.2872
  120OSM     OF12710   1.397   5.354  10.416 -0.2898 -0.2350  0.5835
  120OSM    C2F12711   1.487   5.531  10.306  0.4042  0.4663 -0.5976
  120OSM    H2F12712   1.577   5.467  10.292 -0.3154 -0.5235 -0.8437
  120OSM    H2G12713   1.515   5.631  10.344 -1.6184  0.8932 -0.1542
  120OSM    C3F12714   1.404   5.545  10.175 -0.1350 -0.5543  0.1782
  120OSM    H3F12715   1.315   5.611  10.173  0.6233  0.4869 -1.8277
  120OSM    H3G12716   1.368   5.449  10.133 -0.8169  0.3020 -1.2401
  120OSM    C4F12717   1.493   5.610  10.068  0.1715  0.4820  0.0621
  120OSM    H4F12718   1.573   5.535  10.054  0.2501  0.5371  0.2104
  120OSM    H4G12719   1.554   5.698  10.099  0.2474  0.5450 -0.2621
  120OSM    C5F12720   1.421   5.623   9.938  0.2017 -0.5972 -0.3290
  120OSM    H5F12721   1.350   5.707   9.951  0.5901 -0.5833  2.4013
  120OSM    H5G12722   1.353   5.542   9.905 -1.3879  0.5189  0.1084
  120OSM    C6F12723   1.515   5.650   9.826 -0.1747 -0.0586 -0.3747
  120OSM    H6F12724   1.589   5.568   9.826  0.0750  0.1399  1.3519
  120OSM    H6G12725   1.574   5.740   9.854 -0.7172 -0.4845  2.4995
  120OSM    C7F12726   1.448   5.640   9.693 -1.0379 -0.3880  0.9860
  120OSM    H7F12727   1.360   5.705   9.710  0.0659  1.5222 -0.3398
  120OSM    H7G12728   1.413   5.540   9.659  1.6016 -0.1550 -3.0282
  120OSM    C8F12729   1.532   5.697   9.575 -0.4676  0.4691  0.7175
  120OSM    H8F12730   1.606   5.625   9.534 -1.1742  1.4208 -2.5226
  120OSM    H8G12731   1.585   5.783   9.620  2.4978 -0.4948 -0.6945
  120OSM    C9F12732   1.453   5.726   9.453  0.4589  1.1332 -0.1607
  120OSM    H9F12733   1.380   5.804   9.479  0.0962  0.2124  1.6872
  120OSM   C10F12734   1.461   5.678   9.329 -0.1400  0.3494 -0.1636
  120OSM   H10F12735   1.392   5.725   9.257 -0.3970  0.2959  0.0468
  120OSM   C11F12736   1.559   5.583   9.270 -0.6845  0.2131 -0.3319
  120OSM   H11F12737   1.506   5.490   9.240  1.2875 -1.0818  0.0175
  120OSM   H11G12738   1.632   5.545   9.344 -2.0172 -2.7044 -0.3513
  120OSM   C12F12739   1.628   5.618   9.132  0.0055 -0.0899 -0.1641
  120OSM   H12F12740   1.677   5.525   9.097 -1.4408 -1.5081  1.4469
  120OSM   H12G12741   1.698   5.702   9.155 -0.8325  0.6724 -0.3248
  120OSM   C13F12742   1.529   5.657   9.025 -0.3414 -0.1031  0.2479
  120OSM   H13F12743   1.486   5.756   9.050 -1.6795 -0.4096 -0.7678
  120OSM   H13G12744   1.442   5.589   9.029  0.3309 -1.0811 -0.9744
  120OSM   C14F12745   1.589   5.660   8.889 -0.4904  0.0601 -0.0313
  120OSM   H14F12746   1.630   5.559   8.868 -0.0247 -0.1588  1.8404
  120OSM   H14G12747   1.675   5.730   8.889  0.3888 -0.9296 -1.9323
  120OSM   C15F12748   1.493   5.717   8.790  0.7123 -0.0604  0.2153
  120OSM   H15F12749   1.389   5.679   8.802  0.3173  0.9055 -0.0614
  120OSM   H15G12750   1.524   5.662   8.698  0.1094 -3.4959  1.8762
  120OSM   C16F12751   1.499   5.866   8.766 -0.2275  0.5331 -0.7002
  120OSM   H16F12752   1.603   5.893   8.794  0.2878 -2.4538  0.6327
  120OSM   H16G12753   1.432   5.917   8.838  2.2838  4.1325 -0.6065
  120OSM   C17F12754   1.471   5.898   8.620 -0.0152  0.6058  0.4843
  120OSM   H17F12755   1.551   5.857   8.554 -1.3557  1.3230 -1.7044
  120OSM   H17G12756   1.485   6.008   8.617  1.6722  0.4106 -1.4215
  120OSM   C18F12757   1.330   5.862   8.570  0.2618 -0.4345 -0.1634
  120OSM   H18F12758   1.262   5.919   8.636 -1.6079 -0.5500 -1.8952
  120OSM   H18G12759   1.309   5.753   8.570  2.2787 -0.9205 -2.2066
  120OSM   H18H12760   1.318   5.894   8.464 -0.0454  0.9059  0.2634
  121OSM      N12761   6.262   2.216  11.029  0.7213  0.1410  0.4627
  121OSM    C1512762   6.316   2.333  11.106  0.3792 -0.0071  0.2332
  121OSM   H15A12763   6.409   2.308  11.155 -0.0984  1.0202  1.7420
  121OSM   H15B12764   6.248   2.386  11.171 -0.1151 -0.3500  0.0030
  121OSM   H15C12765   6.341   2.406  11.031  1.7338  0.6505  1.2835
  121OSM    C1412766   6.233   2.112  11.134 -0.4756 -0.5628  0.3824
  121OSM   H14A12767   6.314   2.087  11.200  0.3902 -0.7344 -0.7234
  121OSM   H14B12768   6.200   2.021  11.087 -2.1027 -0.4023  1.1259
  121OSM   H14C12769   6.150   2.144  11.196 -0.5961 -0.7026  0.2946
  121OSM    C1312770   6.129   2.257  10.965 -0.1340  0.2381 -0.0902
  121OSM   H13A12771   6.094   2.180  10.898  0.0602 -0.5228  0.6669
  121OSM   H13B12772   6.147   2.348  10.910  2.9313  0.4290  1.0237
  121OSM   H13C12773   6.053   2.280  11.038 -2.0327  0.1971 -1.9561
  121OSM    C1212774   6.361   2.176  10.919  0.3123 -0.1060 -0.2697
  121OSM   H12A12775   6.454   2.153  10.969 -0.0645 -0.2253  0.3890
  121OSM   H12B12776   6.392   2.250  10.847 -1.0535  1.6719  0.8929
  121OSM    C1112777   6.322   2.054  10.833 -0.1706  0.2429  0.0695
  121OSM   H11A12778   6.385   2.052  10.741 -0.3557  0.6269 -0.0662
  121OSM   H11B12779   6.216   2.071  10.806  0.2893  4.4516  0.2712
  121OSM      P12780   6.461   1.875  10.948 -0.3244  0.3476 -0.1865
  121OSM    O1312781   6.546   1.969  11.018  0.5179  0.1966  0.7055
  121OSM    O1412782   6.436   1.734  11.009 -0.2608  0.1021 -1.0224
  121OSM    O1112783   6.527   1.842  10.802 -0.2092  0.0557 -0.1472
  121OSM    O1212784   6.334   1.935  10.907  0.2782  0.0345 -0.9737
  121OSM    C1S12785   6.474   1.732  10.729  0.3691  0.3823  0.1672
  121OSM    H1S12786   6.364   1.722  10.746  0.3988 -1.3981 -0.5107
  121OSM    H1T12787   6.507   1.633  10.767 -2.3571 -1.6518 -2.2903
  121OSM     NF12788   6.467   1.610  10.523  0.5788  0.4193 -0.1878
  121OSM    HNF12789   6.540   1.543  10.510  1.1660  0.5261  2.1721
  121OSM    C2S12790   6.512   1.732  10.578 -0.3734 -0.6626  0.1454
  121OSM    H2S12791   6.463   1.817  10.526  0.4236  0.5263  1.2869
  121OSM    C3S12792   6.666   1.753  10.549 -0.2232  0.3751 -0.2900
  121OSM    H3S12793   6.708   1.677  10.617 -1.1718 -1.7832 -2.0143
  121OSM     O312794   6.707   1.882  10.599 -0.4240  0.3836 -0.2190
  121OSM    HO312795   6.638   1.912  10.659  0.5911 -1.6157  2.0758
  121OSM    C4S12796   6.694   1.739  10.405 -0.4391  0.2098  0.0593
  121OSM    H4S12797   6.612   1.764  10.336  0.5034  2.8138 -0.2225
  121OSM    C5S12798   6.816   1.706  10.355 -0.8607  0.3415  0.3264
  121OSM    H5S12799   6.899   1.689  10.425 -1.1715 -1.4788  0.3065
  121OSM    C6S12800   6.865   1.685  10.216 -0.9872  0.5731 -0.4334
  121OSM    H6S12801   6.945   1.608  10.212 -0.1911  1.3297  0.3148
  121OSM    H6T12802   6.901   1.783  10.176 -1.2980  0.6088 -0.6264
  121OSM    C7S12803   6.759   1.649  10.120  0.1989 -0.2711 -0.0980
  121OSM    H7S12804   6.697   1.739  10.101  1.0691  0.3624  0.0091
  121OSM    H7T12805   6.696   1.570  10.166 -1.5029  1.9138  1.5753
  121OSM    C8S12806   6.821   1.584   9.992  0.5475 -0.3472  0.5205
  121OSM    H8S12807   6.848   1.487  10.039 -4.0551 -1.5677  1.0776
  121OSM    H8T12808   6.912   1.639   9.959  0.6452 -1.2590 -0.8015
  121OSM    C9S12809   6.727   1.542   9.885 -0.5304  0.1064 -0.0911
  121OSM    H9S12810   6.670   1.627   9.843 -1.0447 -0.3225 -0.2737
  121OSM    H9T12811   6.653   1.479   9.939  1.0301 -0.1157  1.9460
  121OSM   C10S12812   6.788   1.470   9.769  0.5512 -0.2698 -1.0565
  121OSM   H10S12813   6.842   1.382   9.811  0.4570 -1.1712 -2.7456
  121OSM   H10T12814   6.865   1.538   9.727 -0.4620  1.7294  0.1932
  121OSM   C11S12815   6.702   1.448   9.639  0.4978  0.0322  1.0902
  121OSM   H11S12816   6.631   1.531   9.619  1.0813  0.0302 -1.3063
  121OSM   H11T12817   6.639   1.359   9.664 -2.5827  1.4985 -0.7447
  121OSM   C12S12818   6.776   1.422   9.510  0.0772 -0.4822 -0.7075
  121OSM   H12S12819   6.829   1.325   9.524  1.7945  0.2491 -1.8306
  121OSM   H12T12820   6.858   1.496   9.500 -0.2772 -0.1518 -1.2212
  121OSM   C13S12821   6.690   1.420   9.388 -0.2043  0.1834 -0.1196
  121OSM   H13S12822   6.663   1.527   9.376 -1.9376 -0.1013  0.7702
  121OSM   H13T12823   6.590   1.370   9.385 -0.3040  0.3185  0.6085
  121OSM   C14S12824   6.781   1.387   9.272 -0.5795 -0.1730  0.1908
  121OSM   H14S12825   6.804   1.278   9.272 -4.1049 -1.0344  0.9182
  121OSM   H14T12826   6.874   1.447   9.278  0.2623 -1.4083 -0.1146
  121OSM   C15S12827   6.721   1.419   9.134 -0.0392  0.4389  0.7041
  121OSM   H15S12828   6.690   1.526   9.129  0.8456  0.6553 -0.5412
  121OSM   H15T12829   6.631   1.355   9.118  0.7699 -0.1110 -2.2448
  121OSM   C16S12830   6.817   1.377   9.019 -0.4285 -0.6739  0.2257
  121OSM   H16S12831   6.823   1.266   9.024  3.3537 -0.5828  1.1037
  121OSM   H16T12832   6.919   1.418   9.032  1.0595 -2.7805 -3.3929
  121OSM   C17S12833   6.761   1.416   8.878  0.8427  0.1673 -0.0810
  121OSM   H17S12834   6.759   1.526   8.862 -0.8420  0.2347  0.3857
  121OSM   H17T12835   6.653   1.395   8.871  0.6729  0.0658  2.0712
  121OSM   C18S12836   6.834   1.361   8.754 -0.1855 -0.0884 -0.3341
  121OSM   H18S12837   6.811   1.416   8.661  0.3062 -1.4899 -1.3165
  121OSM   H18T12838   6.806   1.256   8.733 -0.9160  0.4645 -2.3142
  121OSM   H18U12839   6.942   1.350   8.777 -0.2815 -0.8166 -0.2082
  121OSM    C1F12840   6.335   1.570  10.510 -0.2228 -0.5567  0.6982
  121OSM     OF12841   6.248   1.656  10.528 -0.2482  0.0887 -0.3472
  121OSM    C2F12842   6.310   1.429  10.483 -0.6830 -0.2375 -0.2218
  121OSM    H2F12843   6.265   1.383  10.574  0.8397 -0.5794  0.3835
  121OSM    H2G12844   6.410   1.385  10.465 -0.3544  1.0632 -1.8144
  121OSM    C3F12845   6.231   1.415  10.352  0.2912  0.2657 -0.3618
  121OSM    H3F12846   6.137   1.473  10.366 -1.0617 -2.0455  0.7628
  121OSM    H3G12847   6.208   1.308  10.331  2.0957 -0.3033  0.3444
  121OSM    C4F12848   6.290   1.471  10.222 -0.0733 -0.5365 -0.1967
  121OSM    H4F12849   6.397   1.442  10.225  0.4805  1.3840  0.0519
  121OSM    H4G12850   6.281   1.582  10.217  1.0911 -0.4786 -2.7009
  121OSM    C5F12851   6.215   1.427  10.093 -0.6518 -0.6182  0.0688
  121OSM    H5F12852   6.122   1.488  10.093 -0.9142 -1.0152 -0.2159
  121OSM    H5G12853   6.194   1.318  10.095  0.3644 -0.8183  0.6129
  121OSM    C6F12854   6.295   1.430   9.957 -0.5723 -0.1532  0.4561
  121OSM    H6F12855   6.386   1.367   9.968 -1.4591 -1.6296 -0.3057
  121OSM    H6G12856   6.322   1.535   9.933 -3.0236  0.2685 -0.7382
  121OSM    C7F12857   6.211   1.365   9.847 -0.0935 -0.0146 -0.7444
  121OSM    H7F12858   6.126   1.432   9.824 -0.9834 -0.5506  0.8535
  121OSM    H7G12859   6.155   1.275   9.879 -0.9599  1.2362  1.4638
  121OSM    C8F12860   6.281   1.325   9.711 -0.2353  0.3629 -0.0482
  121OSM    H8F12861   6.204   1.280   9.644 -2.4236 -1.3661  3.3242
  121OSM    H8G12862   6.363   1.254   9.735  0.6158  1.2051 -0.4514
  121OSM    C9F12863   6.335   1.443   9.641 -0.1240  0.4978  0.3352
  121OSM    H9F12864   6.366   1.521   9.711  2.2480 -0.0311 -0.0535
  121OSM   C10F12865   6.331   1.471   9.504  0.2069 -0.1919 -0.3259
  121OSM   H10F12866   6.382   1.562   9.468  1.8188 -1.8480 -2.4995
  121OSM   C11F12867   6.280   1.387   9.390  0.5300  0.5395 -0.1810
  121OSM   H11F12868   6.170   1.375   9.391  0.3489  1.1378 -3.4554
  121OSM   H11G12869   6.331   1.289   9.378 -0.1178  0.1868 -0.0977
  121OSM   C12F12870   6.301   1.464   9.258 -0.7010  0.4550 -0.1220
  121OSM   H12F12871   6.409   1.490   9.249 -0.7310  0.7913  0.4367
  121OSM   H12G12872   6.248   1.561   9.264  1.8874  1.9777 -0.2665
  121OSM   C13F12873   6.260   1.388   9.129  0.2644 -0.2188 -0.1029
  121OSM   H13F12874   6.152   1.360   9.135 -0.1036  0.9374 -0.9464
  121OSM   H13G12875   6.307   1.288   9.142 -1.3455 -0.9915  0.0884
  121OSM   C14F12876   6.277   1.449   8.993 -0.2383  0.0821 -0.7454
  121OSM   H14F12877   6.380   1.491   8.994  1.1300 -3.0255 -0.2953
  121OSM   H14G12878   6.211   1.538   9.003 -0.5831 -0.2912  0.6080
  121OSM   C15F12879   6.242   1.362   8.868  0.1144  0.7424  0.6072
  121OSM   H15F12880   6.135   1.335   8.874  0.2250  0.3192  0.6483
  121OSM   H15G12881   6.288   1.261   8.869 -0.2988  0.5560  0.7445
  121OSM   C16F12882   6.255   1.444   8.737 -0.7008  0.0812 -0.0745
  121OSM   H16F12883   6.241   1.553   8.750  3.5209  0.9688 -1.6511
  121OSM   H16G12884   6.194   1.405   8.653 -0.2891  2.3776 -1.5196
  121OSM   C17F12885   6.402   1.434   8.683  0.5026 -0.2208  0.1262
  121OSM   H17F12886   6.432   1.331   8.710  2.7165  0.5042  0.6320
  121OSM   H17G12887   6.469   1.500   8.741 -0.9350  1.3447  0.0951
  121OSM   C18F12888   6.422   1.469   8.531  0.0036 -0.4128  0.2944
  121OSM   H18F12889   6.527   1.500   8.511  0.7147 -2.0545  1.2723
  121OSM   H18G12890   6.345   1.540   8.495  1.6088  1.8052  0.9969
  121OSM   H18H12891   6.401   1.370   8.485 -0.9870  0.2875 -0.8157
  122OSM      N12892   0.846   5.252  11.054 -0.2105 -0.1456 -0.1072
  122OSM    C1512893   0.843   5.395  11.022  0.0533  0.8112  0.1628
  122OSM   H15A12894   0.784   5.398  10.931  2.0951 -1.8695 -1.4222
  122OSM   H15B12895   0.939   5.442  11.013  1.8662 -2.8486 -1.9991
  122OSM   H15C12896   0.787   5.442  11.101  0.8931  2.7950 -0.3566
  122OSM    C1412897   0.941   5.189  10.968  0.4387  0.4372 -0.9478
  122OSM   H14A12898   0.912   5.174  10.865 -1.3376  2.0030 -0.7197
  122OSM   H14B12899   0.969   5.089  11.000 -3.7751 -1.4240 -2.3324
  122OSM   H14C12900   1.036   5.239  10.958 -0.0591  1.5525 -0.1955
  122OSM    C1312901   0.891   5.235  11.191  0.2584  0.3897 -0.3335
  122OSM   H13A12902   0.876   5.131  11.213  1.0885  0.5133  0.9416
  122OSM   H13B12903   0.841   5.290  11.270 -0.7970 -0.2049 -0.5714
  122OSM   H13C12904   0.996   5.260  11.198 -0.0179  1.6291 -0.2753
  122OSM    C1212905   0.710   5.199  11.023 -0.2163 -0.0721  0.0964
  122OSM   H12A12906   0.718   5.092  11.007 -1.3835 -0.3624  1.2571
  122OSM   H12B12907   0.685   5.243  10.928  2.9041 -1.6632 -1.6351
  122OSM    C1112908   0.594   5.230  11.120  0.4418 -0.1023  0.6470
  122OSM   H11A12909   0.606   5.177  11.216 -1.1205 -2.3880 -0.3263
  122OSM   H11B12910   0.501   5.186  11.077  0.5706  0.2245  0.0274
  122OSM      P12911   0.461   5.460  11.101  0.5511  0.2579 -0.0109
  122OSM    O1312912   0.357   5.454  11.205 -0.1044 -0.5425 -0.0776
  122OSM    O1412913   0.511   5.596  11.068 -0.0518  0.0570 -0.3702
  122OSM    O1112914   0.414   5.385  10.974 -1.0025  0.6161  0.4932
  122OSM    O1212915   0.581   5.370  11.144 -0.6062 -0.0904 -0.4255
  122OSM    C1S12916   0.429   5.449  10.837 -0.4843  0.3129 -0.0979
  122OSM    H1S12917   0.534   5.422  10.810 -0.3451  0.7855 -0.0352
  122OSM    H1T12918   0.414   5.559  10.841  0.1615  0.3744  1.4210
  122OSM     NF12919   0.376   5.408  10.600  0.3206 -0.4223 -0.4164
  122OSM    HNF12920   0.337   5.483  10.546  1.8668 -0.7109 -2.0349
  122OSM    C2S12921   0.328   5.384  10.732 -0.7106 -0.2103  0.4434
  122OSM    H2S12922   0.327   5.274  10.746  0.4632  0.0342  3.2818
  122OSM    C3S12923   0.186   5.435  10.758 -0.0453 -0.1629 -0.8253
  122OSM    H3S12924   0.191   5.545  10.747  1.3725 -0.1048  0.1251
  122OSM     O312925   0.158   5.420  10.899 -0.2957  0.1497  0.3921
  122OSM    HO312926   0.239   5.387  10.938  1.1288  3.1408  0.2515
  122OSM    C4S12927   0.072   5.369  10.685  0.1562 -0.9138  0.0753
  122OSM    H4S12928   0.075   5.259  10.696  0.7227 -0.8778  0.3327
  122OSM    C5S12929  -0.011   5.429  10.593  0.4439 -0.1784  0.3375
  122OSM    H5S12930   0.006   5.536  10.571  0.6440 -0.5427 -1.4496
  122OSM    C6S12931  -0.098   5.355  10.498 -0.7797  0.7067 -0.0140
  122OSM    H6S12932  -0.201   5.380  10.531 -0.6394  1.0104  0.1929
  122OSM    H6T12933  -0.084   5.246  10.510  1.5546  1.0966  1.3313
  122OSM    C7S12934  -0.076   5.411  10.352  0.0642  0.4346 -0.3163
  122OSM    H7S12935  -0.115   5.515  10.352  0.6414  0.6597  0.1652
  122OSM    H7T12936  -0.144   5.345  10.295  0.6029 -0.2683 -0.1604
  122OSM    C8S12937   0.059   5.398  10.283  0.1012  0.1541  0.5086
  122OSM    H8S12938   0.100   5.299  10.313 -0.6588  0.3701  2.4025
  122OSM    H8T12939   0.126   5.468  10.337 -0.0903  0.7390  0.0055
  122OSM    C9S12940   0.058   5.434  10.135  0.2758  0.8149 -0.4760
  122OSM    H9S12941   0.035   5.542  10.131 -0.1536  0.7167 -0.8577
  122OSM    H9T12942  -0.023   5.382  10.080 -0.2970  2.4137 -1.2105
  122OSM   C10S12943   0.182   5.408  10.051  0.0945  0.0256  0.0121
  122OSM   H10S12944   0.187   5.298  10.040 -3.4252 -0.2521 -0.0792
  122OSM   H10T12945   0.261   5.457  10.111 -0.1876 -1.3425  1.5577
  122OSM   C11S12946   0.163   5.463   9.910  0.6565  0.7242 -0.0173
  122OSM   H11S12947   0.130   5.568   9.921 -0.9990  0.3196 -0.8663
  122OSM   H11T12948   0.079   5.404   9.867  0.1266  0.6873  1.0335
  122OSM   C12S12949   0.287   5.462   9.825 -0.1130 -0.4696 -0.2580
  122OSM   H12S12950   0.312   5.359   9.793 -0.4509 -0.5215 -0.3632
  122OSM   H12T12951   0.368   5.503   9.889 -0.9888 -0.2743  0.7769
  122OSM   C13S12952   0.272   5.551   9.688  0.1661 -0.6078 -0.5758
  122OSM   H13S12953   0.374   5.568   9.647  0.4986 -1.0201  0.0549
  122OSM   H13T12954   0.224   5.649   9.707  0.9350 -0.8228  3.3754
  122OSM   C14S12955   0.187   5.486   9.577 -0.4104  0.9355 -0.7411
  122OSM   H14S12956   0.083   5.461   9.609 -0.1682 -0.8740 -1.2659
  122OSM   H14T12957   0.240   5.395   9.542 -2.5106 -0.2322 -1.0605
  122OSM   C15S12958   0.193   5.576   9.446  0.2345 -0.2731  0.0605
  122OSM   H15S12959   0.299   5.607   9.439  0.7244 -1.8207  0.3231
  122OSM   H15T12960   0.126   5.663   9.461 -1.1559 -1.1412 -0.8812
  122OSM   C16S12961   0.154   5.499   9.317 -0.9324 -0.1124 -0.0887
  122OSM   H16S12962   0.058   5.450   9.344 -1.1877  0.6734  0.4463
  122OSM   H16T12963   0.233   5.421   9.308 -0.3988  0.6357 -2.6150
  122OSM   C17S12964   0.125   5.576   9.183  0.2491  0.6165 -1.1374
  122OSM   H17S12965   0.026   5.622   9.200  0.7882  1.3906  0.0020
  122OSM   H17T12966   0.102   5.507   9.099  0.6477 -0.3081 -0.5018
  122OSM   C18S12967   0.220   5.690   9.138 -0.1022  0.3519  0.2298
  122OSM   H18S12968   0.208   5.777   9.205  1.2598  1.9382 -1.4844
  122OSM   H18T12969   0.208   5.721   9.032  0.0944 -0.5490 -0.0741
  122OSM   H18U12970   0.326   5.657   9.147 -0.0465 -0.2447 -1.9819
  122OSM    C1F12971   0.475   5.335  10.548 -0.5059 -0.5351 -0.4030
  122OSM     OF12972   0.528   5.236  10.601 -0.0198 -0.2218 -0.3523
  122OSM    C2F12973   0.540   5.386  10.423 -0.6838 -0.3671  0.0671
  122OSM    H2F12974   0.547   5.497  10.423 -0.8713 -0.2890 -2.5050
  122OSM    H2G12975   0.468   5.370  10.341 -1.3368 -0.2104  0.6038
  122OSM    C3F12976   0.684   5.332  10.387 -0.3610 -0.0338 -0.8082
  122OSM    H3F12977   0.688   5.221  10.384  1.2207 -0.2110  2.7794
  122OSM    H3G12978   0.752   5.362  10.469  0.5571  0.4478 -1.7292
  122OSM    C4F12979   0.754   5.377  10.260 -0.4634  0.3437  0.6369
  122OSM    H4F12980   0.863   5.354  10.264 -0.8911 -2.0604 -0.1686
  122OSM    H4G12981   0.754   5.488  10.261  0.3423  0.3813  2.6017
  122OSM    C5F12982   0.697   5.324  10.125 -0.6155 -0.1497  0.5442
  122OSM    H5F12983   0.588   5.340  10.135 -0.8224 -1.7934  1.1739
  122OSM    H5G12984   0.734   5.219  10.133 -0.4674 -0.0342  1.6187
  122OSM    C6F12985   0.752   5.391   9.994  0.6842 -0.5422 -0.3085
  122OSM    H6F12986   0.863   5.390  10.007  0.9338  1.4551 -1.7362
  122OSM    H6G12987   0.733   5.500  10.004 -0.3746 -0.6660 -0.9121
  122OSM    C7F12988   0.712   5.327   9.866 -0.0131 -0.0221  0.2566
  122OSM    H7F12989   0.602   5.332   9.850  0.3222 -0.7384 -2.7375
  122OSM    H7G12990   0.730   5.218   9.877  1.5773  0.1448 -0.5196
  122OSM    C8F12991   0.787   5.381   9.747 -0.0172 -0.0625 -0.3230
  122OSM    H8F12992   0.893   5.376   9.780  0.0699  1.2568 -0.3674
  122OSM    H8G12993   0.763   5.486   9.719  0.4626  0.1185 -0.0595
  122OSM    C9F12994   0.762   5.297   9.623 -0.0821 -0.1115  0.5010
  122OSM    H9F12995   0.823   5.205   9.630  1.0532  0.4739 -1.1553
  122OSM   C10F12996   0.707   5.324   9.504  0.5983 -0.2528 -0.1304
  122OSM   H10F12997   0.700   5.248   9.424 -0.2614  1.2637 -1.5751
  122OSM   C11F12998   0.642   5.454   9.467  0.1854  0.0586 -0.6052
  122OSM   H11F12999   0.644   5.531   9.546 -1.0336 -0.3666 -0.1462
  122OSM   H11G13000   0.533   5.439   9.450  0.6532 -3.4002 -1.4459
  122OSM   C12F13001   0.703   5.531   9.347 -0.0034  0.0137 -0.0552
  122OSM   H12F13002   0.810   5.557   9.360  0.1174 -1.5533  2.7916
  122OSM   H12G13003   0.653   5.629   9.327 -0.5972 -0.5009 -1.1771
  122OSM   C13F13004   0.694   5.454   9.217  0.1338 -0.4894 -0.1618
  122OSM   H13F13005   0.600   5.395   9.209 -1.8736  2.5813 -0.8418
  122OSM   H13G13006   0.770   5.374   9.223  0.0923 -0.4353  1.8255
  122OSM   C14F13007   0.730   5.546   9.096  0.2030  0.7544 -0.2803
  122OSM   H14F13008   0.822   5.605   9.117  0.4895  0.0383  0.4847
  122OSM   H14G13009   0.645   5.614   9.070 -1.0509 -0.4661  0.4882
  122OSM   C15F13010   0.768   5.461   8.976  1.0496 -0.3831  0.2132
  122OSM   H15F13011   0.678   5.399   8.958  0.9472 -0.6371  1.4908
  122OSM   H15G13012   0.848   5.385   8.987  0.7361 -0.6379  0.7823
  122OSM   C16F13013   0.808   5.561   8.870  0.0945 -0.6881 -0.1360
  122OSM   H16F13014   0.919   5.554   8.872  0.0916 -0.8550 -0.4361
  122OSM   H16G13015   0.772   5.662   8.897 -0.0755 -0.4839 -1.0836
  122OSM   C17F13016   0.781   5.541   8.721  0.5358  0.4921 -0.4775
  122OSM   H17F13017   0.672   5.563   8.716  0.2966 -0.1296  1.2012
  122OSM   H17G13018   0.801   5.435   8.695 -0.3019  0.1924  0.0520
  122OSM   C18F13019   0.855   5.635   8.628 -0.7416 -0.1700  0.1358
  122OSM   H18F13020   0.963   5.648   8.649 -0.4755  1.6661 -1.9991
  122OSM   H18G13021   0.823   5.739   8.651  0.0313 -0.6425  4.1193
  122OSM   H18H13022   0.849   5.604   8.521 -0.6702 -2.6776  0.7919
  123OSM      N13023   4.028   5.601   6.305 -0.7417 -0.5023 -0.3577
  123OSM    C1513024   4.159   5.583   6.370 -0.2115  0.0401 -0.8755
  123OSM   H15A13025   4.178   5.658   6.445  2.0700  0.2967 -1.6424
  123OSM   H15B13026   4.245   5.597   6.306  0.1410 -0.2907 -0.4796
  123OSM   H15C13027   4.175   5.485   6.412 -0.5448  0.4270  0.1752
  123OSM    C1413028   4.045   5.686   6.182  1.0224 -0.6317 -0.8220
  123OSM   H14A13029   4.126   5.650   6.120  0.2821 -0.8479 -1.6927
  123OSM   H14B13030   4.051   5.790   6.210  0.7986 -1.0856  1.0309
  123OSM   H14C13031   3.953   5.677   6.126  0.4096  0.4062 -0.0146
  123OSM    C1313032   3.975   5.469   6.255 -0.7827 -0.6792  0.0256
  123OSM   H13A13033   3.962   5.400   6.337  2.1853 -1.8723 -0.4029
  123OSM   H13B13034   4.037   5.423   6.180 -0.7608 -1.7114  0.6576
  123OSM   H13C13035   3.877   5.487   6.214  0.8598  3.5071 -2.7852
  123OSM    C1213036   3.938   5.664   6.407  0.5726  0.5121 -0.0607
  123OSM   H12A13037   3.976   5.762   6.433 -1.5649  1.1504  0.9292
  123OSM   H12B13038   3.925   5.612   6.501 -4.8721  3.7798  1.5088
  123OSM    C1113039   3.792   5.689   6.364 -0.6686  0.3411  0.3858
  123OSM   H11A13040   3.796   5.728   6.261 -1.8399 -3.7938 -1.4294
  123OSM   H11B13041   3.748   5.758   6.439 -0.4537  1.3067 -0.3571
  123OSM      P13042   3.602   5.526   6.292  0.2989  0.1958 -0.0077
  123OSM    O1313043   3.606   5.553   6.149 -0.3291  0.6207 -0.2346
  123OSM    O1413044   3.563   5.389   6.333 -0.3614  0.3870  0.1396
  123OSM    O1113045   3.503   5.635   6.359 -0.0757 -0.5892 -0.3340
  123OSM    O1213046   3.734   5.559   6.364 -0.0367 -0.5716  0.1629
  123OSM    C1S13047   3.461   5.604   6.492 -0.4755 -0.0285  0.1590
  123OSM    H1S13048   3.540   5.617   6.569 -0.9215 -0.6446  0.7296
  123OSM    H1T13049   3.425   5.499   6.496 -1.4544  0.1969 -1.6089
  123OSM     NF13050   3.295   5.623   6.673  0.7097 -0.5262 -0.1604
  123OSM    HNF13051   3.196   5.613   6.671  0.7176 -0.6772 -2.7284
  123OSM    C2S13052   3.341   5.684   6.547  0.0819 -0.2510 -0.2760
  123OSM    H2S13053   3.375   5.789   6.563 -2.4221  0.8438 -1.5399
  123OSM    C3S13054   3.231   5.694   6.441  0.3390  0.5367 -0.4299
  123OSM    H3S13055   3.175   5.599   6.430 -1.6264  1.3866  1.3368
  123OSM     O313056   3.269   5.721   6.307 -0.3626  0.2120 -1.1371
  123OSM    HO313057   3.362   5.699   6.305 -0.1371  0.8136  0.6181
  123OSM    C4S13058   3.131   5.800   6.480  0.2545 -0.0521  0.3012
  123OSM    H4S13059   3.166   5.900   6.512  1.9828  0.0776 -1.7514
  123OSM    C5S13060   3.003   5.770   6.501 -0.2333  0.5263  0.3260
  123OSM    H5S13061   2.978   5.664   6.481  2.1591 -0.3544  1.5346
  123OSM    C6S13062   2.888   5.863   6.549 -0.5607  0.5751  0.1277
  123OSM    H6S13063   2.802   5.860   6.479  0.3433 -0.2620 -0.9891
  123OSM    H6T13064   2.922   5.969   6.551  0.5544  0.2114  1.1607
  123OSM    C7S13065   2.826   5.824   6.681 -0.0511  0.3987 -0.6705
  123OSM    H7S13066   2.910   5.828   6.753 -1.3077 -0.6553  0.9219
  123OSM    H7T13067   2.793   5.718   6.682 -1.5376  0.8395  0.8167
  123OSM    C8S13068   2.708   5.915   6.723  0.1508 -0.0923  0.2252
  123OSM    H8S13069   2.621   5.913   6.653 -0.6624  1.8097  1.0955
  123OSM    H8T13070   2.739   6.021   6.735  0.4807  0.1381 -2.1785
  123OSM    C9S13071   2.650   5.892   6.867  0.1406  0.1193  0.5029
  123OSM    H9S13072   2.598   5.795   6.856 -1.6013  1.1910 -1.7271
  123OSM    H9T13073   2.574   5.972   6.885  0.7509  0.5922  1.0316
  123OSM   C10S13074   2.750   5.874   6.977  0.2045  0.2619 -0.5300
  123OSM   H10S13075   2.819   5.960   6.981 -0.0741  0.4734 -0.2004
  123OSM   H10T13076   2.816   5.786   6.963  1.0066  0.7766 -0.0095
  123OSM   C11S13077   2.677   5.870   7.115 -0.6324  0.5667  1.0811
  123OSM   H11S13078   2.608   5.783   7.116 -0.1993  0.1623 -0.9237
  123OSM   H11T13079   2.609   5.958   7.122 -3.0998 -0.4550 -4.6592
  123OSM   C12S13080   2.770   5.859   7.229 -0.1099 -0.3564 -1.0671
  123OSM   H12S13081   2.853   5.933   7.218  0.2072 -0.8030 -1.7908
  123OSM   H12T13082   2.825   5.763   7.220 -1.4771 -1.3653  0.6827
  123OSM   C13S13083   2.693   5.860   7.366  0.0249 -0.1500 -0.0907
  123OSM   H13S13084   2.644   5.760   7.373 -1.6203  0.6885  0.9656
  123OSM   H13T13085   2.611   5.934   7.368 -1.0053 -1.2481 -0.4293
  123OSM   C14S13086   2.784   5.884   7.489  0.5939 -0.1903  0.0764
  123OSM   H14S13087   2.846   5.976   7.483 -0.5900  0.6127 -0.0800
  123OSM   H14T13088   2.839   5.788   7.502  0.0181 -0.9182 -2.3091
  123OSM   C15S13089   2.698   5.900   7.613 -0.6405 -1.1147 -0.0086
  123OSM   H15S13090   2.632   5.811   7.618 -1.9199 -0.1393  1.7572
  123OSM   H15T13091   2.632   5.989   7.597  1.9278  0.6616 -1.4787
  123OSM   C16S13092   2.778   5.907   7.746  0.6637 -0.0780  0.5133
  123OSM   H16S13093   2.707   5.905   7.832 -1.4624 -2.5282 -1.1575
  123OSM   H16T13094   2.828   6.005   7.759 -1.9681  0.9852  4.8660
  123OSM   C17S13095   2.876   5.794   7.769 -0.3525  0.3322 -0.5550
  123OSM   H17S13096   2.968   5.803   7.708 -0.2849 -2.8533 -1.1012
  123OSM   H17T13097   2.846   5.698   7.722  1.4340 -0.7590  0.4184
  123OSM   C18S13098   2.916   5.771   7.917  0.5163  0.0560 -0.4924
  123OSM   H18S13099   2.981   5.856   7.948  1.6417 -0.2158 -1.9724
  123OSM   H18T13100   2.979   5.680   7.926  1.6938  1.0059  1.4993
  123OSM   H18U13101   2.825   5.764   7.980 -0.1269 -2.6135 -1.5692
  123OSM    C1F13102   3.365   5.624   6.781 -0.3410 -1.0182  0.4358
  123OSM     OF13103   3.477   5.668   6.795 -0.4125 -0.2651 -0.1226
  123OSM    C2F13104   3.285   5.588   6.904 -0.2192  0.1068  0.6348
  123OSM    H2F13105   3.332   5.496   6.945  1.4263  0.5118 -0.2785
  123OSM    H2G13106   3.180   5.569   6.871 -0.8840  0.1132  2.6017
  123OSM    C3F13107   3.279   5.695   7.017 -0.2505  0.3269  0.5524
  123OSM    H3F13108   3.267   5.797   6.974  1.5788  0.1322 -0.5090
  123OSM    H3G13109   3.372   5.691   7.077  0.3055  0.0823 -0.3133
  123OSM    C4F13110   3.152   5.675   7.103  0.4039 -0.7535  0.3282
  123OSM    H4F13111   3.066   5.681   7.033  2.0007  1.2714 -1.6125
  123OSM    H4G13112   3.144   5.760   7.173  0.6955 -0.2667 -0.2162
  123OSM    C5F13113   3.153   5.558   7.201 -0.2646  0.5113 -0.0571
  123OSM    H5F13114   3.250   5.564   7.255  0.2539  0.7276 -0.9967
  123OSM    H5G13115   3.154   5.466   7.139  1.4640 -1.1799  2.2938
  123OSM    C6F13116   3.038   5.559   7.307 -0.4184  0.1890  0.0395
  123OSM    H6F13117   3.022   5.453   7.334 -1.9278  0.6057  0.9047
  123OSM    H6G13118   2.943   5.595   7.262 -0.2745  0.9347  0.3118
  123OSM    C7F13119   3.060   5.632   7.444  0.3957 -0.8975 -0.5222
  123OSM    H7F13120   2.978   5.606   7.514  0.0189  0.6325 -0.3478
  123OSM    H7G13121   3.045   5.741   7.428  1.2788 -0.6969 -0.0079
  123OSM    C8F13122   3.195   5.611   7.515 -0.0321 -1.1252  0.3534
  123OSM    H8F13123   3.214   5.688   7.593  2.8106  0.7672 -1.9750
  123OSM    H8G13124   3.273   5.635   7.440 -2.0726 -0.1742 -1.6026
  123OSM    C9F13125   3.208   5.472   7.568  0.3686 -0.4926  0.8813
  123OSM    H9F13126   3.228   5.394   7.494 -2.6444  0.0980 -0.6862
  123OSM   C10F13127   3.252   5.453   7.690 -0.2181  0.0460 -0.9151
  123OSM   H10F13128   3.254   5.351   7.733 -1.6674  0.4659  0.2275
  123OSM   C11F13129   3.252   5.553   7.805  0.1652 -1.2311  0.1562
  123OSM   H11F13130   3.148   5.574   7.837  0.1136  0.6432 -1.1161
  123OSM   H11G13131   3.301   5.649   7.778 -0.2545 -0.7111  1.1708
  123OSM   C12F13132   3.327   5.511   7.941  0.0054  0.0264  0.1953
  123OSM   H12F13133   3.412   5.458   7.892  0.4054 -0.5788  1.5052
  123OSM   H12G13134   3.266   5.439   7.999  1.3211 -1.5085 -0.2489
  123OSM   C13F13135   3.385   5.630   8.023  1.0812 -0.2292  0.2910
  123OSM   H13F13136   3.305   5.701   8.054 -0.2523 -0.8255 -1.6272
  123OSM   H13G13137   3.458   5.679   7.956  1.8707 -0.4467  0.9684
  123OSM   C14F13138   3.450   5.575   8.149 -1.1097  0.7450 -0.7426
  123OSM   H14F13139   3.522   5.649   8.190  0.1174 -0.9014  0.1759
  123OSM   H14G13140   3.506   5.484   8.121  0.6306  0.7863  2.1537
  123OSM   C15F13141   3.360   5.530   8.268 -0.0659 -0.1506 -0.0893
  123OSM   H15F13142   3.281   5.458   8.238  0.3991 -1.2217  1.1333
  123OSM   H15G13143   3.309   5.623   8.302 -1.0443 -0.4964 -0.5870
  123OSM   C16F13144   3.442   5.466   8.385  0.1080 -0.0666  0.5782
  123OSM   H16F13145   3.534   5.526   8.403 -0.1391  1.0696 -1.6296
  123OSM   H16G13146   3.477   5.363   8.363  0.9985  0.4980 -0.8075
  123OSM   C17F13147   3.364   5.464   8.518 -0.1609 -0.0239 -0.6002
  123OSM   H17F13148   3.342   5.570   8.547  0.4822  0.0135 -0.2223
  123OSM   H17G13149   3.422   5.413   8.598 -1.1599 -1.6217 -0.8472
  123OSM   C18F13150   3.220   5.387   8.523 -0.4679  0.1156  0.2178
  123OSM   H18F13151   3.230   5.280   8.495  1.1310 -0.1145  1.5284
  123OSM   H18G13152   3.142   5.428   8.455 -0.7349 -0.0681  0.4116
  123OSM   H18H13153   3.182   5.385   8.627 -2.8255 -0.2561 -0.5705
  124OSM      N13154   4.965   2.389   5.868 -0.6272 -0.6861 -0.1206
  124OSM    C1513155   5.032   2.514   5.845 -0.2816 -0.2727  0.3413
  124OSM   H15A13156   5.139   2.519   5.860 -0.3709  0.3589  0.8558
  124OSM   H15B13157   5.002   2.599   5.904 -1.9037 -1.3875  1.1773
  124OSM   H15C13158   5.019   2.548   5.743  0.8102  2.2416  0.9624
  124OSM    C1413159   4.821   2.413   5.843 -0.0987 -0.3524  0.0916
  124OSM   H14A13160   4.758   2.327   5.859 -1.0793  0.6784  2.2606
  124OSM   H14B13161   4.795   2.456   5.747 -0.5886  2.9915  1.5604
  124OSM   H14C13162   4.783   2.488   5.912  0.2554 -2.9142  3.3311
  124OSM    C1313163   5.011   2.291   5.760  0.0931  0.3955  0.1856
  124OSM   H13A13164   5.116   2.269   5.766 -0.3685 -1.6421  2.2322
  124OSM   H13B13165   4.983   2.310   5.657  0.3412 -1.8117 -0.3433
  124OSM   H13C13166   4.962   2.199   5.787  1.3394 -0.4235 -0.2554
  124OSM    C1213167   4.987   2.330   6.005  0.2789  0.8622  0.1135
  124OSM   H12A13168   4.930   2.239   6.008 -0.6685  1.4495  0.7277
  124OSM   H12B13169   4.945   2.392   6.084 -3.0931 -0.2963 -0.5918
  124OSM    C1113170   5.127   2.288   6.054 -0.4899  1.2642  0.6803
  124OSM   H11A13171   5.130   2.253   6.159 -0.6349 -1.1363 -0.0439
  124OSM   H11B13172   5.196   2.374   6.043  2.6204 -1.0245  0.7927
  124OSM      P13173   5.109   2.045   5.981  0.1820 -0.5196  1.0376
  124OSM    O1313174   4.965   2.056   5.942  0.1723  0.5150  0.4465
  124OSM    O1413175   5.188   1.944   5.897  0.3724 -0.4391 -0.2507
  124OSM    O1113176   5.119   2.007   6.133  0.1480 -0.0552 -0.3018
  124OSM    O1213177   5.174   2.186   5.968 -0.1087 -0.1614 -0.4919
  124OSM    C1S13178   5.248   2.007   6.190  0.4849  0.3176  0.0084
  124OSM    H1S13179   5.295   2.107   6.199  0.4433  0.2196  1.7797
  124OSM    H1T13180   5.319   1.941   6.135  0.0856 -0.7484  0.7296
  124OSM     NF13181   5.383   1.959   6.399 -0.7997 -0.6465  0.4088
  124OSM    HNF13182   5.446   1.890   6.363 -0.3529  0.4297 -0.9767
  124OSM    C2S13183   5.254   1.949   6.334  0.1885  0.3022 -0.4759
  124OSM    H2S13184   5.191   2.020   6.392  2.2217  1.5865  0.2670
  124OSM    C3S13185   5.196   1.804   6.346 -0.0590 -0.4748  0.3415
  124OSM    H3S13186   5.282   1.747   6.305 -0.8297 -1.6902  0.3697
  124OSM     O313187   5.086   1.775   6.265 -0.0325  0.4990  0.4607
  124OSM    HO313188   5.087   1.848   6.202 -1.3038  1.9724  2.0387
  124OSM    C4S13189   5.183   1.778   6.490  0.3244 -0.2658  0.2008
  124OSM    H4S13190   5.276   1.734   6.531  0.8854 -1.3525 -2.0979
  124OSM    C5S13191   5.087   1.807   6.570  0.3781 -0.4611 -1.1897
  124OSM    H5S13192   4.996   1.851   6.525  0.1297  0.4692  0.1426
  124OSM    C6S13193   5.085   1.790   6.718 -0.2831 -0.4293  0.8611
  124OSM    H6S13194   5.144   1.703   6.753 -2.6857 -1.5064  2.4987
  124OSM    H6T13195   4.979   1.774   6.747 -1.1189  2.2068 -0.3551
  124OSM    C7S13196   5.123   1.926   6.782 -0.1964  0.2951  0.2875
  124OSM    H7S13197   5.053   2.010   6.764  0.7462  1.2785  1.0741
  124OSM    H7T13198   5.229   1.944   6.753 -0.4872  0.5220 -0.6753
  124OSM    C8S13199   5.147   1.909   6.940  0.1106  0.3360  0.7224
  124OSM    H8S13200   5.191   2.004   6.976  1.2358  0.5860 -1.1603
  124OSM    H8T13201   5.233   1.839   6.949 -1.2431 -1.2673  1.5630
  124OSM    C9S13202   5.036   1.865   7.027  0.2233 -0.1102 -0.6427
  124OSM    H9S13203   5.010   1.759   7.005  1.8916 -1.2373  2.3122
  124OSM    H9T13204   4.942   1.918   7.000 -0.5006 -1.3771 -0.6811
  124OSM   C10S13205   5.043   1.885   7.180  0.2430 -0.3245  0.7588
  124OSM   H10S13206   5.000   1.986   7.198 -2.5895 -1.1566 -0.7730
  124OSM   H10T13207   5.149   1.878   7.212  0.3331  0.8345  0.7459
  124OSM   C11S13208   4.959   1.784   7.248  0.0913 -0.5316 -0.2564
  124OSM   H11S13209   4.996   1.682   7.225 -0.7283 -0.8921  0.0062
  124OSM   H11T13210   4.854   1.778   7.212  0.1219 -1.0347 -0.2755
  124OSM   C12S13211   4.936   1.817   7.403  0.4245  0.2657 -0.6504
  124OSM   H12S13212   4.887   1.915   7.417  0.4717  0.1940  0.0283
  124OSM   H12T13213   5.038   1.828   7.446  0.1587  3.2378 -0.5678
  124OSM   C13S13214   4.852   1.715   7.487 -0.2637 -0.1209  0.6101
  124OSM   H13S13215   4.904   1.618   7.469 -1.1264  0.0544 -4.1047
  124OSM   H13T13216   4.746   1.708   7.454 -0.3679 -1.5566  1.1761
  124OSM   C14S13217   4.857   1.745   7.641 -0.1256  0.3333 -0.5350
  124OSM   H14S13218   4.958   1.722   7.682  0.6498  0.5718 -2.2297
  124OSM   H14T13219   4.788   1.673   7.689  1.3867  1.9058  4.7689
  124OSM   C15S13220   4.805   1.879   7.690 -0.2125 -0.4866  0.3946
  124OSM   H15S13221   4.704   1.887   7.643 -0.9998 -0.4858  2.0257
  124OSM   H15T13222   4.859   1.966   7.647  0.8228  0.1417  2.8035
  124OSM   C16S13223   4.796   1.890   7.842 -0.5290 -0.1061 -0.1798
  124OSM   H16S13224   4.733   1.808   7.882 -1.9638  0.5625 -1.0145
  124OSM   H16T13225   4.749   1.988   7.865 -0.6909 -0.1599 -0.2870
  124OSM   C17S13226   4.933   1.874   7.914 -0.8469  0.6702  0.7970
  124OSM   H17S13227   5.009   1.928   7.852  0.4272 -0.0830  1.6549
  124OSM   H17T13228   4.976   1.772   7.914 -0.4979  0.8067  1.5241
  124OSM   C18S13229   4.936   1.932   8.051 -0.0317  0.3319 -0.4068
  124OSM   H18S13230   5.042   1.941   8.082  0.2604  3.4811 -1.9145
  124OSM   H18T13231   4.873   1.864   8.112 -2.6784  2.1148 -0.9512
  124OSM   H18U13232   4.884   2.031   8.049 -0.2661  0.1991 -2.2022
  124OSM    C1F13233   5.423   2.072   6.445  0.4715 -0.1161 -0.7454
  124OSM     OF13234   5.348   2.166   6.445  0.2278  0.0239 -0.0443
  124OSM    C2F13235   5.561   2.068   6.499  0.0008 -0.7528  0.2336
  124OSM    H2F13236   5.614   2.147   6.442  0.1071 -0.6167  0.5134
  124OSM    H2G13237   5.604   1.969   6.472 -0.8576 -1.4288  1.2567
  124OSM    C3F13238   5.596   2.114   6.643  0.1837  0.5230 -0.1394
  124OSM    H3F13239   5.584   2.225   6.640  0.4420  0.5741  0.6131
  124OSM    H3G13240   5.702   2.083   6.650  0.2613  0.7208 -0.4363
  124OSM    C4F13241   5.503   2.057   6.758 -0.3313 -0.2226  0.3180
  124OSM    H4F13242   5.481   1.951   6.733 -1.1866  0.1083 -0.3856
  124OSM    H4G13243   5.401   2.102   6.760  0.7619  2.4844 -0.5482
  124OSM    C5F13244   5.578   2.053   6.888 -0.9464  0.5644 -0.0360
  124OSM    H5F13245   5.599   2.144   6.948  0.8810 -1.0192  1.8597
  124OSM    H5G13246   5.671   2.000   6.856 -1.8155 -0.4670 -0.9243
  124OSM    C6F13247   5.519   1.951   6.996  1.1064  0.5229 -0.1864
  124OSM    H6F13248   5.522   1.849   6.952  1.7620  0.8266 -0.8670
  124OSM    H6G13249   5.417   1.985   7.024  0.7563 -0.3052 -0.4270
  124OSM    C7F13250   5.586   1.946   7.138 -0.8521  0.0647 -0.5394
  124OSM    H7F13251   5.565   2.041   7.193 -1.3618 -1.4210  1.9814
  124OSM    H7G13252   5.695   1.947   7.117 -1.0819 -2.0143 -2.1283
  124OSM    C8F13253   5.552   1.817   7.213  0.0447  0.0891  0.5296
  124OSM    H8F13254   5.593   1.730   7.158  1.4748  0.6417  0.6691
  124OSM    H8G13255   5.441   1.814   7.225  0.0163  2.1502  1.3053
  124OSM    C9F13256   5.612   1.814   7.345 -0.7506 -0.2785  0.2421
  124OSM    H9F13257   5.720   1.794   7.332 -0.7453  0.4713 -1.0509
  124OSM   C10F13258   5.553   1.824   7.469  0.2295 -0.3427  0.5180
  124OSM   H10F13259   5.617   1.787   7.551  0.4917 -2.0708 -0.4237
  124OSM   C11F13260   5.401   1.833   7.489 -0.1546  0.4235 -0.6933
  124OSM   H11F13261   5.334   1.807   7.404 -1.3278  0.6634  0.1432
  124OSM   H11G13262   5.376   1.938   7.518 -1.7203 -0.4081  1.1099
  124OSM   C12F13263   5.360   1.737   7.610  0.8787  0.6737  0.6462
  124OSM   H12F13264   5.401   1.637   7.584 -0.0609  0.5552 -0.4906
  124OSM   H12G13265   5.250   1.723   7.613  0.5401  2.6049 -0.6882
  124OSM   C13F13266   5.413   1.783   7.740  0.1716 -0.7651 -0.5218
  124OSM   H13F13267   5.405   1.894   7.749  3.1235 -0.6615  3.1134
  124OSM   H13G13268   5.523   1.768   7.741  0.3412  0.2643 -1.3829
  124OSM   C14F13269   5.339   1.710   7.853 -0.1087  0.1693 -0.4342
  124OSM   H14F13270   5.342   1.600   7.840  0.0440  0.1894 -0.5701
  124OSM   H14G13271   5.235   1.748   7.848  0.5075  1.7827 -2.2360
  124OSM   C15F13272   5.401   1.743   7.993  0.6754  0.1053 -0.5515
  124OSM   H15F13273   5.408   1.853   8.001  1.5395  0.1875 -2.0572
  124OSM   H15G13274   5.505   1.706   8.002  0.2494 -1.3839 -1.4109
  124OSM   C16F13275   5.315   1.682   8.105 -0.2057 -0.2949 -0.3413
  124OSM   H16F13276   5.284   1.578   8.081  3.0702 -1.1603 -1.3963
  124OSM   H16G13277   5.226   1.747   8.114  0.8773  0.9458  2.5173
  124OSM   C17F13278   5.384   1.677   8.243  0.1979  0.7705 -0.5964
  124OSM   H17F13279   5.307   1.672   8.322  0.4442 -3.2037 -0.3772
  124OSM   H17G13280   5.439   1.770   8.266 -0.1593  1.0100 -0.7118
  124OSM   C18F13281   5.483   1.558   8.271  0.1049 -0.2786  0.1426
  124OSM   H18F13282   5.525   1.564   8.373  0.9139 -0.2849 -0.1864
  124OSM   H18G13283   5.568   1.561   8.199  0.4259  0.9327  0.5356
  124OSM   H18H13284   5.432   1.461   8.255  0.3171 -0.4375  0.4290
  125OSM      N13285   5.412   3.092   5.910 -0.4453 -0.3312 -0.1052
  125OSM    C1513286   5.469   3.195   5.997  0.6257  0.0220  0.6717
  125OSM   H15A13287   5.409   3.216   6.085 -1.9215 -1.4363 -0.6059
  125OSM   H15B13288   5.459   3.286   5.939 -1.1539  0.1139  1.0544
  125OSM   H15C13289   5.572   3.176   6.022  1.1568  0.8828 -0.7360
  125OSM    C1413290   5.276   3.143   5.858 -0.1543 -0.1595 -0.4006
  125OSM   H14A13291   5.241   3.052   5.812 -0.8506  0.1764 -0.5427
  125OSM   H14B13292   5.284   3.221   5.784 -1.4598 -1.6576 -2.2391
  125OSM   H14C13293   5.213   3.170   5.941  1.9270  2.5003  0.4554
  125OSM    C1313294   5.508   3.074   5.798  0.2826  0.0478 -0.0895
  125OSM   H13A13295   5.607   3.060   5.840  1.3526  0.2135 -2.3863
  125OSM   H13B13296   5.514   3.156   5.729  2.9560 -0.3167 -0.3934
  125OSM   H13C13297   5.488   2.983   5.743  1.1091  0.2485 -0.7500
  125OSM    C1213298   5.386   2.961   5.982  0.2710 -0.1285  0.2768
  125OSM   H12A13299   5.478   2.907   6.000 -0.5022 -0.8372  2.4129
  125OSM   H12B13300   5.333   2.902   5.909 -1.1560  1.5010 -0.0721
  125OSM    C1113301   5.307   2.953   6.110  0.2888 -0.1589 -0.9395
  125OSM   H11A13302   5.355   3.028   6.177  0.2797 -0.1150 -0.9817
  125OSM   H11B13303   5.330   2.852   6.149 -0.1387 -0.0319 -0.3396
  125OSM      P13304   5.085   2.858   6.016 -0.3831  0.2637  0.4382
  125OSM    O1313305   4.955   2.920   5.979  0.0298 -0.0392  0.1885
  125OSM    O1413306   5.176   2.803   5.908  0.5352 -0.6415  0.3099
  125OSM    O1113307   5.064   2.753   6.132 -0.0748  0.4938  0.1843
  125OSM    O1213308   5.164   2.971   6.089 -0.0600  0.3144  0.3306
  125OSM    C1S13309   5.048   2.784   6.268 -0.6567 -0.5409 -0.2986
  125OSM    H1S13310   4.940   2.800   6.289 -0.5779  0.4066 -0.5792
  125OSM    H1T13311   5.100   2.877   6.299 -1.8584 -0.1783  0.7057
  125OSM     NF13312   5.047   2.699   6.498  0.3631 -1.1886  0.1088
  125OSM    HNF13313   5.113   2.751   6.552 -0.4752 -0.3887  0.4045
  125OSM    C2S13314   5.092   2.667   6.366 -0.2562 -0.8267  0.0862
  125OSM    H2S13315   5.033   2.581   6.329 -2.0196  1.1276 -1.9575
  125OSM    C3S13316   5.242   2.639   6.348 -0.2019  0.1717  0.2232
  125OSM    H3S13317   5.305   2.730   6.359  2.7871 -1.9591  2.3175
  125OSM     O313318   5.260   2.587   6.216 -0.0949 -1.0506  0.1028
  125OSM    HO313319   5.197   2.633   6.161 -0.9271  0.7622  2.4504
  125OSM    C4S13320   5.285   2.532   6.452  0.0578 -0.0843  0.2469
  125OSM    H4S13321   5.253   2.429   6.430  1.9854 -0.7207  0.2885
  125OSM    C5S13322   5.345   2.552   6.569 -0.0427 -0.0018 -0.1947
  125OSM    H5S13323   5.385   2.651   6.597  0.5160 -0.5983  1.1879
  125OSM    C6S13324   5.367   2.442   6.672  0.0786  0.2769  0.0369
  125OSM    H6S13325   5.478   2.437   6.680  0.5889  1.2966 -4.1610
  125OSM    H6T13326   5.346   2.338   6.639  0.1072 -0.3002  1.7494
  125OSM    C7S13327   5.307   2.475   6.812  0.2637 -0.6619 -0.6751
  125OSM    H7S13328   5.204   2.511   6.791  0.5814  2.0360  1.7580
  125OSM    H7T13329   5.369   2.559   6.848  0.7779 -1.3928  0.1970
  125OSM    C8S13330   5.317   2.361   6.918 -0.1483 -0.4897  0.4008
  125OSM    H8S13331   5.414   2.367   6.972 -0.6125  0.8316  1.1292
  125OSM    H8T13332   5.302   2.267   6.860  1.2107 -1.5404  1.6784
  125OSM    C9S13333   5.212   2.381   7.030 -0.4687 -0.5657  0.0496
  125OSM    H9S13334   5.105   2.371   6.999 -0.7011  1.2781  0.1160
  125OSM    H9T13335   5.228   2.475   7.087 -0.1947 -1.6860  1.9003
  125OSM   C10S13336   5.225   2.276   7.137  0.7165 -0.5916 -0.7455
  125OSM   H10S13337   5.330   2.258   7.169  1.2280 -0.1592 -2.1254
  125OSM   H10T13338   5.206   2.178   7.090 -0.8244  0.4065 -2.3259
  125OSM   C11S13339   5.139   2.312   7.263 -0.4241 -0.5108  0.1347
  125OSM   H11S13340   5.030   2.297   7.245 -0.7584  0.3639  1.2785
  125OSM   H11T13341   5.157   2.416   7.298  2.9519 -0.4133 -1.4909
  125OSM   C12S13342   5.179   2.221   7.384 -0.0361 -0.3025 -0.3697
  125OSM   H12S13343   5.284   2.238   7.415 -0.4655 -0.5429  1.3644
  125OSM   H12T13344   5.166   2.114   7.355  1.2953 -0.2618 -1.1881
  125OSM   C13S13345   5.095   2.233   7.507  0.7863 -0.4295 -0.6873
  125OSM   H13S13346   4.988   2.207   7.498  0.4951  1.0335 -1.7456
  125OSM   H13T13347   5.099   2.342   7.527 -0.2687 -0.5370  0.2033
  125OSM   C14S13348   5.155   2.151   7.625  0.0847  0.4886  0.2645
  125OSM   H14S13349   5.262   2.175   7.640 -0.0336 -0.0125  2.1873
  125OSM   H14T13350   5.150   2.043   7.600 -0.9516  0.7497 -0.7341
  125OSM   C15S13351   5.084   2.189   7.759  0.4752  0.8249 -0.2778
  125OSM   H15S13352   5.136   2.139   7.844  0.6611  1.3349 -0.0841
  125OSM   H15T13353   4.980   2.152   7.748  0.4670 -0.4835  2.8897
  125OSM   C16S13354   5.074   2.340   7.797 -0.1771 -0.0695  0.8659
  125OSM   H16S13355   5.010   2.346   7.887  0.6709  1.1867  1.4155
  125OSM   H16T13356   5.036   2.393   7.707  2.2001  0.1474 -0.0946
  125OSM   C17S13357   5.214   2.409   7.816  0.4067  0.3480 -0.1590
  125OSM   H17S13358   5.203   2.519   7.830 -0.5990  0.0847  1.4268
  125OSM   H17T13359   5.264   2.389   7.719 -2.6355 -1.6619 -1.4668
  125OSM   C18S13360   5.297   2.345   7.921  0.2370  0.4991  0.3040
  125OSM   H18S13361   5.312   2.237   7.902  2.3175  0.5730  1.3011
  125OSM   H18T13362   5.259   2.366   8.024  0.9913  1.7504  0.3459
  125OSM   H18U13363   5.399   2.389   7.925 -0.5829  2.4991  0.3198
  125OSM    C1F13364   4.921   2.700   6.539  0.4278 -0.2239  0.1436
  125OSM     OF13365   4.835   2.651   6.465 -0.0469 -0.1066 -0.1639
  125OSM    C2F13366   4.891   2.783   6.659 -0.9105  0.0479  0.1122
  125OSM    H2F13367   4.871   2.890   6.639  1.8290  0.6815  0.3976
  125OSM    H2G13368   4.978   2.774   6.728 -0.0445 -1.7377 -1.1419
  125OSM    C3F13369   4.767   2.723   6.732 -0.5325  0.0873 -0.3952
  125OSM    H3F13370   4.765   2.613   6.745  1.2528  0.1055  0.3082
  125OSM    H3G13371   4.677   2.740   6.669 -0.2505 -2.1719 -1.5071
  125OSM    C4F13372   4.744   2.777   6.878 -0.6261 -0.1379  0.2032
  125OSM    H4F13373   4.714   2.883   6.869 -0.4897 -0.1951 -1.0112
  125OSM    H4G13374   4.842   2.779   6.930 -0.4755 -1.9691  0.0555
  125OSM    C5F13375   4.634   2.702   6.960  0.2256 -0.2887 -0.8468
  125OSM    H5F13376   4.641   2.591   6.950  1.7131 -0.2872 -0.0278
  125OSM    H5G13377   4.538   2.738   6.917  1.1420  3.7361  0.0355
  125OSM    C6F13378   4.647   2.746   7.106  0.1258  0.8386 -1.0883
  125OSM    H6F13379   4.756   2.760   7.120  0.2728 -0.9992  0.0287
  125OSM    H6G13380   4.617   2.657   7.166  2.0082  1.0435  0.2497
  125OSM    C7F13381   4.581   2.884   7.135  0.1991 -0.3548 -0.2242
  125OSM    H7F13382   4.477   2.865   7.100  0.0848 -0.7452  0.3217
  125OSM    H7G13383   4.625   2.959   7.066 -0.6479  0.1817 -0.1945
  125OSM    C8F13384   4.589   2.934   7.281 -0.6113 -0.2378  0.0478
  125OSM    H8F13385   4.523   3.022   7.283 -2.1916 -1.1948 -3.0860
  125OSM    H8G13386   4.698   2.950   7.300 -0.5716 -0.0607 -0.3116
  125OSM    C9F13387   4.553   2.828   7.382 -0.8440  0.7831 -0.5417
  125OSM    H9F13388   4.607   2.734   7.362 -0.3310  1.0506 -0.4567
  125OSM   C10F13389   4.447   2.836   7.469 -0.0496  0.6487 -0.4794
  125OSM   H10F13390   4.417   2.755   7.537 -1.9998  0.1558 -1.8477
  125OSM   C11F13391   4.377   2.965   7.506  0.1868 -0.2297  0.5222
  125OSM   H11F13392   4.270   2.966   7.477  0.5147  2.7138 -1.0708
  125OSM   H11G13393   4.425   3.054   7.460  1.1386  0.9475  3.5189
  125OSM   C12F13394   4.377   2.997   7.661  0.8737 -0.1805  0.1020
  125OSM   H12F13395   4.482   3.021   7.690  0.8515 -1.4258  1.3131
  125OSM   H12G13396   4.349   2.906   7.719  1.0777 -0.9569 -0.9766
  125OSM   C13F13397   4.296   3.121   7.704  0.0705 -0.3948  0.1392
  125OSM   H13F13398   4.188   3.111   7.679  0.4210 -1.6251 -0.9625
  125OSM   H13G13399   4.331   3.203   7.637  0.7912 -1.3940 -0.7301
  125OSM   C14F13400   4.311   3.160   7.856 -0.0420 -0.1135 -0.6411
  125OSM   H14F13401   4.420   3.172   7.868 -0.3363  0.7662  1.7565
  125OSM   H14G13402   4.269   3.079   7.920 -1.6873  0.1739 -1.3000
  125OSM   C15F13403   4.250   3.299   7.887  0.2518 -0.0107 -0.7002
  125OSM   H15F13404   4.146   3.299   7.848 -0.1319  1.9235  0.1696
  125OSM   H15G13405   4.310   3.375   7.832  0.0350 -0.1485 -1.1267
  125OSM   C16F13406   4.253   3.327   8.038 -0.4143 -0.2072 -0.2810
  125OSM   H16F13407   4.360   3.320   8.070  0.1547  0.9774 -1.7932
  125OSM   H16G13408   4.190   3.261   8.101  0.8130 -1.6116 -0.4739
  125OSM   C17F13409   4.205   3.468   8.083  0.2310  0.2455 -0.2014
  125OSM   H17F13410   4.094   3.462   8.088  0.2420 -0.9848 -0.9642
  125OSM   H17G13411   4.230   3.537   8.000  3.1003 -0.0050  0.3315
  125OSM   C18F13412   4.257   3.524   8.211  0.2228  0.1952 -0.0850
  125OSM   H18F13413   4.219   3.470   8.300  1.1683 -1.1126 -0.4359
  125OSM   H18G13414   4.223   3.629   8.221  0.7998  0.7408 -2.8906
  125OSM   H18H13415   4.368   3.523   8.220  0.4105 -4.5021 -0.1784
  126OSM      N13416   2.773   5.263   6.016  0.3508 -0.0234  0.1849
  126OSM    C1513417   2.726   5.393   6.078 -0.4291 -1.2259  0.2968
  126OSM   H15A13418   2.775   5.403   6.174 -0.0869  0.3232 -0.0174
  126OSM   H15B13419   2.619   5.399   6.092 -0.5289  0.6219 -0.9986
  126OSM   H15C13420   2.743   5.477   6.013 -0.2516 -0.8781  0.7878
  126OSM    C1413421   2.689   5.223   5.894 -0.6264 -0.1389 -0.7375
  126OSM   H14A13422   2.686   5.306   5.825 -0.7211  1.2092  0.8307
  126OSM   H14B13423   2.585   5.198   5.909 -0.6472  0.2442 -0.2327
  126OSM   H14C13424   2.736   5.145   5.836 -1.0996  0.0367 -1.3570
  126OSM    C1313425   2.907   5.287   5.967 -0.4267  0.0388  0.6193
  126OSM   H13A13426   2.970   5.282   6.054  0.7451 -1.0517 -0.2498
  126OSM   H13B13427   2.913   5.383   5.918 -1.6280 -0.7911 -1.2686
  126OSM   H13C13428   2.943   5.213   5.897  1.9802  0.8159  0.9215
  126OSM    C1213429   2.756   5.155   6.116 -0.0734  0.2832 -0.5312
  126OSM   H12A13430   2.795   5.066   6.069 -0.3589 -0.9651  1.4761
  126OSM   H12B13431   2.649   5.153   6.131 -0.9888  2.4474 -5.1233
  126OSM    C1113432   2.809   5.165   6.261  0.5697  0.7004  0.6498
  126OSM   H11A13433   2.777   5.080   6.324  0.5747  1.2477  1.3999
  126OSM   H11B13434   2.767   5.251   6.317 -0.0256  0.7969  0.0701
  126OSM      P13435   3.040   5.038   6.231 -0.0300 -0.1083  0.2931
  126OSM    O1313436   2.968   4.963   6.129  0.0693 -0.1273 -0.3725
  126OSM    O1413437   3.184   5.069   6.200  0.4048 -0.0279  0.9742
  126OSM    O1113438   3.034   4.958   6.368  0.5527  0.0037 -0.1553
  126OSM    O1213439   2.952   5.170   6.259  0.1320  0.4580 -0.2939
  126OSM    C1S13440   3.103   4.999   6.486 -0.3826  0.5578  0.5131
  126OSM    H1S13441   3.043   5.059   6.558 -0.2541  0.1752  0.9455
  126OSM    H1T13442   3.196   5.050   6.451  0.0046  1.5326  2.7921
  126OSM     NF13443   3.219   4.899   6.678 -0.0576 -0.0039  0.3777
  126OSM    HNF13444   3.318   4.897   6.689 -0.2073 -0.5590  1.8240
  126OSM    C2S13445   3.150   4.871   6.553  0.3707  0.0393 -0.2690
  126OSM    H2S13446   3.064   4.808   6.584  0.0502  0.6528  0.1068
  126OSM    C3S13447   3.238   4.785   6.462  0.1154  0.1271  0.0869
  126OSM    H3S13448   3.324   4.849   6.434  0.5419 -1.1474 -1.7076
  126OSM     O313449   3.181   4.746   6.333  0.2278 -0.2896  0.2103
  126OSM    HO313450   3.110   4.810   6.324 -0.0834 -0.9471 -3.9175
  126OSM    C4S13451   3.275   4.653   6.537 -0.4233 -0.7896  0.3343
  126OSM    H4S13452   3.355   4.668   6.612  0.9024  0.7213 -1.3020
  126OSM    C5S13453   3.225   4.527   6.515 -1.0805 -0.0101 -0.2095
  126OSM    H5S13454   3.149   4.528   6.436 -0.9053  1.5351 -0.3778
  126OSM    C6S13455   3.260   4.388   6.568 -0.1086 -0.4159  0.0022
  126OSM    H6S13456   3.335   4.347   6.497 -0.7755 -1.2102 -0.2640
  126OSM    H6T13457   3.161   4.337   6.565 -1.2502  1.6471  0.5911
  126OSM    C7S13458   3.330   4.393   6.706  0.1929  0.7300 -0.0581
  126OSM    H7S13459   3.415   4.465   6.707  1.9269 -1.1579  2.1720
  126OSM    H7T13460   3.370   4.297   6.745 -2.2420 -1.0323 -1.5989
  126OSM    C8S13461   3.232   4.430   6.816  0.7007  0.4309  0.2670
  126OSM    H8S13462   3.175   4.340   6.846 -0.1249  1.1957  1.0577
  126OSM    H8T13463   3.154   4.498   6.776 -1.0811 -1.9258 -0.5104
  126OSM    C9S13464   3.293   4.515   6.927 -0.4572 -0.3598  0.1789
  126OSM    H9S13465   3.215   4.579   6.974 -1.0307 -0.0083 -1.2109
  126OSM    H9T13466   3.349   4.593   6.871  0.5339 -2.5726 -2.0727
  126OSM   C10S13467   3.380   4.433   7.022 -0.5122  0.1999  0.1920
  126OSM   H10S13468   3.458   4.383   6.960  0.2933  1.3074  0.2790
  126OSM   H10T13469   3.325   4.344   7.060 -1.4391  0.8817  0.4673
  126OSM   C11S13470   3.459   4.522   7.120  0.8475 -0.6177  0.1450
  126OSM   H11S13471   3.477   4.623   7.079  0.7461  0.2946  2.2292
  126OSM   H11T13472   3.562   4.486   7.144  1.6294  1.0286 -0.5816
  126OSM   C12S13473   3.381   4.538   7.252 -0.4973 -0.6081 -0.4007
  126OSM   H12S13474   3.333   4.442   7.281  0.0208 -1.1741 -1.3621
  126OSM   H12T13475   3.297   4.611   7.246 -1.4429 -1.4617  1.5122
  126OSM   C13S13476   3.459   4.582   7.376  0.3720  0.6604  0.1177
  126OSM   H13S13477   3.499   4.682   7.347  2.0078  0.0746  0.2480
  126OSM   H13T13478   3.543   4.511   7.390 -0.0444  0.2949  0.8181
  126OSM   C14S13479   3.378   4.588   7.501 -0.0233  0.0599  0.2537
  126OSM   H14S13480   3.327   4.489   7.507 -0.6492  0.1139 -2.8703
  126OSM   H14T13481   3.292   4.655   7.480 -0.5422 -0.5510  0.3839
  126OSM   C15S13482   3.463   4.630   7.615 -0.6462 -0.0782 -0.1055
  126OSM   H15S13483   3.485   4.736   7.592 -0.9715 -0.5082 -2.5994
  126OSM   H15T13484   3.564   4.585   7.620 -0.1552  0.8298 -1.5716
  126OSM   C16S13485   3.380   4.609   7.748  0.0286  0.6252 -0.1964
  126OSM   H16S13486   3.356   4.501   7.759  4.0133 -0.1998  2.2122
  126OSM   H16T13487   3.285   4.663   7.730 -0.8584 -0.4247  1.1141
  126OSM   C17S13488   3.462   4.661   7.870 -0.3294  0.3939  0.4422
  126OSM   H17S13489   3.509   4.760   7.851 -1.3486  0.9711  0.8634
  126OSM   H17T13490   3.544   4.588   7.889 -0.1129  0.7888  1.0683
  126OSM   C18S13491   3.375   4.667   7.988 -0.0696 -0.5177 -0.1187
  126OSM   H18S13492   3.284   4.730   7.978  1.1225  0.9632 -2.2755
  126OSM   H18T13493   3.438   4.723   8.061  0.3767  1.6647 -2.0745
  126OSM   H18U13494   3.350   4.565   8.024  1.4980 -0.8416  0.1527
  126OSM    C1F13495   3.153   4.953   6.781 -0.5178 -0.1266 -0.4493
  126OSM     OF13496   3.033   4.959   6.780 -0.2950  0.0522 -0.7530
  126OSM    C2F13497   3.229   4.990   6.896 -0.2546  0.7934 -0.0372
  126OSM    H2F13498   3.199   5.093   6.924 -0.9903  0.2579  1.2348
  126OSM    H2G13499   3.337   4.990   6.868 -0.2597  0.8125 -0.0566
  126OSM    C3F13500   3.199   4.894   7.009  0.1028 -0.0940 -0.8632
  126OSM    H3F13501   3.202   4.786   6.986  2.1716  0.0280 -1.3000
  126OSM    H3G13502   3.101   4.927   7.051  1.0969  1.1838  0.5795
  126OSM    C4F13503   3.294   4.916   7.124  0.3673  0.1716 -0.0079
  126OSM    H4F13504   3.396   4.919   7.080  0.7101  0.7030  0.7937
  126OSM    H4G13505   3.297   4.828   7.191 -2.6864  0.6961  0.9467
  126OSM    C5F13506   3.258   5.032   7.207  0.4690 -0.3642 -0.3105
  126OSM    H5F13507   3.151   5.038   7.235  0.6288  1.8965 -0.0067
  126OSM    H5G13508   3.276   5.128   7.154  1.8780  0.1415  1.0139
  126OSM    C6F13509   3.332   5.028   7.344 -0.7450 -0.4851 -0.0604
  126OSM    H6F13510   3.439   5.006   7.325 -1.2465 -2.7438 -0.6295
  126OSM    H6G13511   3.300   4.939   7.404  0.2575  0.5234  2.0720
  126OSM    C7F13512   3.301   5.150   7.425 -0.5510  0.4530 -0.4630
  126OSM    H7F13513   3.192   5.164   7.446 -0.6426  0.0067 -0.6293
  126OSM    H7G13514   3.334   5.234   7.360  2.2296 -0.1362  0.0575
  126OSM    C8F13515   3.374   5.142   7.560 -0.0620  0.6768 -0.6195
  126OSM    H8F13516   3.373   5.239   7.614 -0.6527  1.7742 -2.5016
  126OSM    H8G13517   3.483   5.126   7.544  0.5399  2.3124  1.3944
  126OSM    C9F13518   3.311   5.040   7.643  0.0246 -0.3594  0.5847
  126OSM    H9F13519   3.270   4.951   7.595  3.0839 -1.9308  0.6227
  126OSM   C10F13520   3.324   5.022   7.773  0.2462 -0.9760 -0.3997
  126OSM   H10F13521   3.270   4.939   7.822 -1.8536 -0.9741 -2.4887
  126OSM   C11F13522   3.402   5.112   7.868  0.4241 -0.7308 -0.2558
  126OSM   H11F13523   3.331   5.177   7.924 -0.2333 -0.1725 -1.7024
  126OSM   H11G13524   3.471   5.188   7.824 -0.6147  0.9180  0.8242
  126OSM   C12F13525   3.465   5.039   7.981 -0.8183 -0.1321  0.0703
  126OSM   H12F13526   3.545   4.980   7.930 -1.8054 -0.3088 -1.3159
  126OSM   H12G13527   3.401   4.977   8.046  0.0937 -0.7423  0.4142
  126OSM   C13F13528   3.538   5.144   8.073 -0.0671 -0.1136 -0.1662
  126OSM   H13F13529   3.459   5.207   8.121 -0.0994  1.0571 -1.6838
  126OSM   H13G13530   3.606   5.205   8.010  2.7576 -3.7155 -0.9463
  126OSM   C14F13531   3.633   5.082   8.170  0.2667  0.4386 -0.3054
  126OSM   H14F13532   3.676   5.163   8.233  0.0046  0.3144  0.0383
  126OSM   H14G13533   3.710   5.024   8.115 -0.1722  1.5918 -2.2334
  126OSM   C15F13534   3.576   4.977   8.267 -0.6243  0.1533 -0.2478
  126OSM   H15F13535   3.515   4.902   8.210  0.1713  0.6744 -1.8531
  126OSM   H15G13536   3.511   5.029   8.341  0.7799 -0.0358  1.1506
  126OSM   C16F13537   3.687   4.900   8.340  0.5869 -0.7397 -0.1591
  126OSM   H16F13538   3.735   4.970   8.412 -1.1312  1.8143 -1.3714
  126OSM   H16G13539   3.766   4.863   8.271 -0.8519 -0.4090 -2.0644
  126OSM   C17F13540   3.642   4.764   8.407  0.4961  0.3767 -0.2823
  126OSM   H17F13541   3.600   4.700   8.326  4.1548 -1.3585 -1.0327
  126OSM   H17G13542   3.559   4.783   8.478  0.8871 -1.7698  0.8547
  126OSM   C18F13543   3.743   4.669   8.477 -0.0681 -0.5452 -0.7868
  126OSM   H18F13544   3.824   4.646   8.406  0.8973  0.5097 -0.0600
  126OSM   H18G13545   3.689   4.580   8.516 -0.1374 -1.1568 -2.2312
  126OSM   H18H13546   3.790   4.721   8.564 -0.2066  0.2130 -1.1567
  127OSM      N13547   5.204   1.084   6.191 -0.5340  0.1241 -0.2151
  127OSM    C1513548   5.132   0.963   6.231 -0.4551 -0.1452 -0.6131
  127OSM   H15A13549   5.044   1.001   6.280  1.1030  2.5208  0.3100
  127OSM   H15B13550   5.193   0.913   6.304 -0.1960  0.9562 -0.0435
  127OSM   H15C13551   5.111   0.903   6.144  2.4296 -2.0953 -0.0813
  127OSM    C1413552   5.233   1.177   6.312  0.4498  0.5927  0.3887
  127OSM   H14A13553   5.314   1.132   6.367  0.4371  1.2295  0.9419
  127OSM   H14B13554   5.140   1.184   6.366  0.0401 -0.1587 -0.2097
  127OSM   H14C13555   5.256   1.272   6.266  0.5008 -0.5826 -2.1906
  127OSM    C1313556   5.330   1.044   6.108  0.8469 -0.4940  0.3986
  127OSM   H13A13557   5.405   0.984   6.157  2.8593  0.3899 -1.4419
  127OSM   H13B13558   5.372   1.138   6.076 -3.6155  1.1319 -1.3812
  127OSM   H13C13559   5.291   1.000   6.018 -0.5944  1.4129  0.0257
  127OSM    C1213560   5.115   1.163   6.102  0.2145 -0.5212 -0.0640
  127OSM   H12A13561   5.088   1.110   6.012  0.1623 -0.1528 -0.2722
  127OSM   H12B13562   5.161   1.256   6.071  0.5090 -0.1610  1.3966
  127OSM    C1113563   4.982   1.225   6.166 -0.0227 -0.7917  0.3736
  127OSM   H11A13564   4.936   1.298   6.096 -1.1634  1.9804  3.7269
  127OSM   H11B13565   5.002   1.293   6.252 -1.0899  0.1553 -0.1007
  127OSM      P13566   4.813   1.027   6.103 -0.2959  0.5061  0.0663
  127OSM    O1313567   4.873   1.051   5.970  0.1500  0.1465 -0.0800
  127OSM    O1413568   4.824   0.887   6.145 -0.1570 -0.0944  0.1506
  127OSM    O1113569   4.656   1.075   6.107 -0.5614  0.3969 -0.1576
  127OSM    O1213570   4.891   1.125   6.210 -0.9123  0.1042 -0.2683
  127OSM    C1S13571   4.579   1.089   6.223  0.6360 -0.0705 -0.1349
  127OSM    H1S13572   4.599   1.006   6.294  1.2565  0.6938  0.6072
  127OSM    H1T13573   4.472   1.076   6.197  0.0916 -0.8896  2.2649
  127OSM     NF13574   4.517   1.217   6.422 -0.1452 -0.6976 -0.1474
  127OSM    HNF13575   4.426   1.257   6.422 -0.2495 -0.8202 -2.2258
  127OSM    C2S13576   4.592   1.227   6.297 -0.4101  0.6159  0.0063
  127OSM    H2S13577   4.699   1.243   6.320 -0.4437  0.2222  0.4368
  127OSM    C3S13578   4.543   1.340   6.198 -0.1812 -0.5054  0.1272
  127OSM    H3S13579   4.438   1.309   6.179 -0.4484  0.8000 -0.6553
  127OSM     O313580   4.613   1.343   6.074 -0.6716  0.3032  0.0796
  127OSM    HO313581   4.646   1.254   6.059 -2.4943 -0.5388  0.7225
  127OSM    C4S13582   4.538   1.477   6.274 -0.2408  1.1937 -0.2397
  127OSM    H4S13583   4.436   1.503   6.306 -0.7889  0.4518 -1.3210
  127OSM    C5S13584   4.627   1.577   6.288  0.3913  0.0793  0.0551
  127OSM    H5S13585   4.728   1.567   6.246  0.3008 -0.2246 -0.0974
  127OSM    C6S13586   4.591   1.706   6.355  0.0631  0.5594  0.7817
  127OSM    H6S13587   4.485   1.694   6.386 -0.8469 -1.4828 -2.6500
  127OSM    H6T13588   4.581   1.788   6.281  1.0232  0.4471  0.5148
  127OSM    C7S13589   4.699   1.745   6.461 -0.4107  0.0140  0.7167
  127OSM    H7S13590   4.682   1.843   6.510  2.2784 -0.1628  2.1916
  127OSM    H7T13591   4.793   1.769   6.406 -0.8731 -0.3007 -0.2331
  127OSM    C8S13592   4.729   1.642   6.568  0.2095 -0.5355  0.1484
  127OSM    H8S13593   4.811   1.675   6.635 -0.8451  0.0617  1.1797
  127OSM    H8T13594   4.766   1.554   6.510  0.5756  0.7972 -1.7694
  127OSM    C9S13595   4.611   1.608   6.656 -0.0306  0.5658  0.2550
  127OSM    H9S13596   4.565   1.535   6.586  1.4658  0.5964 -0.8158
  127OSM    H9T13597   4.545   1.696   6.674 -1.6881 -0.6967  0.5113
  127OSM   C10S13598   4.656   1.544   6.789 -0.3491  0.0964  0.0745
  127OSM   H10S13599   4.713   1.609   6.858  0.1044 -2.5539  2.3674
  127OSM   H10T13600   4.724   1.459   6.770  0.3415 -0.0848  2.8474
  127OSM   C11S13601   4.543   1.499   6.884 -0.0725 -0.5647 -0.0217
  127OSM   H11S13602   4.478   1.432   6.825 -0.1290 -0.6326  0.1163
  127OSM   H11T13603   4.495   1.594   6.915 -0.0234 -0.0868 -1.3626
  127OSM   C12S13604   4.595   1.425   7.011 -0.9720  0.0879 -0.8238
  127OSM   H12S13605   4.659   1.339   6.982  1.1247 -0.1257  3.6056
  127OSM   H12T13606   4.503   1.380   7.053 -0.0284 -1.9417 -0.7997
  127OSM   C13S13607   4.670   1.512   7.108  0.6041 -0.0252 -0.5630
  127OSM   H13S13608   4.592   1.582   7.146  0.7049  0.9974 -2.1242
  127OSM   H13T13609   4.750   1.574   7.063  0.1475  0.9325 -0.0998
  127OSM   C14S13610   4.733   1.445   7.232  0.0839 -0.3181 -0.0400
  127OSM   H14S13611   4.786   1.524   7.291 -0.9948 -0.4937  1.2109
  127OSM   H14T13612   4.812   1.375   7.199  1.8890  0.6489  1.9268
  127OSM   C15S13613   4.629   1.364   7.311 -0.0952 -0.4409 -0.1408
  127OSM   H15S13614   4.591   1.298   7.231  2.4675  1.7444 -3.4144
  127OSM   H15T13615   4.541   1.426   7.337  1.7173  1.5967  1.5140
  127OSM   C16S13616   4.677   1.286   7.433  0.7921  0.7370 -0.0401
  127OSM   H16S13617   4.784   1.259   7.426  0.5272 -0.4156  0.0217
  127OSM   H16T13618   4.618   1.191   7.433  1.8006  0.0846 -1.7000
  127OSM   C17S13619   4.663   1.362   7.569  0.4787  0.6760  0.6325
  127OSM   H17S13620   4.746   1.435   7.578 -0.1495  1.4732 -0.0247
  127OSM   H17T13621   4.660   1.292   7.656 -1.2726 -1.8720 -1.3406
  127OSM   C18S13622   4.539   1.451   7.585  0.0287 -0.1948 -0.4760
  127OSM   H18S13623   4.535   1.498   7.685 -1.7581 -0.3594 -0.4383
  127OSM   H18T13624   4.447   1.389   7.583 -0.1518  0.0719 -0.4482
  127OSM   H18U13625   4.528   1.533   7.512  0.1028  1.1550  0.9747
  127OSM    C1F13626   4.547   1.139   6.526  0.6266 -0.1252 -1.1179
  127OSM     OF13627   4.645   1.069   6.527 -0.0793  0.2462  0.5426
  127OSM    C2F13628   4.455   1.148   6.646 -0.5164  0.9808 -0.2564
  127OSM    H2F13629   4.362   1.091   6.628 -1.1369  2.0554 -0.5488
  127OSM    H2G13630   4.420   1.254   6.645  1.1777  1.5837 -1.4893
  127OSM    C3F13631   4.518   1.110   6.783  0.0010  0.4901  0.2403
  127OSM    H3F13632   4.586   1.194   6.812 -1.2163  0.4319  3.8279
  127OSM    H3G13633   4.590   1.026   6.775  2.1236  2.0890  1.4266
  127OSM    C4F13634   4.417   1.102   6.893 -0.2725 -0.3461  0.2365
  127OSM    H4F13635   4.339   1.031   6.861 -2.1938  2.0349 -0.7290
  127OSM    H4G13636   4.369   1.202   6.905  1.5325  0.5949  0.0472
  127OSM    C5F13637   4.462   1.069   7.029  0.6518 -0.5410  0.3260
  127OSM    H5F13638   4.543   1.135   7.067 -0.6004  0.2468  1.7209
  127OSM    H5G13639   4.491   0.963   7.041  1.0979 -0.3505  0.9749
  127OSM    C6F13640   4.350   1.094   7.131 -0.6603  0.0142 -0.4380
  127OSM    H6F13641   4.246   1.071   7.098 -0.7341 -0.4891  0.1307
  127OSM    H6G13642   4.337   1.201   7.157 -0.0449 -0.4775  2.1742
  127OSM    C7F13643   4.391   1.011   7.259 -0.2043  0.4523  0.7009
  127OSM    H7F13644   4.481   1.063   7.297  0.8516 -0.3905 -0.5806
  127OSM    H7G13645   4.430   0.916   7.218 -0.2684  0.9204 -0.5044
  127OSM    C8F13646   4.285   0.994   7.369 -0.1899 -0.7247  0.2907
  127OSM    H8F13647   4.343   0.938   7.446  0.2661  0.4142  0.8054
  127OSM    H8G13648   4.197   0.936   7.336 -0.9219  0.3693  0.2566
  127OSM    C9F13649   4.230   1.121   7.427 -0.3880 -0.4677 -0.4092
  127OSM    H9F13650   4.193   1.198   7.358  1.3550  2.2158  1.4687
  127OSM   C10F13651   4.219   1.151   7.556 -0.1581  0.5621 -0.7934
  127OSM   H10F13652   4.170   1.246   7.581 -0.3182  0.4007 -0.4878
  127OSM   C11F13653   4.292   1.086   7.674  0.2212 -0.2758  0.3582
  127OSM   H11F13654   4.352   1.166   7.721 -0.6404  1.2678 -1.0505
  127OSM   H11G13655   4.363   1.011   7.632 -0.5599 -1.7327  1.5125
  127OSM   C12F13656   4.211   1.016   7.781 -0.2834 -0.0899 -0.4245
  127OSM   H12F13657   4.283   0.957   7.841  0.1070  1.1829  0.3993
  127OSM   H12G13658   4.139   0.943   7.739  0.5219 -0.8912 -0.4416
  127OSM   C13F13659   4.124   1.112   7.866 -0.0196  0.1490 -0.3894
  127OSM   H13F13660   4.061   1.165   7.792  0.4758 -1.2415 -1.8697
  127OSM   H13G13661   4.180   1.189   7.923 -2.1866 -0.0274  2.2244
  127OSM   C14F13662   4.033   1.038   7.967  0.4742 -0.4115  0.3890
  127OSM   H14F13663   4.096   1.006   8.053 -2.1947  0.2173  2.7695
  127OSM   H14G13664   3.990   0.946   7.923  1.1413 -1.1618  1.2487
  127OSM   C15F13665   3.916   1.130   8.018 -0.3789 -0.4432 -0.7346
  127OSM   H15F13666   3.868   1.188   7.936 -0.0877  0.2459 -0.4193
  127OSM   H15G13667   3.960   1.205   8.086  0.3761  0.4335 -2.1329
  127OSM   C16F13668   3.797   1.047   8.091 -0.2708 -0.5523 -0.9560
  127OSM   H16F13669   3.851   0.981   8.163 -1.7920 -0.2763  0.4999
  127OSM   H16G13670   3.755   0.987   8.007  0.7395  0.4227 -2.1839
  127OSM   C17F13671   3.700   1.130   8.170  0.1273 -0.3204  0.3082
  127OSM   H17F13672   3.643   1.196   8.101 -1.0413  0.8373  2.2855
  127OSM   H17G13673   3.766   1.208   8.214  2.4590 -1.3296 -1.2335
  127OSM   C18F13674   3.604   1.065   8.259  0.3617 -0.1213 -0.3726
  127OSM   H18F13675   3.551   1.136   8.326  0.3875 -0.0543 -0.4232
  127OSM   H18G13676   3.646   0.986   8.324  1.0268  1.5476  1.3066
  127OSM   H18H13677   3.522   1.019   8.198 -0.6939  0.5781  0.4804
  128OSM      N13678   6.406   5.318   6.212  0.4416 -0.0733 -0.2735
  128OSM    C1513679   6.518   5.401   6.177  1.0428  0.4009 -0.4616
  128OSM   H15A13680   6.586   5.344   6.116  1.0211  1.1308 -1.1926
  128OSM   H15B13681   6.572   5.434   6.264  3.0767  1.8839 -2.1712
  128OSM   H15C13682   6.476   5.481   6.118 -0.9578 -1.0118 -1.0865
  128OSM    C1413683   6.317   5.396   6.302 -0.4192 -0.2524 -0.3285
  128OSM   H14A13684   6.228   5.340   6.325 -0.2461 -0.9238 -1.2421
  128OSM   H14B13685   6.301   5.495   6.262  3.1593  0.5711 -0.1344
  128OSM   H14C13686   6.372   5.422   6.392  2.2222  2.1822 -2.4313
  128OSM    C1313687   6.340   5.286   6.084  0.5569  1.0696  0.7722
  128OSM   H13A13688   6.306   5.379   6.042  0.3803  1.4274  1.6698
  128OSM   H13B13689   6.252   5.224   6.101  1.3311 -0.0489  0.8087
  128OSM   H13C13690   6.402   5.229   6.017 -0.7413  0.0324  0.4059
  128OSM    C1213691   6.445   5.191   6.287  0.0697  0.0717 -0.1443
  128OSM   H12A13692   6.523   5.219   6.356 -1.3529  2.3152  0.6645
  128OSM   H12B13693   6.495   5.123   6.220  1.5933  0.7768  0.2308
  128OSM    C1113694   6.339   5.101   6.366 -0.1899 -0.2532  0.5175
  128OSM   H11A13695   6.271   5.173   6.417  0.0101 -0.7332  1.4784
  128OSM   H11B13696   6.383   5.034   6.442 -1.1024 -0.9172  0.4832
  128OSM      P13697   6.321   4.907   6.176  0.0759 -0.3874 -0.3892
  128OSM    O1313698   6.256   4.915   6.042  0.2600 -0.2938 -0.2871
  128OSM    O1413699   6.471   4.921   6.183  0.4516  0.2233  0.4135
  128OSM    O1113700   6.264   4.771   6.249  0.5383  0.0742  0.1306
  128OSM    O1213701   6.263   5.024   6.266 -0.4365 -0.2890 -0.1493
  128OSM    C1S13702   6.314   4.733   6.377 -0.0535 -0.0053  0.3877
  128OSM    H1S13703   6.416   4.771   6.397 -0.0853 -0.4869  1.5220
  128OSM    H1T13704   6.309   4.622   6.383 -1.2614 -0.1307 -1.7566
  128OSM     NF13705   6.262   4.749   6.621  0.1204  0.3051  0.7801
  128OSM    HNF13706   6.206   4.683   6.669 -0.8823  0.0243 -0.7269
  128OSM    C2S13707   6.218   4.777   6.490 -0.4849  0.2972 -0.0309
  128OSM    H2S13708   6.206   4.886   6.476 -0.7576  0.1928 -0.6241
  128OSM    C3S13709   6.076   4.716   6.465 -0.7352 -0.1233 -0.7316
  128OSM    H3S13710   6.101   4.613   6.498  1.1289  0.1358 -1.2255
  128OSM     O313711   6.043   4.690   6.327  0.0255 -0.2351  0.2307
  128OSM    HO313712   6.121   4.712   6.276 -0.0496 -0.3346  0.0716
  128OSM    C4S13713   5.964   4.800   6.527  0.2160 -0.3411 -0.7999
  128OSM    H4S13714   5.951   4.896   6.474  2.3204  1.0081  0.9422
  128OSM    C5S13715   5.877   4.761   6.623  0.3676 -0.1781  0.1973
  128OSM    H5S13716   5.868   4.656   6.655  0.5451  0.0821  1.1147
  128OSM    C6S13717   5.769   4.843   6.679  0.9364  0.1056 -0.5159
  128OSM    H6S13718   5.675   4.786   6.697  0.5382  0.2417 -1.9847
  128OSM    H6T13719   5.742   4.932   6.618  2.0073  1.4488  0.8943
  128OSM    C7S13720   5.815   4.906   6.816  0.0708  0.1744 -0.0468
  128OSM    H7S13721   5.723   4.952   6.859 -2.1032 -3.3346 -0.5895
  128OSM    H7T13722   5.900   4.976   6.800  0.3731  0.0275  0.9034
  128OSM    C8S13723   5.866   4.809   6.920  0.0860  0.9072 -0.5618
  128OSM    H8S13724   5.959   4.752   6.899  0.0573  0.1606  1.1499
  128OSM    H8T13725   5.779   4.742   6.941 -1.6388  3.3185  0.4483
  128OSM    C9S13726   5.894   4.882   7.052  0.0426 -0.1447  0.3531
  128OSM    H9S13727   5.815   4.939   7.105  0.1339  0.5775 -0.2801
  128OSM    H9T13728   5.971   4.956   7.024 -0.8083  0.1181 -1.4302
  128OSM   C10S13729   5.941   4.793   7.168 -0.1168 -0.0577 -0.0459
  128OSM   H10S13730   6.034   4.741   7.137  0.1092  0.9220 -1.0930
  128OSM   H10T13731   5.862   4.718   7.190 -0.1427 -0.6104 -1.8946
  128OSM   C11S13732   5.972   4.873   7.297 -0.1756  0.0316 -0.3807
  128OSM   H11S13733   5.888   4.946   7.302  1.0325  1.4889 -0.6368
  128OSM   H11T13734   6.064   4.935   7.284 -0.7769  2.7541  5.3016
  128OSM   C12S13735   5.987   4.808   7.433 -0.1323  0.3976  0.5329
  128OSM   H12S13736   6.089   4.767   7.453 -0.2637  0.5473  1.6026
  128OSM   H12T13737   5.925   4.716   7.434 -1.1527  1.0579 -0.7216
  128OSM   C13S13738   5.964   4.901   7.545 -0.8569  0.2404  0.7211
  128OSM   H13S13739   5.874   4.963   7.523 -1.1078 -0.5170 -0.5079
  128OSM   H13T13740   6.045   4.976   7.558 -0.7272  0.2056  0.1332
  128OSM   C14S13741   5.963   4.824   7.680 -0.5224 -0.8390 -0.3026
  128OSM   H14S13742   5.984   4.899   7.759 -0.3734  0.0321 -1.1487
  128OSM   H14T13743   6.049   4.754   7.673  0.0888  0.0572 -2.3954
  128OSM   C15S13744   5.831   4.751   7.721 -0.7750  0.4947 -0.7048
  128OSM   H15S13745   5.806   4.678   7.640 -1.0021 -0.6524  0.3716
  128OSM   H15T13746   5.745   4.816   7.744  0.0418  0.2145  4.3050
  128OSM   C16S13747   5.858   4.659   7.842  0.3890 -1.0256 -0.0329
  128OSM   H16S13748   5.904   4.730   7.914  0.5098 -0.5677 -0.5501
  128OSM   H16T13749   5.947   4.596   7.821  1.7829 -0.0483  2.4429
  128OSM   C17S13750   5.735   4.580   7.886 -0.0225 -0.2074 -0.5182
  128OSM   H17S13751   5.730   4.476   7.848  2.0819  0.1279 -1.8048
  128OSM   H17T13752   5.643   4.629   7.846 -0.1810  0.5621  0.7250
  128OSM   C18S13753   5.737   4.565   8.035 -0.2608  0.2720  0.0206
  128OSM   H18S13754   5.753   4.667   8.075 -0.0793  0.6048 -0.8721
  128OSM   H18T13755   5.820   4.498   8.067 -1.4828 -2.2000 -1.6298
  128OSM   H18U13756   5.640   4.528   8.073  0.1057 -0.8851 -0.1197
  128OSM    C1F13757   6.365   4.802   6.677 -0.8302 -0.7646 -0.2681
  128OSM     OF13758   6.454   4.854   6.608  0.0763 -0.5389  0.6463
  128OSM    C2F13759   6.379   4.782   6.828 -0.0208  0.0793  0.6244
  128OSM    H2F13760   6.435   4.688   6.845  1.3447  0.8858  0.7088
  128OSM    H2G13761   6.279   4.782   6.875 -0.5237  1.4216 -0.3716
  128OSM    C3F13762   6.461   4.897   6.884  0.2408  0.8221  0.2725
  128OSM    H3F13763   6.430   5.000   6.858  0.9549  0.8838 -0.3781
  128OSM    H3G13764   6.570   4.885   6.864  0.1928 -3.0088  1.4656
  128OSM    C4F13765   6.465   4.902   7.042 -0.3608 -0.3078  0.0956
  128OSM    H4F13766   6.520   4.811   7.075  0.7665  0.0442 -0.7177
  128OSM    H4G13767   6.363   4.894   7.084  0.0522  2.6475  1.9913
  128OSM    C5F13768   6.514   5.036   7.101  0.0763  0.4996 -0.5484
  128OSM    H5F13769   6.455   5.124   7.067  0.3209  1.7912  2.0886
  128OSM    H5G13770   6.610   5.055   7.048  0.4713 -0.4879 -0.2118
  128OSM    C6F13771   6.524   5.041   7.250 -0.2086 -0.4399 -0.1182
  128OSM    H6F13772   6.571   5.135   7.285 -1.1344 -0.8199  2.3254
  128OSM    H6G13773   6.590   4.957   7.282  1.2591  0.6876 -0.0913
  128OSM    C7F13774   6.388   5.027   7.321 -0.2439 -0.6028 -0.3945
  128OSM    H7F13775   6.360   4.921   7.302 -1.7528 -0.1619 -0.7475
  128OSM    H7G13776   6.309   5.094   7.280  1.7679  1.0735 -1.7733
  128OSM    C8F13777   6.396   5.051   7.473 -0.2781 -0.7498 -0.0249
  128OSM    H8F13778   6.477   4.986   7.512  1.6447  0.7059 -1.4276
  128OSM    H8G13779   6.302   5.016   7.522 -0.0659 -2.9243 -1.0520
  128OSM    C9F13780   6.420   5.197   7.501  0.4950  1.0029 -0.7905
  128OSM    H9F13781   6.351   5.264   7.448 -2.9437 -0.1410  1.9196
  128OSM   C10F13782   6.500   5.251   7.597 -1.2894  0.5190 -0.2226
  128OSM   H10F13783   6.504   5.360   7.611 -0.4649  0.3999  0.5665
  128OSM   C11F13784   6.595   5.173   7.690 -0.4541 -0.4597 -0.3835
  128OSM   H11F13785   6.700   5.169   7.656 -0.6232 -3.8079 -0.8620
  128OSM   H11G13786   6.573   5.065   7.702 -0.8270 -0.2077  1.5037
  128OSM   C12F13787   6.600   5.245   7.832  0.2067  0.9865  0.6966
  128OSM   H12F13788   6.614   5.354   7.822 -2.4876  1.2433 -1.5429
  128OSM   H12G13789   6.697   5.206   7.871  0.9660  0.0836 -1.8891
  128OSM   C13F13790   6.488   5.227   7.940  0.1074  0.6094  0.1077
  128OSM   H13F13791   6.499   5.122   7.974 -0.3957  1.3369  2.7510
  128OSM   H13G13792   6.387   5.234   7.894 -0.5550  1.3505  1.5961
  128OSM   C14F13793   6.505   5.324   8.054  0.6807  0.9542 -0.1127
  128OSM   H14F13794   6.458   5.422   8.033 -0.7406  0.3282  0.0190
  128OSM   H14G13795   6.613   5.341   8.075  1.3973 -0.5490 -2.1988
  128OSM   C15F13796   6.447   5.268   8.185  0.0356 -0.2709  0.3195
  128OSM   H15F13797   6.460   5.158   8.197 -1.4030 -0.2941  2.2841
  128OSM   H15G13798   6.336   5.271   8.183 -0.1647 -2.5208  2.6585
  128OSM   C16F13799   6.482   5.342   8.319  0.7128  0.8020  0.3261
  128OSM   H16F13800   6.453   5.449   8.311 -0.7644  0.3886 -0.3663
  128OSM   H16G13801   6.592   5.331   8.324  0.4977 -1.2254  2.5611
  128OSM   C17F13802   6.412   5.289   8.448 -0.1208  0.8648 -0.1013
  128OSM   H17F13803   6.458   5.352   8.527 -1.6711 -1.6628  3.0404
  128OSM   H17G13804   6.451   5.187   8.469  1.4212  1.5177  0.3973
  128OSM   C18F13805   6.262   5.305   8.457  0.6984 -0.5031  0.7670
  128OSM   H18F13806   6.242   5.412   8.434  2.0559 -0.1432  1.1762
  128OSM   H18G13807   6.228   5.287   8.562  2.5581  2.0135  1.9166
  128OSM   H18H13808   6.204   5.238   8.390 -2.1110  2.2295  0.2119
  129OSM      N13809   3.716   1.831   5.835 -0.3651 -0.4934  0.4101
  129OSM    C1513810   3.621   1.759   5.749 -0.1269 -0.9570 -0.4412
  129OSM   H15A13811   3.648   1.654   5.742  1.9626 -0.6687  1.7848
  129OSM   H15B13812   3.625   1.788   5.646  0.7604 -0.9138 -0.4014
  129OSM   H15C13813   3.522   1.786   5.782  0.5928  0.6599  0.5138
  129OSM    C1413814   3.854   1.806   5.773  0.2487 -0.2616  0.8022
  129OSM   H14A13815   3.928   1.828   5.848 -0.2765  2.9171  0.5224
  129OSM   H14B13816   3.869   1.863   5.683 -1.5608 -0.8532  0.0684
  129OSM   H14C13817   3.859   1.699   5.758  0.1633 -0.0931 -0.5939
  129OSM    C1313818   3.678   1.979   5.844  0.4565 -0.0486 -0.0284
  129OSM   H13A13819   3.583   1.989   5.896 -0.1674  0.7546 -1.2828
  129OSM   H13B13820   3.653   2.021   5.748 -0.3568 -1.2477 -0.3668
  129OSM   H13C13821   3.748   2.043   5.896  0.1230  1.1688 -1.0305
  129OSM    C1213822   3.710   1.775   5.973 -0.2346  0.0775  0.2405
  129OSM   H12A13823   3.736   1.670   5.963 -0.1055  0.0559  0.7978
  129OSM   H12B13824   3.611   1.776   6.016 -0.2903  0.8157  0.0929
  129OSM    C1113825   3.808   1.833   6.076  0.1251  0.3229  0.5597
  129OSM   H11A13826   3.775   1.801   6.177 -1.8442  1.8704  0.4713
  129OSM   H11B13827   3.808   1.944   6.076 -0.9430  0.3350  0.0952
  129OSM      P13828   4.017   1.696   6.142 -0.4150  0.3588  0.2253
  129OSM    O1313829   3.933   1.582   6.137  0.0070  0.0983 -0.1869
  129OSM    O1413830   4.156   1.685   6.097 -0.0317  0.7141  0.0676
  129OSM    O1113831   4.019   1.779   6.276 -0.0584 -0.0378 -0.2271
  129OSM    O1213832   3.948   1.803   6.054  0.3887 -0.2438 -0.6228
  129OSM    C1S13833   4.070   1.908   6.269  0.1887  0.3604  0.2850
  129OSM    H1S13834   3.997   1.983   6.231 -1.4241 -0.7301  1.1053
  129OSM    H1T13835   4.158   1.916   6.201 -0.1203 -0.3872 -0.2161
  129OSM     NF13836   4.118   2.096   6.417  0.1421  0.1609  0.0930
  129OSM    HNF13837   4.208   2.126   6.448 -0.8916  2.4546  1.0849
  129OSM    C2S13838   4.112   1.953   6.413 -0.9950 -0.0193 -0.0232
  129OSM    H2S13839   4.037   1.932   6.492 -0.3609 -0.4904  0.4637
  129OSM    C3S13840   4.239   1.878   6.460  0.3879 -0.6294 -0.0021
  129OSM    H3S13841   4.307   1.894   6.373 -0.8284 -2.0118 -1.2641
  129OSM     O313842   4.233   1.739   6.451  0.3759 -0.5354  0.4861
  129OSM    HO313843   4.145   1.725   6.415  0.3108 -2.2033  1.1957
  129OSM    C4S13844   4.293   1.906   6.592  0.5362  0.0031 -0.2547
  129OSM    H4S13845   4.227   1.869   6.672 -0.1504 -0.6761 -1.1092
  129OSM    C5S13846   4.417   1.951   6.621  0.1658  0.4176  0.2032
  129OSM    H5S13847   4.488   1.962   6.539  1.5490 -0.1261  1.2917
  129OSM    C6S13848   4.462   1.972   6.761 -0.0884  0.0005  0.0864
  129OSM    H6S13849   4.523   2.065   6.760  1.5186 -0.9763  1.1599
  129OSM    H6T13850   4.531   1.890   6.791  1.8013  1.5977  0.3420
  129OSM    C7S13851   4.361   1.987   6.878  0.2554  0.7832  0.0844
  129OSM    H7S13852   4.299   1.895   6.887  0.9242  0.3738  0.6755
  129OSM    H7T13853   4.303   2.075   6.843  1.1148  1.5052  0.4388
  129OSM    C8S13854   4.422   2.017   7.017  0.2168 -0.0829 -0.4777
  129OSM    H8S13855   4.355   2.084   7.076  0.2538  0.0732 -0.6117
  129OSM    H8T13856   4.507   2.086   7.002 -1.0454  1.8802  0.7650
  129OSM    C9S13857   4.445   1.906   7.128  0.2192  0.0519  0.6969
  129OSM    H9S13858   4.487   1.969   7.209 -1.0399  0.8755  0.7457
  129OSM    H9T13859   4.524   1.835   7.096 -1.3976 -1.9890  0.9353
  129OSM   C10S13860   4.312   1.828   7.174  0.1680  0.0986  0.5309
  129OSM   H10S13861   4.291   1.762   7.087  0.7419  0.3143  0.2244
  129OSM   H10T13862   4.224   1.894   7.193  0.5322 -0.0409  3.1642
  129OSM   C11S13863   4.333   1.751   7.309 -0.2674 -0.0882 -0.1837
  129OSM   H11S13864   4.425   1.689   7.312 -0.2450 -0.0914 -0.7957
  129OSM   H11T13865   4.245   1.687   7.329 -2.2774  2.6126  0.2601
  129OSM   C12S13866   4.354   1.849   7.420 -0.0828  0.1297  0.8189
  129OSM   H12S13867   4.279   1.928   7.399 -0.2299 -0.9286 -3.7112
  129OSM   H12T13868   4.454   1.899   7.426 -0.7140  1.5452  0.0799
  129OSM   C13S13869   4.342   1.783   7.559 -0.3648 -0.0840  0.3407
  129OSM   H13S13870   4.437   1.725   7.569  2.1678  3.5744 -0.2034
  129OSM   H13T13871   4.248   1.724   7.560 -1.4401  1.5225 -0.8879
  129OSM   C14S13872   4.329   1.886   7.675 -0.5839  0.4425 -0.3776
  129OSM   H14S13873   4.226   1.925   7.665 -1.5989 -1.8131  0.4432
  129OSM   H14T13874   4.409   1.962   7.662 -0.6714  0.7249  0.5990
  129OSM   C15S13875   4.349   1.815   7.807 -0.1592 -0.3242 -0.0916
  129OSM   H15S13876   4.458   1.794   7.809 -0.6126 -3.0149 -0.1955
  129OSM   H15T13877   4.289   1.722   7.817 -0.5936 -0.0584 -0.1775
  129OSM   C16S13878   4.307   1.901   7.924  0.1403  0.2294 -0.7534
  129OSM   H16S13879   4.202   1.930   7.904 -0.4164 -0.8334  0.5164
  129OSM   H16T13880   4.365   1.995   7.933  2.1870 -1.1106  1.2498
  129OSM   C17S13881   4.315   1.827   8.060  0.0482 -0.0317  0.7026
  129OSM   H17S13882   4.271   1.727   8.036  2.6372 -0.9785 -0.4786
  129OSM   H17T13883   4.244   1.866   8.135  1.1554  0.3381  1.5719
  129OSM   C18S13884   4.451   1.796   8.131  0.5347 -0.7082  0.3686
  129OSM   H18S13885   4.524   1.744   8.065  0.4133  1.2159 -1.4028
  129OSM   H18T13886   4.419   1.727   8.212 -1.6210 -0.0141  0.1688
  129OSM   H18U13887   4.506   1.887   8.164  2.0994 -1.4138 -0.1466
  129OSM    C1F13888   4.013   2.178   6.396 -0.1384 -0.5978  0.1733
  129OSM     OF13889   3.900   2.131   6.397  0.6733 -0.2672 -0.1867
  129OSM    C2F13890   4.037   2.327   6.383 -0.7152  0.0190 -0.3242
  129OSM    H2F13891   4.049   2.352   6.276 -1.1794  0.6003 -0.2455
  129OSM    H2G13892   4.131   2.343   6.441 -0.2003 -0.5309 -0.9956
  129OSM    C3F13893   3.923   2.412   6.445  0.2531 -0.0081 -0.0880
  129OSM    H3F13894   3.830   2.373   6.398 -0.0364  1.0793 -0.4262
  129OSM    H3G13895   3.933   2.519   6.419  1.3740  0.7424  3.0116
  129OSM    C4F13896   3.934   2.400   6.599 -0.5592 -0.7778  0.0414
  129OSM    H4F13897   4.042   2.400   6.623 -0.9450 -1.0954  1.9707
  129OSM    H4G13898   3.897   2.299   6.628 -0.0538 -1.4178 -1.4469
  129OSM    C5F13899   3.875   2.519   6.679  0.2968 -0.1018  0.2534
  129OSM    H5F13900   3.779   2.546   6.629  1.1903  0.3736 -1.2277
  129OSM    H5G13901   3.953   2.597   6.675  0.7819 -0.5346  1.0013
  129OSM    C6F13902   3.854   2.498   6.825 -0.7986  0.8584  0.0242
  129OSM    H6F13903   3.953   2.478   6.871 -0.2602 -0.7491 -1.7079
  129OSM    H6G13904   3.786   2.413   6.850 -0.0263 -0.4358 -2.0327
  129OSM    C7F13905   3.780   2.614   6.890 -0.6058  0.1162 -0.1922
  129OSM    H7F13906   3.690   2.649   6.835 -0.2617 -0.7822 -1.3530
  129OSM    H7G13907   3.852   2.698   6.896  1.8539 -1.9523  2.5536
  129OSM    C8F13908   3.725   2.590   7.030  0.2312 -0.3199 -0.8545
  129OSM    H8F13909   3.662   2.499   7.040 -0.7305  0.4211 -0.0663
  129OSM    H8G13910   3.663   2.676   7.062 -1.1696 -1.0712 -1.4497
  129OSM    C9F13911   3.830   2.584   7.139 -0.7539 -0.5030 -0.6410
  129OSM    H9F13912   3.931   2.602   7.101 -1.1057  1.0540 -0.9369
  129OSM   C10F13913   3.818   2.565   7.274  0.3782 -0.7537 -0.0184
  129OSM   H10F13914   3.913   2.564   7.329  1.9041  1.7983 -2.3495
  129OSM   C11F13915   3.688   2.547   7.353 -0.0312 -0.2629  0.2787
  129OSM   H11F13916   3.684   2.439   7.381  1.8836 -0.4971 -0.2129
  129OSM   H11G13917   3.597   2.584   7.301 -0.9408 -1.7553  0.7496
  129OSM   C12F13918   3.697   2.627   7.481  0.5778  0.1201  0.2831
  129OSM   H12F13919   3.692   2.736   7.462  2.3090  0.4148  1.2874
  129OSM   H12G13920   3.791   2.606   7.537  1.5788 -0.0146 -1.3879
  129OSM   C13F13921   3.588   2.592   7.577  0.2134 -0.8564 -0.0565
  129OSM   H13F13922   3.577   2.483   7.596  0.0916 -1.3087 -2.4005
  129OSM   H13G13923   3.489   2.623   7.538  0.1623 -1.0273 -0.0609
  129OSM   C14F13924   3.606   2.661   7.714  0.8388 -0.0493 -0.4609
  129OSM   H14F13925   3.628   2.767   7.690 -0.4947  0.1580 -0.8513
  129OSM   H14G13926   3.693   2.621   7.769 -0.4824 -1.7689  0.4587
  129OSM   C15F13927   3.476   2.677   7.798  0.0887  0.0738 -0.1409
  129OSM   H15F13928   3.388   2.708   7.738 -0.1417 -0.9686 -0.3568
  129OSM   H15G13929   3.491   2.740   7.888 -1.4920 -0.3945  0.4974
  129OSM   C16F13930   3.435   2.544   7.860 -0.4866  0.1344  0.5461
  129OSM   H16F13931   3.504   2.517   7.942 -1.5993 -1.2981  1.0653
  129OSM   H16G13932   3.434   2.460   7.788  1.6682 -1.1823  1.9465
  129OSM   C17F13933   3.300   2.572   7.931  0.0370  0.3569 -0.6596
  129OSM   H17F13934   3.229   2.616   7.859 -1.3485 -1.3474 -0.4063
  129OSM   H17G13935   3.304   2.636   8.022 -0.0168 -1.1633  0.4533
  129OSM   C18F13936   3.245   2.437   7.984  1.1434 -0.1534  0.4078
  129OSM   H18F13937   3.166   2.471   8.054  1.6469 -0.6814  1.2528
  129OSM   H18G13938   3.314   2.374   8.044 -0.3149 -1.7675  0.4286
  129OSM   H18H13939   3.201   2.379   7.900 -1.3405  1.0763  0.7726
  130OSM      N13940   0.850   3.861   6.221 -0.6784  0.3474 -0.4506
  130OSM    C1513941   0.730   3.845   6.142 -0.2253  0.5541  0.7260
  130OSM   H15A13942   0.648   3.910   6.168 -2.0655 -1.5334  0.5489
  130OSM   H15B13943   0.686   3.746   6.147 -0.2143  0.5024 -0.0467
  130OSM   H15C13944   0.756   3.870   6.040 -1.7821  1.4478  0.5151
  130OSM    C1413945   0.964   3.809   6.145 -0.1618 -0.0949 -0.1407
  130OSM   H14A13946   0.977   3.862   6.052  3.8296  1.5907  1.1601
  130OSM   H14B13947   0.955   3.703   6.125  2.0490 -0.5740  0.9573
  130OSM   H14C13948   1.053   3.821   6.205 -1.0607 -0.3928  1.3091
  130OSM    C1313949   0.878   4.006   6.243  0.2197  0.4398 -0.0023
  130OSM   H13A13950   0.971   4.021   6.296 -0.7392  2.3039  1.3078
  130OSM   H13B13951   0.791   4.047   6.293  0.9830  1.2290  0.7303
  130OSM   H13C13952   0.876   4.068   6.155  0.6524  0.5892  0.0915
  130OSM    C1213953   0.860   3.789   6.349  0.3221 -0.1420 -0.7545
  130OSM   H12A13954   0.798   3.845   6.417  2.6683  0.8709  0.6854
  130OSM   H12B13955   0.955   3.797   6.399 -0.6618 -0.0031  1.1670
  130OSM    C1113956   0.823   3.641   6.362 -0.1537  0.4102  0.6919
  130OSM   H11A13957   0.847   3.598   6.462  0.0562  0.8040  0.8148
  130OSM   H11B13958   0.897   3.592   6.295  0.2341  2.0002 -0.0796
  130OSM      P13959   0.582   3.604   6.429  0.2565  0.4371 -0.2793
  130OSM    O1313960   0.542   3.746   6.455  0.9613  0.0439  0.2525
  130OSM    O1413961   0.474   3.506   6.389 -0.1285 -0.2416  0.0323
  130OSM    O1113962   0.664   3.551   6.557 -0.5054  0.3008 -0.2598
  130OSM    O1213963   0.690   3.605   6.322 -0.3950  0.4122  0.3879
  130OSM    C1S13964   0.576   3.511   6.661  0.0023  0.4932 -0.0064
  130OSM    H1S13965   0.528   3.417   6.628  1.1867  0.1583 -0.8178
  130OSM    H1T13966   0.495   3.585   6.683  0.6878  1.4130 -0.4875
  130OSM     NF13967   0.556   3.427   6.887 -0.3264 -0.3283 -0.8110
  130OSM    HNF13968   0.530   3.477   6.970 -0.2453 -1.7285  0.0849
  130OSM    C2S13969   0.647   3.498   6.803  0.2675  0.0002 -0.4768
  130OSM    H2S13970   0.742   3.443   6.794 -0.1496 -0.7080 -0.6277
  130OSM    C3S13971   0.695   3.640   6.860 -0.1547 -0.3977 -0.2858
  130OSM    H3S13972   0.614   3.716   6.850  0.6723  0.2160 -3.5016
  130OSM     O313973   0.794   3.697   6.774  0.4176  0.3273  0.7468
  130OSM    HO313974   0.781   3.636   6.701 -1.5130 -1.0716  2.1804
  130OSM    C4S13975   0.746   3.643   7.001  0.1052 -0.2161  0.4151
  130OSM    H4S13976   0.667   3.678   7.069  0.0788  1.1363 -0.2675
  130OSM    C5S13977   0.844   3.562   7.041 -0.4096  0.3428 -0.4687
  130OSM    H5S13978   0.905   3.506   6.968 -0.9275 -0.8685  0.0039
  130OSM    C6S13979   0.888   3.519   7.181  0.2683 -0.0704  0.0999
  130OSM    H6S13980   0.993   3.549   7.203  0.1994 -0.1308  0.5177
  130OSM    H6T13981   0.904   3.409   7.175  2.0316  0.0104  2.0070
  130OSM    C7S13982   0.789   3.546   7.296 -0.4086  0.2362  0.1250
  130OSM    H7S13983   0.688   3.513   7.265 -0.4637 -0.3945  0.9474
  130OSM    H7T13984   0.786   3.657   7.306  0.1529  0.4093 -1.3502
  130OSM    C8S13985   0.839   3.495   7.429 -1.0759 -0.2559  0.2548
  130OSM    H8S13986   0.942   3.536   7.441 -0.9642  0.1098 -1.6195
  130OSM    H8T13987   0.837   3.384   7.423 -1.1784 -0.3964  2.2159
  130OSM    C9S13988   0.748   3.540   7.538  0.0953 -0.1360  0.0277
  130OSM    H9S13989   0.642   3.514   7.520  0.3805 -1.0810 -0.3330
  130OSM    H9T13990   0.754   3.650   7.551  0.3716 -0.0292 -0.9443
  130OSM   C10S13991   0.786   3.476   7.669 -0.1261  0.1161 -1.1339
  130OSM   H10S13992   0.879   3.532   7.695  0.9941 -2.7178  1.6531
  130OSM   H10T13993   0.817   3.370   7.664  1.2839  0.5254 -1.5534
  130OSM   C11S13994   0.681   3.515   7.780  0.1862  0.3313  0.6818
  130OSM   H11S13995   0.586   3.466   7.751  1.1589 -0.5027 -1.3295
  130OSM   H11T13996   0.657   3.622   7.763  0.4945  0.2907 -0.0601
  130OSM   C12S13997   0.719   3.486   7.923  0.1181  0.1286 -0.5119
  130OSM   H12S13998   0.812   3.543   7.944  0.5893 -0.3464 -1.2453
  130OSM   H12T13999   0.739   3.377   7.921  0.2384  0.1601 -1.1418
  130OSM   C13S14000   0.608   3.530   8.022 -0.2272  0.5684 -0.2420
  130OSM   H13S14001   0.504   3.522   7.986 -0.5957  0.8701  0.7155
  130OSM   H13T14002   0.631   3.636   8.045 -0.4991  0.5733  0.0140
  130OSM   C14S14003   0.611   3.439   8.154  0.0401  0.7769 -0.7855
  130OSM   H14S14004   0.689   3.479   8.222  2.3479 -1.4808 -1.9156
  130OSM   H14T14005   0.632   3.333   8.126 -1.7918 -0.2501  1.3263
  130OSM   C15S14006   0.477   3.432   8.229  0.1159  0.0002 -0.2196
  130OSM   H15S14007   0.470   3.363   8.316  0.1772 -0.9747 -0.9610
  130OSM   H15T14008   0.397   3.403   8.158 -0.2174 -1.6266  0.7699
  130OSM   C16S14009   0.433   3.576   8.270  0.0975  0.1420 -0.1667
  130OSM   H16S14010   0.399   3.647   8.191 -1.7427 -1.5782 -1.0288
  130OSM   H16T14011   0.521   3.614   8.324  0.7371 -1.7259  0.1825
  130OSM   C17S14012   0.313   3.582   8.376  0.5393 -0.2066  0.9820
  130OSM   H17S14013   0.315   3.495   8.446 -2.7824 -0.9449  0.3482
  130OSM   H17T14014   0.211   3.566   8.334  1.5663 -1.3340 -1.2639
  130OSM   C18S14015   0.298   3.710   8.460  0.5641  0.3425  0.2719
  130OSM   H18S14016   0.268   3.797   8.397  2.4800 -0.3179 -1.6914
  130OSM   H18T14017   0.395   3.726   8.511  0.4115 -0.0354  0.6838
  130OSM   H18U14018   0.218   3.698   8.535  0.6402 -0.9201  0.1651
  130OSM    C1F14019   0.523   3.302   6.876 -0.2465  1.1343  0.3297
  130OSM     OF14020   0.566   3.240   6.776  0.3646 -0.1218  0.2049
  130OSM    C2F14021   0.432   3.242   6.981 -0.3256  0.0788  0.2460
  130OSM    H2F14022   0.402   3.137   6.959 -1.6740  0.4203  0.3678
  130OSM    H2G14023   0.341   3.304   6.995 -0.5989  0.1600 -1.6135
  130OSM    C3F14024   0.502   3.241   7.120  0.1299  0.5414  0.1084
  130OSM    H3F14025   0.511   3.350   7.141 -0.1297  0.7272 -0.6986
  130OSM    H3G14026   0.605   3.201   7.119 -0.7060 -1.7306 -0.2767
  130OSM    C4F14027   0.418   3.179   7.235  0.3475 -0.5392 -1.0168
  130OSM    H4F14028   0.390   3.072   7.230 -4.0676  0.4303 -1.2160
  130OSM    H4G14029   0.319   3.225   7.214  0.3710 -0.2704 -0.5634
  130OSM    C5F14030   0.470   3.219   7.375 -0.2760 -0.1604 -0.5898
  130OSM    H5F14031   0.513   3.322   7.371 -1.3609  0.2816 -1.0693
  130OSM    H5G14032   0.555   3.154   7.407 -0.7151  0.7402  2.8251
  130OSM    C6F14033   0.367   3.191   7.484  0.1489 -0.9381 -0.4363
  130OSM    H6F14034   0.348   3.081   7.485  1.5256 -1.2220  2.0996
  130OSM    H6G14035   0.277   3.248   7.452  1.4275  1.6449  0.2815
  130OSM    C7F14036   0.403   3.250   7.621  0.2667 -0.2714  0.0532
  130OSM    H7F14037   0.309   3.236   7.680 -0.7398 -0.1634 -1.4701
  130OSM    H7G14038   0.434   3.356   7.625 -1.1031  0.2059 -1.1713
  130OSM    C8F14039   0.504   3.165   7.703  0.2714  0.7490 -0.0622
  130OSM    H8F14040   0.494   3.186   7.812  0.7483  0.2664  0.0776
  130OSM    H8G14041   0.600   3.216   7.680  0.2153  0.9914  0.2334
  130OSM    C9F14042   0.498   3.016   7.674 -0.3881 -0.2685 -0.2497
  130OSM    H9F14043   0.561   2.985   7.590 -1.5262 -0.3330 -1.1091
  130OSM   C10F14044   0.438   2.920   7.749  0.7362  0.5382 -0.6411
  130OSM   H10F14045   0.445   2.816   7.715  1.9111 -0.2737  1.8228
  130OSM   C11F14046   0.371   2.941   7.882  0.4456 -0.0676 -0.9972
  130OSM   H11F14047   0.263   2.916   7.886  0.6678 -0.9619 -0.3406
  130OSM   H11G14048   0.382   3.041   7.928  0.0538 -0.6667  0.4658
  130OSM   C12F14049   0.441   2.849   7.989  0.3856  0.1548  0.3742
  130OSM   H12F14050   0.549   2.877   7.991  0.4544 -0.1223  0.6713
  130OSM   H12G14051   0.421   2.749   7.946 -1.1223  0.7211 -0.3022
  130OSM   C13F14052   0.377   2.852   8.124 -0.6057 -0.3123 -0.2359
  130OSM   H13F14053   0.418   2.779   8.198 -2.9649 -0.2318  1.2671
  130OSM   H13G14054   0.270   2.821   8.123 -0.4332 -0.9272 -1.9439
  130OSM   C14F14055   0.381   2.993   8.186  0.9774 -0.3914  0.1201
  130OSM   H14F14056   0.314   2.991   8.274 -1.2461  1.5638 -1.3817
  130OSM   H14G14057   0.321   3.056   8.117 -0.0993 -1.0750  0.4110
  130OSM   C15F14058   0.519   3.052   8.216  0.3863  0.0432 -0.3279
  130OSM   H15F14059   0.510   3.162   8.226  1.3429  0.2097 -1.1619
  130OSM   H15G14060   0.578   3.033   8.123 -1.8183 -1.5921 -1.4964
  130OSM   C16F14061   0.582   2.979   8.329 -0.2227  0.0450 -0.5667
  130OSM   H16F14062   0.692   2.994   8.335 -0.3378  0.7831 -0.1933
  130OSM   H16G14063   0.565   2.869   8.319  1.1572 -0.1945 -0.4383
  130OSM   C17F14064   0.520   3.023   8.472  0.0644  0.7130  0.3302
  130OSM   H17F14065   0.419   2.991   8.439  1.2140 -0.5449 -2.3098
  130OSM   H17G14066   0.518   3.133   8.487  1.7783  0.5645  1.9581
  130OSM   C18F14067   0.568   2.950   8.595 -0.1580  0.2314  0.4525
  130OSM   H18F14068   0.585   2.841   8.582 -0.2892  0.3450 -0.7656
  130OSM   H18G14069   0.495   2.972   8.676 -1.1169  4.0467 -1.2265
  130OSM   H18H14070   0.673   2.983   8.608 -0.3396  1.2125 -0.4645
  131OSM      N14071   5.247   6.228   5.892 -0.0222  0.5031 -0.5806
  131OSM    C1514072   5.338   6.112   5.855 -0.2753  0.1974  0.8733
  131OSM   H15A14073   5.413   6.076   5.924  0.9333 -0.1437 -0.5595
  131OSM   H15B14074   5.390   6.128   5.761  1.2805 -1.0320  1.4725
  131OSM   H15C14075   5.274   6.026   5.841  2.2557 -1.6801 -0.0539
  131OSM    C1414076   5.323   6.339   5.966  0.8901  0.2535  0.0475
  131OSM   H14A14077   5.375   6.296   6.050  0.5668 -0.5946 -0.1773
  131OSM   H14B14078   5.254   6.414   6.001  0.1416 -0.4632  0.1473
  131OSM   H14C14079   5.391   6.394   5.903 -0.4882  1.9929  0.0144
  131OSM    C1314080   5.193   6.274   5.764 -0.3076 -0.0183 -0.3035
  131OSM   H13A14081   5.270   6.327   5.710  1.7574 -0.7673  1.7091
  131OSM   H13B14082   5.100   6.328   5.770 -1.8066 -2.5333  1.5864
  131OSM   H13C14083   5.174   6.191   5.697  0.3503 -1.2219  0.9304
  131OSM    C1214084   5.130   6.180   5.983  0.1764  0.0908  0.4745
  131OSM   H12A14085   5.059   6.136   5.914 -0.7568  0.6734  1.0379
  131OSM   H12B14086   5.079   6.261   6.033  0.2662  1.0339 -0.9276
  131OSM    C1114087   5.160   6.061   6.079 -0.5744 -0.7620  0.3970
  131OSM   H11A14088   5.071   6.038   6.142 -1.4340 -0.4414 -0.6757
  131OSM   H11B14089   5.246   6.088   6.144 -0.0066 -1.5501 -0.0130
  131OSM      P14090   5.259   5.810   6.076 -0.5651 -0.5518 -0.1336
  131OSM    O1314091   5.221   5.696   5.986 -0.4203 -0.6047  0.1197
  131OSM    O1414092   5.405   5.825   6.110 -0.1542 -0.4237 -0.2787
  131OSM    O1114093   5.167   5.786   6.201 -0.9352  0.0157 -0.1726
  131OSM    O1214094   5.198   5.940   6.013  0.0300 -0.4996 -0.0617
  131OSM    C1S14095   5.217   5.690   6.298 -0.9125 -0.1435  0.3044
  131OSM    H1S14096   5.326   5.691   6.320 -0.8839  1.4198  0.2027
  131OSM    H1T14097   5.194   5.589   6.258  0.5221 -0.6532  0.7106
  131OSM     NF14098   5.194   5.608   6.531  0.0966 -0.0476 -0.0025
  131OSM    HNF14099   5.132   5.539   6.568 -0.1378 -0.1377 -0.5463
  131OSM    C2S14100   5.146   5.704   6.436 -0.4459  0.3086 -0.9563
  131OSM    H2S14101   5.172   5.802   6.481  1.8295 -1.3400  1.6763
  131OSM    C3S14102   4.991   5.686   6.416  0.4691 -0.7051 -0.0516
  131OSM    H3S14103   4.969   5.578   6.396  2.8281 -1.1432 -0.6253
  131OSM     O314104   4.929   5.755   6.312 -0.2303 -0.0681  0.0554
  131OSM    HO314105   4.990   5.782   6.243 -1.1370  1.8413 -0.0807
  131OSM    C4S14106   4.928   5.731   6.553  0.4080  0.0061 -0.5798
  131OSM    H4S14107   4.946   5.836   6.580  0.8261 -0.5804  1.6171
  131OSM    C5S14108   4.873   5.643   6.640  1.0764  0.2222 -0.9900
  131OSM    H5S14109   4.873   5.536   6.612 -1.5938  0.2479 -1.3518
  131OSM    C6S14110   4.827   5.676   6.782  0.7711  0.7763  0.5304
  131OSM    H6S14111   4.717   5.687   6.776  0.6251 -1.1481 -2.3722
  131OSM    H6T14112   4.884   5.765   6.814 -0.2687  1.3321  0.8655
  131OSM    C7S14113   4.854   5.556   6.883  0.3484 -0.0833  0.1867
  131OSM    H7S14114   4.961   5.527   6.891  0.2961  0.1651  2.3269
  131OSM    H7T14115   4.796   5.473   6.839 -0.7620  0.9721 -0.3933
  131OSM    C8S14116   4.803   5.594   7.025 -0.2759  0.2645 -0.3777
  131OSM    H8S14117   4.797   5.499   7.082  2.0959  0.3271  0.0823
  131OSM    H8T14118   4.701   5.634   7.007 -1.1741 -1.8798 -0.3954
  131OSM    C9S14119   4.894   5.686   7.101  0.2665 -0.0077  0.1897
  131OSM    H9S14120   4.872   5.790   7.068  0.0094 -0.3589 -0.7831
  131OSM    H9T14121   5.000   5.656   7.088 -0.3301 -2.7485  1.0680
  131OSM   C10S14122   4.863   5.702   7.251 -0.8302  0.2893  0.3454
  131OSM   H10S14123   4.754   5.724   7.262 -1.0124  0.3829 -1.3848
  131OSM   H10T14124   4.918   5.789   7.293 -0.4589 -0.6825  1.9474
  131OSM   C11S14125   4.917   5.580   7.324  0.3408 -0.7463 -0.1529
  131OSM   H11S14126   5.016   5.554   7.281 -0.0006 -1.7422 -0.3646
  131OSM   H11T14127   4.851   5.492   7.313 -0.6885 -0.4747  2.9665
  131OSM   C12S14128   4.912   5.598   7.482 -0.3283 -0.1843  0.3783
  131OSM   H12S14129   4.953   5.698   7.509  2.4642  0.3495 -4.5772
  131OSM   H12T14130   4.976   5.523   7.533 -0.6111 -1.4043 -0.9980
  131OSM   C13S14131   4.769   5.590   7.537  0.4915  0.0316 -0.3385
  131OSM   H13S14132   4.729   5.487   7.541 -1.7204  0.8558  2.8085
  131OSM   H13T14133   4.697   5.631   7.463  3.3898  1.2755 -2.6400
  131OSM   C14S14134   4.758   5.667   7.666 -0.4077  0.7149  0.5376
  131OSM   H14S14135   4.653   5.666   7.704 -1.4430  1.6009 -2.0430
  131OSM   H14T14136   4.775   5.775   7.649  0.1519  0.5316 -0.1213
  131OSM   C15S14137   4.848   5.606   7.777  0.2269  0.5937 -0.0014
  131OSM   H15S14138   4.949   5.624   7.733 -0.6887  0.4670 -2.3162
  131OSM   H15T14139   4.826   5.497   7.785  0.4995  0.5837  0.6925
  131OSM   C16S14140   4.846   5.685   7.912 -0.3378  0.2190 -0.2913
  131OSM   H16S14141   4.827   5.793   7.890 -1.5972 -0.0620 -0.6491
  131OSM   H16T14142   4.938   5.675   7.973  0.4059  0.2073 -1.3799
  131OSM   C17S14143   4.748   5.618   8.012 -0.4696  0.3888 -0.0345
  131OSM   H17S14144   4.785   5.516   8.036 -1.8343 -0.5962 -1.8351
  131OSM   H17T14145   4.651   5.601   7.961 -0.5983 -0.2725  0.4181
  131OSM   C18S14146   4.721   5.691   8.142  0.6098 -0.6053 -0.5125
  131OSM   H18S14147   4.627   5.653   8.186  0.3517  0.2438 -0.3117
  131OSM   H18T14148   4.690   5.795   8.119 -0.2944 -0.3279  1.7568
  131OSM   H18U14149   4.795   5.684   8.224  0.1820 -0.7401 -0.1354
  131OSM    C1F14150   5.317   5.621   6.581  0.2979  0.3753 -0.1287
  131OSM     OF14151   5.393   5.710   6.542 -0.0781  0.7828 -0.1622
  131OSM    C2F14152   5.361   5.536   6.694 -0.6449 -0.3442 -0.0863
  131OSM    H2F14153   5.397   5.441   6.650 -2.6804 -1.5047  0.6377
  131OSM    H2G14154   5.270   5.527   6.757 -2.1813 -2.4007 -2.4064
  131OSM    C3F14155   5.474   5.596   6.780  0.0199 -0.3848  0.6031
  131OSM    H3F14156   5.459   5.698   6.821  1.1205  0.9153 -1.9915
  131OSM    H3G14157   5.562   5.614   6.713 -1.2998  2.8001 -0.4795
  131OSM    C4F14158   5.501   5.503   6.898 -0.5556 -0.2642 -0.4499
  131OSM    H4F14159   5.601   5.541   6.929  0.1364 -1.7950 -0.7220
  131OSM    H4G14160   5.514   5.398   6.864 -1.0283 -0.4057 -0.1957
  131OSM    C5F14161   5.407   5.528   7.015  0.3024  0.1551 -0.3010
  131OSM    H5F14162   5.303   5.501   6.988  1.1247 -2.1441 -1.3982
  131OSM    H5G14163   5.420   5.636   7.037  2.3275  0.0895 -1.0125
  131OSM    C6F14164   5.441   5.436   7.140  0.0195 -0.2363  1.0539
  131OSM    H6F14165   5.550   5.437   7.162 -0.1646  0.6805  1.9927
  131OSM    H6G14166   5.398   5.333   7.136  0.0920 -0.2912  1.6155
  131OSM    C7F14167   5.375   5.517   7.255  0.2482  0.1983  0.5963
  131OSM    H7F14168   5.269   5.537   7.227 -0.3920 -2.2137  1.0801
  131OSM    H7G14169   5.433   5.612   7.266  1.7267 -0.7539  1.3885
  131OSM    C8F14170   5.374   5.428   7.378 -0.2845  0.0398 -0.7992
  131OSM    H8F14171   5.481   5.406   7.401 -0.4826 -2.0347 -1.5993
  131OSM    H8G14172   5.328   5.332   7.344  0.6555 -0.5625 -0.4262
  131OSM    C9F14173   5.299   5.486   7.495 -0.7468  0.4601  0.0146
  131OSM    H9F14174   5.207   5.539   7.466 -0.4256  1.8443  1.3847
  131OSM   C10F14175   5.329   5.473   7.629 -0.3796  0.2088 -0.3509
  131OSM   H10F14176   5.264   5.525   7.701 -2.4122  0.3426 -2.1723
  131OSM   C11F14177   5.452   5.405   7.685  0.3818 -0.5516  0.5071
  131OSM   H11F14178   5.504   5.333   7.618  0.3536  0.6251 -0.8117
  131OSM   H11G14179   5.423   5.343   7.773  0.5203 -0.5277  0.5702
  131OSM   C12F14180   5.561   5.501   7.741  0.3179 -0.8940  0.2158
  131OSM   H12F14181   5.576   5.586   7.671  1.2338 -2.2630 -1.3412
  131OSM   H12G14182   5.656   5.445   7.753  1.3007  0.3569 -1.2846
  131OSM   C13F14183   5.532   5.546   7.887  0.4863  0.3573  0.4128
  131OSM   H13F14184   5.540   5.454   7.950  0.3821  0.1810  0.1699
  131OSM   H13G14185   5.425   5.576   7.887  0.1211 -0.8803  0.0087
  131OSM   C14F14186   5.618   5.668   7.927 -0.5322  0.3176 -0.1966
  131OSM   H14F14187   5.620   5.745   7.847 -3.2080  0.4976 -0.1821
  131OSM   H14G14188   5.722   5.630   7.923 -0.5812  0.0311  0.8178
  131OSM   C15F14189   5.609   5.721   8.069  0.2730  0.0455 -0.2827
  131OSM   H15F14190   5.666   5.646   8.128 -0.2549  0.6359  1.0229
  131OSM   H15G14191   5.504   5.717   8.106  0.3523 -1.4913 -0.1482
  131OSM   C16F14192   5.668   5.858   8.104 -0.4092 -0.7239  0.0976
  131OSM   H16F14193   5.633   5.940   8.037  1.8674  0.8528  0.7252
  131OSM   H16G14194   5.777   5.869   8.092 -0.6829 -1.1579 -4.9260
  131OSM   C17F14195   5.639   5.905   8.249  0.4681  0.2656  0.0112
  131OSM   H17F14196   5.531   5.928   8.261  0.6984  0.5534  1.8088
  131OSM   H17G14197   5.699   5.996   8.267  1.1059  0.1809 -1.5847
  131OSM   C18F14198   5.678   5.800   8.359 -0.0527  0.1736  0.1492
  131OSM   H18F14199   5.657   5.853   8.454  0.7867  2.1152 -0.7073
  131OSM   H18G14200   5.787   5.778   8.347  0.7111  2.6637  1.7475
  131OSM   H18H14201   5.612   5.711   8.357 -1.7648  1.3639  1.2573
  132OSM      N14202   5.684   1.411   5.833  0.1925  0.5219  0.1178
  132OSM    C1514203   5.799   1.493   5.815  0.1377 -0.2369 -0.1770
  132OSM   H15A14204   5.785   1.598   5.838 -1.9377 -0.7994  1.4721
  132OSM   H15B14205   5.842   1.493   5.716  2.8333 -2.0522  0.8668
  132OSM   H15C14206   5.881   1.459   5.876  1.7704  1.9880 -0.9869
  132OSM    C1414207   5.563   1.471   5.770  0.0891 -0.0552 -0.2251
  132OSM   H14A14208   5.528   1.561   5.818 -0.2320 -0.5703  0.5388
  132OSM   H14B14209   5.488   1.396   5.787  1.8718 -1.2870  3.5090
  132OSM   H14C14210   5.586   1.492   5.667  1.3092 -0.8562 -0.1400
  132OSM    C1314211   5.707   1.277   5.764  0.2017  0.3865  0.1269
  132OSM   H13A14212   5.795   1.226   5.800 -0.4174 -0.0154  1.1142
  132OSM   H13B14213   5.702   1.288   5.657 -1.8202 -2.8281 -0.2334
  132OSM   H13C14214   5.637   1.199   5.790  0.3849  0.4643  0.8698
  132OSM    C1214215   5.651   1.387   5.979 -0.2821 -0.1218 -0.4942
  132OSM   H12A14216   5.645   1.486   6.022  0.2092  0.4585 -1.7145
  132OSM   H12B14217   5.738   1.337   6.018  0.0646  0.9248  0.1188
  132OSM    C1114218   5.534   1.302   6.017  0.0195 -0.6053 -0.1168
  132OSM   H11A14219   5.551   1.257   6.117 -1.1582 -1.1081 -0.1277
  132OSM   H11B14220   5.520   1.210   5.957 -1.9716 -0.4045 -0.0114
  132OSM      P14221   5.355   1.492   6.087  0.1075 -0.2160 -0.2579
  132OSM    O1314222   5.358   1.608   5.996  0.4222 -0.3982  0.4540
  132OSM    O1414223   5.229   1.448   6.150  0.1153 -0.0369  0.0486
  132OSM    O1114224   5.471   1.516   6.196  0.2903  0.6861  0.0650
  132OSM    O1214225   5.408   1.368   6.009 -0.1125 -0.2676  0.5173
  132OSM    C1S14226   5.465   1.440   6.317 -0.1058 -0.1006 -0.6098
  132OSM    H1S14227   5.467   1.333   6.287  1.2684 -0.2632 -0.0272
  132OSM    H1T14228   5.382   1.470   6.385  2.4137 -1.2570  3.3421
  132OSM     NF14229   5.591   1.367   6.528  0.0361  0.0607  0.3640
  132OSM    HNF14230   5.553   1.388   6.617 -3.4953 -3.0315 -0.1999
  132OSM    C2S14231   5.587   1.467   6.418  0.1605 -0.1277 -0.2872
  132OSM    H2S14232   5.683   1.444   6.367  0.4379 -1.1454  0.6278
  132OSM    C3S14233   5.590   1.620   6.461  0.6123  0.1496  0.3549
  132OSM    H3S14234   5.495   1.650   6.510 -0.3280 -1.2557 -0.5176
  132OSM     O314235   5.600   1.708   6.348  0.2161 -0.2979 -0.3292
  132OSM    HO314236   5.587   1.642   6.279 -1.3970 -1.2653  0.8521
  132OSM    C4S14237   5.714   1.651   6.541  0.2621  0.3593 -0.5653
  132OSM    H4S14238   5.808   1.655   6.484  0.4206 -0.2884 -0.3601
  132OSM    C5S14239   5.710   1.686   6.671  0.2459 -0.2783  0.7977
  132OSM    H5S14240   5.614   1.698   6.721  0.4991  0.8140  1.0496
  132OSM    C6S14241   5.834   1.699   6.755 -0.2303  0.3903  0.4129
  132OSM    H6S14242   5.885   1.795   6.734 -0.6159  0.1953 -1.5682
  132OSM    H6T14243   5.903   1.615   6.731  0.2467  1.5654 -2.7232
  132OSM    C7S14244   5.800   1.686   6.903 -0.1826  0.4219 -0.1538
  132OSM    H7S14245   5.734   1.598   6.914 -2.0574  1.7210 -0.6008
  132OSM    H7T14246   5.755   1.773   6.955  2.3750  1.1820  0.9594
  132OSM    C8S14247   5.929   1.683   6.982  0.3918  0.9520 -0.1539
  132OSM    H8S14248   5.984   1.775   6.953  0.6112  1.2267  1.0850
  132OSM    H8T14249   5.994   1.606   6.936 -0.6857 -0.3844  0.4996
  132OSM    C9S14250   5.904   1.661   7.124  0.2977  0.2650 -0.7251
  132OSM    H9S14251   5.859   1.750   7.173 -2.3949 -0.8642 -0.9624
  132OSM    H9T14252   6.002   1.631   7.169  0.4331  0.1328 -1.0996
  132OSM   C10S14253   5.815   1.542   7.155  0.6721  0.1816 -0.1844
  132OSM   H10S14254   5.867   1.459   7.103 -1.7240 -0.4161 -1.7884
  132OSM   H10T14255   5.715   1.563   7.111 -0.6249  0.1484  2.5239
  132OSM   C11S14256   5.791   1.497   7.302  0.7062 -1.2149  0.4052
  132OSM   H11S14257   5.741   1.582   7.352 -0.9715 -1.3770 -0.9195
  132OSM   H11T14258   5.888   1.478   7.352  0.3782 -0.0791  1.5184
  132OSM   C12S14259   5.711   1.367   7.303 -0.2123  0.7588 -0.2995
  132OSM   H12S14260   5.777   1.283   7.274 -0.3853  0.4991  0.0548
  132OSM   H12T14261   5.632   1.364   7.224 -0.3796  1.2184 -0.1497
  132OSM   C13S14262   5.643   1.333   7.439 -0.3124  0.8577 -0.9096
  132OSM   H13S14263   5.565   1.254   7.437 -0.5795  1.0713  0.1900
  132OSM   H13T14264   5.604   1.435   7.459  1.8478  1.5719 -0.0425
  132OSM   C14S14265   5.744   1.319   7.556  0.2576 -1.0855  0.1226
  132OSM   H14S14266   5.845   1.355   7.527  1.5072 -2.5897  2.3039
  132OSM   H14T14267   5.763   1.210   7.563  0.4847 -0.9637  1.9537
  132OSM   C15S14268   5.711   1.392   7.687 -0.2556 -0.5009 -0.0499
  132OSM   H15S14269   5.732   1.499   7.666 -0.5514 -0.3841  0.2367
  132OSM   H15T14270   5.791   1.361   7.757 -0.7802 -2.1336 -0.1479
  132OSM   C16S14271   5.568   1.366   7.734  0.5080  0.0427 -0.0023
  132OSM   H16S14272   5.558   1.255   7.737  2.2605 -0.1296  0.9157
  132OSM   H16T14273   5.496   1.411   7.663  2.0230  0.4260 -1.3239
  132OSM   C17S14274   5.539   1.408   7.880  0.0701 -0.5332  0.1500
  132OSM   H17S14275   5.433   1.399   7.913  0.3343  1.8631  1.9428
  132OSM   H17T14276   5.562   1.517   7.880  0.5770 -0.5725 -2.4787
  132OSM   C18S14277   5.606   1.325   7.984  0.4931  0.5943  0.4921
  132OSM   H18S14278   5.716   1.332   7.972  0.8320 -1.2630  2.0268
  132OSM   H18T14279   5.580   1.220   7.960 -0.6431  1.0276 -0.2404
  132OSM   H18U14280   5.581   1.339   8.092  3.0333 -0.1121  1.2412
  132OSM    C1F14281   5.614   1.237   6.501 -0.6623 -0.4796 -0.6832
  132OSM     OF14282   5.642   1.189   6.390  0.0398  0.0981  0.2277
  132OSM    C2F14283   5.603   1.145   6.614 -0.2720 -0.2119  0.1982
  132OSM    H2F14284   5.506   1.092   6.618 -0.5234  0.2733  0.6816
  132OSM    H2G14285   5.626   1.219   6.694 -0.1038  0.9473 -0.8782
  132OSM    C3F14286   5.713   1.033   6.620  0.2563 -0.1927 -0.1483
  132OSM    H3F14287   5.814   1.077   6.604  0.3246 -0.6950 -1.1491
  132OSM    H3G14288   5.695   0.954   6.544  1.5866 -0.7296  0.0623
  132OSM    C4F14289   5.716   0.949   6.752 -0.2462 -0.6368 -1.0084
  132OSM    H4F14290   5.785   0.863   6.739  0.9438  0.4650 -2.2665
  132OSM    H4G14291   5.612   0.913   6.766  0.1878 -1.6764 -0.3110
  132OSM    C5F14292   5.763   1.032   6.874 -0.4053 -0.4762  0.6069
  132OSM    H5F14293   5.709   1.127   6.891  2.3500  1.0058  1.6517
  132OSM    H5G14294   5.869   1.060   6.861 -0.3835 -0.3437  1.0936
  132OSM    C6F14295   5.763   0.952   7.002  0.1121  0.1496 -0.2054
  132OSM    H6F14296   5.840   0.872   7.007 -1.2269 -1.1120  1.5839
  132OSM    H6G14297   5.665   0.906   7.027  1.6226 -1.2858  4.0907
  132OSM    C7F14298   5.809   1.042   7.126 -0.1764  0.1361  0.0110
  132OSM    H7F14299   5.733   1.022   7.204  0.6774 -0.5325  0.6912
  132OSM    H7G14300   5.819   1.150   7.101  1.6039  0.0372  0.1242
  132OSM    C8F14301   5.942   0.988   7.183 -0.1245 -0.6277 -0.5054
  132OSM    H8F14302   6.020   0.993   7.104 -1.7839  3.8149 -2.2165
  132OSM    H8G14303   5.920   0.885   7.218 -3.4246 -0.0215 -0.4638
  132OSM    C9F14304   5.986   1.092   7.290  0.0006  0.2487 -0.0494
  132OSM    H9F14305   5.974   1.192   7.245 -0.6796  0.3583  0.3570
  132OSM   C10F14306   6.043   1.073   7.408  0.2478  0.2829 -0.1107
  132OSM   H10F14307   6.064   1.159   7.473 -1.1990  1.6397 -1.3612
  132OSM   C11F14308   6.076   0.938   7.462 -0.2981  0.0251 -0.4790
  132OSM   H11F14309   6.093   0.867   7.379 -1.2946 -0.9502  0.1188
  132OSM   H11G14310   5.992   0.893   7.520 -0.3427 -0.0709 -0.6179
  132OSM   C12F14311   6.203   0.931   7.541 -0.2952 -0.3165  0.0773
  132OSM   H12F14312   6.298   0.964   7.493 -1.4670  2.6556 -0.4671
  132OSM   H12G14313   6.229   0.825   7.562  1.1368 -0.0017  0.0513
  132OSM   C13F14314   6.201   1.022   7.666 -0.5740 -1.0453 -0.0256
  132OSM   H13F14315   6.097   1.042   7.697  0.3337  1.0132  1.9453
  132OSM   H13G14316   6.240   1.123   7.642 -2.1340  0.1644  2.2021
  132OSM   C14F14317   6.269   0.983   7.797 -0.0691  0.4822  0.0100
  132OSM   H14F14318   6.256   1.068   7.867 -3.0301  1.2654 -1.3282
  132OSM   H14G14319   6.379   0.972   7.782  0.1042  1.7513  0.2241
  132OSM   C15F14320   6.203   0.861   7.856 -0.0297  0.6809 -0.4378
  132OSM   H15F14321   6.225   0.781   7.782 -0.7068  0.7388 -0.7033
  132OSM   H15G14322   6.094   0.878   7.855 -0.5945 -2.4167 -2.2859
  132OSM   C16F14323   6.252   0.813   7.994  0.4277 -0.6535 -0.0093
  132OSM   H16F14324   6.246   0.905   8.055 -1.8882  1.4945 -3.1816
  132OSM   H16G14325   6.360   0.787   7.989  0.7066  0.4908 -0.1791
  132OSM   C17F14326   6.161   0.706   8.053 -0.7023 -0.9237 -0.2463
  132OSM   H17F14327   6.169   0.617   7.987  1.5840 -1.4704  0.6532
  132OSM   H17G14328   6.055   0.740   8.050 -0.4152  0.1156  0.8479
  132OSM   C18F14329   6.204   0.654   8.195  0.4267 -0.0690  0.7292
  132OSM   H18F14330   6.226   0.730   8.274  1.3329  2.2212 -1.5813
  132OSM   H18G14331   6.291   0.589   8.173  0.1120 -0.3521  0.3184
  132OSM   H18H14332   6.124   0.588   8.234  0.4171 -0.3918  0.1587
  133OSM      N14333   0.312   6.086   6.198  0.1219 -0.0637 -0.7571
  133OSM    C1514334   0.372   5.948   6.224  0.5940 -0.5531  0.3868
  133OSM   H15A14335   0.479   5.936   6.213  0.7263  0.6410  0.2138
  133OSM   H15B14336   0.327   5.887   6.148 -0.7483 -1.0604  1.5508
  133OSM   H15C14337   0.337   5.901   6.315 -1.3975  0.8016  0.3872
  133OSM    C1414338   0.361   6.176   6.309  0.5247 -0.6216  0.0032
  133OSM   H14A14339   0.329   6.277   6.291  3.5064  0.9503  2.5176
  133OSM   H14B14340   0.469   6.172   6.303  0.4722 -0.0094 -1.7822
  133OSM   H14C14341   0.329   6.147   6.409  1.1564 -0.4594  0.2567
  133OSM    C1314342   0.365   6.142   6.076  0.2097 -0.5956 -0.2125
  133OSM   H13A14343   0.353   6.249   6.063  2.5127 -0.3194 -0.5472
  133OSM   H13B14344   0.330   6.106   5.980 -0.6305 -0.5227  0.0544
  133OSM   H13C14345   0.472   6.133   6.076  0.3423  0.5084  1.6170
  133OSM    C1214346   0.156   6.066   6.193 -0.1965  0.0712 -0.1363
  133OSM   H12A14347   0.130   6.171   6.188  1.9409  0.5985 -3.6303
  133OSM   H12B14348   0.126   6.026   6.288  2.0397 -0.0619  0.5693
  133OSM    C1114349   0.111   5.979   6.076  0.1000 -0.2832  0.0223
  133OSM   H11A14350   0.180   5.976   5.990  0.9425 -3.6379  0.6752
  133OSM   H11B14351   0.007   6.005   6.046  0.4407  0.9667 -0.1337
  133OSM      P14352   0.021   5.776   6.224  0.1598  0.3843 -0.0452
  133OSM    O1314353  -0.124   5.787   6.188  0.4060 -0.6170  0.1986
  133OSM    O1414354   0.073   5.639   6.256  0.2329  0.2883 -0.3083
  133OSM    O1114355   0.049   5.864   6.353  0.2124  0.1238 -0.5947
  133OSM    O1214356   0.115   5.838   6.114 -0.6389 -0.5594  0.4445
  133OSM    C1S14357  -0.046   5.856   6.465 -0.0232 -0.2428  0.1194
  133OSM    H1S14358  -0.105   5.762   6.476  2.0696 -1.5470  0.7406
  133OSM    H1T14359  -0.127   5.932   6.452  0.4667  0.0024 -1.7560
  133OSM     NF14360  -0.087   5.889   6.696  0.5756 -0.6280 -0.7325
  133OSM    HNF14361  -0.129   5.973   6.729  0.8451 -1.1656  1.0951
  133OSM    C2S14362   0.023   5.888   6.603 -0.7351 -0.2979  0.1605
  133OSM    H2S14363   0.087   5.800   6.625  0.1170  0.5037  0.9722
  133OSM    C3S14364   0.117   6.011   6.597  0.1376  0.2214  0.4125
  133OSM    H3S14365   0.063   6.086   6.534 -2.2699  0.5193  2.6643
  133OSM     O314366   0.255   5.997   6.545  0.3846  0.0455 -0.4094
  133OSM    HO314367   0.250   5.903   6.526 -2.1705  0.0434 -0.1093
  133OSM    C4S14368   0.135   6.065   6.727 -0.3079 -0.2781  0.1400
  133OSM    H4S14369   0.218   6.018   6.782  1.6641  0.8572 -1.7108
  133OSM    C5S14370   0.105   6.186   6.771  0.2763 -0.2693  0.2221
  133OSM    H5S14371   0.049   6.259   6.711  0.9646  1.4939  1.6232
  133OSM    C6S14372   0.166   6.252   6.894  0.1172 -0.2959  0.0305
  133OSM    H6S14373   0.089   6.291   6.964  1.0928  1.4026  0.2073
  133OSM    H6T14374   0.218   6.343   6.858 -1.1936 -0.0397 -1.2769
  133OSM    C7S14375   0.275   6.173   6.976 -0.1458  0.2174 -0.8186
  133OSM    H7S14376   0.361   6.153   6.908  1.1430 -2.4521  1.4216
  133OSM    H7T14377   0.222   6.081   7.011  0.6261 -0.6306 -1.8228
  133OSM    C8S14378   0.324   6.247   7.091  0.1549 -0.3643  0.4032
  133OSM    H8S14379   0.244   6.265   7.166  2.8556  2.0483  2.9547
  133OSM    H8T14380   0.350   6.352   7.063  1.3629 -0.6512  0.4039
  133OSM    C9S14381   0.451   6.187   7.152  0.1012  0.5333  0.2078
  133OSM    H9S14382   0.532   6.179   7.076  1.3040 -0.4938  1.5378
  133OSM    H9T14383   0.429   6.085   7.190  1.8569 -0.0832 -0.3353
  133OSM   C10S14384   0.501   6.263   7.280  0.3561  0.3069 -0.0366
  133OSM   H10S14385   0.424   6.293   7.353  3.5213  0.5020  3.5201
  133OSM   H10T14386   0.555   6.357   7.257 -0.0328  0.7341  0.7710
  133OSM   C11S14387   0.616   6.195   7.347 -0.2910  0.1161  0.3745
  133OSM   H11S14388   0.695   6.170   7.272  0.0345 -1.8729  1.2972
  133OSM   H11T14389   0.589   6.095   7.386 -1.8746  0.3532 -0.0344
  133OSM   C12S14390   0.686   6.277   7.453 -0.0813 -0.1117  0.0208
  133OSM   H12S14391   0.702   6.382   7.422 -1.0154  0.2366  0.6992
  133OSM   H12T14392   0.791   6.241   7.458  0.3577  1.2914  1.6223
  133OSM   C13S14393   0.622   6.269   7.598  0.4241  0.0748  0.5783
  133OSM   H13S14394   0.610   6.161   7.618 -0.2132 -0.2244 -1.2477
  133OSM   H13T14395   0.517   6.305   7.599 -0.0456 -1.0811 -1.4934
  133OSM   C14S14396   0.689   6.357   7.705  0.5404  0.0488  0.1873
  133OSM   H14S14397   0.675   6.461   7.670 -1.0823 -0.3075 -0.3072
  133OSM   H14T14398   0.796   6.330   7.708  0.4446 -0.5194 -1.1856
  133OSM   C15S14399   0.628   6.335   7.839  0.5762 -0.1297  0.4966
  133OSM   H15S14400   0.666   6.244   7.891  0.4968 -0.1364  0.5430
  133OSM   H15T14401   0.520   6.316   7.821  1.1722 -2.0610 -1.6010
  133OSM   C16S14402   0.687   6.451   7.931  0.5514 -0.3846 -0.3126
  133OSM   H16S14403   0.679   6.553   7.886 -1.7206  0.4256  1.6909
  133OSM   H16T14404   0.796   6.434   7.935  1.0603  2.5625  2.7768
  133OSM   C17S14405   0.638   6.449   8.078 -0.4000  0.1477  0.3768
  133OSM   H17S14406   0.696   6.530   8.126  1.6398  1.1770 -3.3996
  133OSM   H17T14407   0.678   6.361   8.134  0.4506  1.2751  1.5952
  133OSM   C18S14408   0.486   6.463   8.098  0.1270 -0.0227  0.2152
  133OSM   H18S14409   0.455   6.563   8.060 -1.1085  0.1278  1.5384
  133OSM   H18T14410   0.458   6.463   8.205  0.1195  2.5857  0.2878
  133OSM   H18U14411   0.433   6.381   8.046  0.9574  0.2131 -1.0467
  133OSM    C1F14412  -0.156   5.787   6.741  0.5432 -0.0521 -0.3474
  133OSM     OF14413  -0.123   5.670   6.720 -0.3151 -0.2372 -0.8391
  133OSM    C2F14414  -0.278   5.824   6.827 -0.4597  0.2367  0.2229
  133OSM    H2F14415  -0.336   5.902   6.773 -0.9375 -0.4865 -0.3333
  133OSM    H2G14416  -0.241   5.861   6.925  0.5453  0.1188 -0.1031
  133OSM    C3F14417  -0.371   5.703   6.845  0.0460 -1.0639 -0.0531
  133OSM    H3F14418  -0.315   5.609   6.859  1.4021 -0.4789 -1.3668
  133OSM    H3G14419  -0.443   5.683   6.763 -0.7382  0.8713  0.1096
  133OSM    C4F14420  -0.458   5.723   6.969  0.0091  0.4223  0.8177
  133OSM    H4F14421  -0.556   5.670   6.966  1.0205 -1.5826  1.7234
  133OSM    H4G14422  -0.479   5.830   6.994  0.7070  0.2861  2.0885
  133OSM    C5F14423  -0.386   5.673   7.103  0.0234  0.5880  0.2193
  133OSM    H5F14424  -0.301   5.740   7.129  1.2514 -0.4591 -0.9352
  133OSM    H5G14425  -0.356   5.569   7.078  0.6577  0.5415  1.1288
  133OSM    C6F14426  -0.477   5.665   7.230 -0.3788 -0.2713  1.1115
  133OSM    H6F14427  -0.550   5.584   7.212 -0.1369 -0.0305 -1.2604
  133OSM    H6G14428  -0.533   5.759   7.251  0.6863  0.1988  2.0014
  133OSM    C7F14429  -0.397   5.633   7.361  0.4183 -0.0506 -0.4204
  133OSM    H7F14430  -0.297   5.681   7.359  0.6013 -0.4109  0.0323
  133OSM    H7G14431  -0.365   5.527   7.355 -0.0177 -0.1118 -2.3189
  133OSM    C8F14432  -0.473   5.663   7.491  0.0751 -0.5320  0.0803
  133OSM    H8F14433  -0.558   5.591   7.494 -1.5377  0.9889 -3.5505
  133OSM    H8G14434  -0.521   5.763   7.482  1.2959  0.1825  1.1426
  133OSM    C9F14435  -0.382   5.662   7.614 -0.6505 -0.1642 -0.0281
  133OSM    H9F14436  -0.284   5.710   7.606 -0.1414 -1.4612 -2.9621
  133OSM   C10F14437  -0.396   5.578   7.719  0.6364  0.4350  0.9893
  133OSM   H10F14438  -0.323   5.578   7.802  0.6049 -4.2013  1.2591
  133OSM   C11F14439  -0.524   5.495   7.736 -0.9998 -0.3832 -1.2472
  133OSM   H11F14440  -0.500   5.394   7.698  2.6451  0.4670 -1.5950
  133OSM   H11G14441  -0.604   5.531   7.668 -0.0117  1.1137 -1.6727
  133OSM   C12F14442  -0.575   5.492   7.881  0.4851  0.8218 -0.3855
  133OSM   H12F14443  -0.501   5.433   7.939  0.3542 -0.4874 -1.4845
  133OSM   H12G14444  -0.669   5.432   7.884  1.7758 -1.2759 -0.0485
  133OSM   C13F14445  -0.593   5.631   7.937  0.3232 -0.1249  0.0400
  133OSM   H13F14446  -0.654   5.695   7.870  1.3004 -0.3419 -1.0748
  133OSM   H13G14447  -0.496   5.681   7.955 -0.9891  1.4663  3.5147
  133OSM   C14F14448  -0.650   5.634   8.075  0.7107 -0.2194 -0.2196
  133OSM   H14F14449  -0.608   5.560   8.146  2.0813 -0.2080 -0.9739
  133OSM   H14G14450  -0.758   5.612   8.061  1.2119 -2.3251 -1.1906
  133OSM   C15F14451  -0.631   5.773   8.144 -0.5099 -0.5965 -0.6720
  133OSM   H15F14452  -0.723   5.793   8.202 -0.1229  0.0288 -0.2623
  133OSM   H15G14453  -0.616   5.854   8.069 -0.6147 -0.5403 -0.6331
  133OSM   C16F14454  -0.509   5.767   8.241  0.0816  0.0896 -0.0780
  133OSM   H16F14455  -0.420   5.756   8.174 -0.4725 -2.3777 -0.5283
  133OSM   H16G14456  -0.509   5.673   8.300 -3.2745  0.7563  1.1930
  133OSM   C17F14457  -0.479   5.879   8.347  0.6234 -0.5571 -0.2817
  133OSM   H17F14458  -0.398   5.831   8.407 -0.6057 -0.6978  1.3329
  133OSM   H17G14459  -0.571   5.892   8.408 -0.7327 -1.4922 -2.0088
  133OSM   C18F14460  -0.431   6.009   8.279  0.4858 -0.3053  0.5946
  133OSM   H18F14461  -0.509   6.040   8.206  0.4572 -1.6833  0.0181
  133OSM   H18G14462  -0.339   5.994   8.219 -1.0944  0.3161 -2.1818
  133OSM   H18H14463  -0.439   6.088   8.357  1.2916 -0.9473  1.3423
  134OSM      N14464   0.178   2.626   6.041 -0.3802  0.5768 -0.5012
  134OSM    C1514465   0.084   2.740   6.023 -0.3645 -0.4376  0.6699
  134OSM   H15A14466   0.054   2.771   6.122  1.4272 -0.7692  1.3438
  134OSM   H15B14467  -0.002   2.711   5.964  0.6742  0.2472 -1.2493
  134OSM   H15C14468   0.130   2.822   5.970 -2.0092  0.0916 -0.0184
  134OSM    C1414469   0.106   2.516   6.113 -0.3077  0.1685 -0.3640
  134OSM   H14A14470   0.020   2.482   6.056  1.0510 -2.0905 -1.2105
  134OSM   H14B14471   0.078   2.549   6.212  0.0372 -1.4219  0.3013
  134OSM   H14C14472   0.171   2.430   6.122 -0.6415 -0.0329  0.1616
  134OSM    C1314473   0.224   2.577   5.908 -0.1272  0.8444  1.2893
  134OSM   H13A14474   0.272   2.651   5.845  0.0821 -0.3936 -0.0577
  134OSM   H13B14475   0.150   2.533   5.843  1.7128  0.0719 -0.4023
  134OSM   H13C14476   0.291   2.493   5.921 -0.3052  0.4526 -0.1407
  134OSM    C1214477   0.295   2.683   6.121  0.7484 -0.0324 -0.4773
  134OSM   H12A14478   0.342   2.768   6.072  0.9509  1.5008  2.1668
  134OSM   H12B14479   0.373   2.608   6.127  0.9710  0.2143 -0.2525
  134OSM    C1114480   0.265   2.743   6.258  0.4569 -0.3402 -0.6683
  134OSM   H11A14481   0.361   2.759   6.312 -0.3946  0.9231  0.5570
  134OSM   H11B14482   0.208   2.668   6.318  0.5192  1.0080  1.1751
  134OSM      P14483   0.234   3.008   6.231 -0.0811  0.0003 -0.4274
  134OSM    O1314484   0.237   3.017   6.085 -0.3599  0.4550 -0.1483
  134OSM    O1414485   0.157   3.102   6.310  0.0083 -0.6556 -0.4154
  134OSM    O1114486   0.387   3.014   6.281 -0.1608  0.3469 -0.1381
  134OSM    O1214487   0.182   2.864   6.259  0.2866  0.4688 -0.1085
  134OSM    C1S14488   0.433   3.000   6.411 -0.0448 -0.2188  0.5288
  134OSM    H1S14489   0.406   2.900   6.452  1.0176 -0.6094  0.2873
  134OSM    H1T14490   0.370   3.058   6.482 -1.7716 -2.1456  0.6949
  134OSM     NF14491   0.613   3.010   6.571 -0.6941  0.5109  0.3061
  134OSM    HNF14492   0.615   3.090   6.630 -0.2257 -0.1692  1.2568
  134OSM    C2S14493   0.582   3.029   6.433  0.0788 -0.9077  0.4287
  134OSM    H2S14494   0.632   2.951   6.371  1.0686 -1.4180  1.8174
  134OSM    C3S14495   0.623   3.163   6.370 -0.0792  0.4479  0.3283
  134OSM    H3S14496   0.568   3.246   6.420 -0.4468  0.3470  0.0950
  134OSM     O314497   0.579   3.183   6.235  0.0059  0.6078 -0.3106
  134OSM    HO314498   0.510   3.118   6.220  1.3587 -0.7976 -0.7022
  134OSM    C4S14499   0.771   3.170   6.384 -0.4185 -0.0181 -0.5993
  134OSM    H4S14500   0.826   3.096   6.324  1.3480  0.9203 -0.1814
  134OSM    C5S14501   0.838   3.257   6.459 -0.0900 -0.0956  0.1185
  134OSM    H5S14502   0.787   3.335   6.518  0.8481  0.4967  0.1626
  134OSM    C6S14503   0.986   3.258   6.490  0.2678 -0.8859  0.3295
  134OSM    H6S14504   1.004   3.366   6.507  0.1404 -0.5031 -1.6562
  134OSM    H6T14505   1.048   3.214   6.408  2.1173  1.5246  0.3134
  134OSM    C7S14506   1.005   3.168   6.614 -0.4821  0.8285 -0.2081
  134OSM    H7S14507   1.113   3.146   6.629 -0.3245  2.8663  2.3555
  134OSM    H7T14508   0.951   3.072   6.608  0.6917 -0.0309  1.9661
  134OSM    C8S14509   0.960   3.232   6.747  0.1834 -0.5070  0.2058
  134OSM    H8S14510   0.854   3.255   6.723  0.4869  1.4170  0.5391
  134OSM    H8T14511   1.009   3.331   6.755 -1.8905  0.5611  0.3616
  134OSM    C9S14512   0.981   3.145   6.870 -0.4454 -0.1139 -1.8538
  134OSM    H9S14513   1.079   3.092   6.863  0.2945  1.0126 -0.3710
  134OSM    H9T14514   0.915   3.056   6.864 -2.0663  0.9272 -0.2257
  134OSM   C10S14515   0.950   3.209   7.008 -0.6470  0.4561 -0.2649
  134OSM   H10S14516   0.849   3.256   7.005 -1.8849 -1.7760  2.2802
  134OSM   H10T14517   1.019   3.292   7.034  0.7446 -0.2062 -1.6404
  134OSM   C11S14518   0.961   3.105   7.129 -0.1083  0.0059 -0.1044
  134OSM   H11S14519   1.067   3.069   7.128 -0.8262 -2.7578  3.3421
  134OSM   H11T14520   0.890   3.021   7.117 -0.9080  0.7994 -1.0682
  134OSM   C12S14521   0.921   3.153   7.262  0.0459 -0.3004 -0.0827
  134OSM   H12S14522   0.812   3.170   7.258  0.0110 -0.3609  0.5394
  134OSM   H12T14523   0.979   3.247   7.273  1.5418 -1.1301 -0.5752
  134OSM   C13S14524   0.946   3.053   7.377  0.3760 -0.4139  0.3866
  134OSM   H13S14525   1.053   3.020   7.380  0.4774 -0.0145  2.6405
  134OSM   H13T14526   0.894   2.957   7.356  0.9763 -0.5769 -0.4122
  134OSM   C14S14527   0.900   3.098   7.514  0.2091  0.3447  0.2052
  134OSM   H14S14528   0.797   3.141   7.513 -0.3292 -0.6988  3.0238
  134OSM   H14T14529   0.969   3.177   7.550  1.2102 -0.3779 -0.1039
  134OSM   C15S14530   0.898   2.985   7.617  0.0453 -0.1013  0.0391
  134OSM   H15S14531   0.999   2.938   7.624  0.9489  1.6187 -0.7825
  134OSM   H15T14532   0.822   2.908   7.591  0.2327 -0.0024 -0.8458
  134OSM   C16S14533   0.873   3.047   7.751  0.0227  0.1312 -0.4237
  134OSM   H16S14534   0.787   3.118   7.741 -2.1580 -2.2255  0.4388
  134OSM   H16T14535   0.966   3.102   7.778  0.0108  0.4673 -1.0468
  134OSM   C17S14536   0.825   2.951   7.858 -0.3093  0.1999 -0.7492
  134OSM   H17S14537   0.898   2.867   7.862 -1.5906 -0.9557 -1.0220
  134OSM   H17T14538   0.724   2.914   7.831 -0.8487  0.0826  1.2588
  134OSM   C18S14539   0.829   3.007   7.998 -0.0640  0.2880  0.0932
  134OSM   H18S14540   0.800   3.114   8.003 -0.6110  0.0963  1.6266
  134OSM   H18T14541   0.932   3.004   8.040 -0.4699  0.0363  1.1222
  134OSM   H18U14542   0.773   2.939   8.066  1.0570 -0.7234  0.0454
  134OSM    C1F14543   0.628   2.890   6.621  0.2280  0.5122 -0.2368
  134OSM     OF14544   0.637   2.798   6.544  0.1021 -0.1630  0.0631
  134OSM    C2F14545   0.632   2.867   6.773 -0.0740 -0.6710  0.5517
  134OSM    H2F14546   0.534   2.892   6.819 -1.9942 -0.2123 -3.3426
  134OSM    H2G14547   0.702   2.938   6.821 -1.7546 -0.5018  2.9198
  134OSM    C3F14548   0.677   2.725   6.804  0.1559  0.1948 -0.2425
  134OSM    H3F14549   0.774   2.704   6.753  1.7724  2.1197  1.7727
  134OSM    H3G14550   0.601   2.652   6.770 -1.8456  1.0316  2.1311
  134OSM    C4F14551   0.712   2.719   6.951  0.2351 -0.8527  0.2270
  134OSM    H4F14552   0.630   2.773   7.003  0.5776  1.3306 -1.3832
  134OSM    H4G14553   0.809   2.767   6.975 -0.1841 -0.5124  1.3190
  134OSM    C5F14554   0.730   2.581   7.007 -0.6398 -0.5068  0.5628
  134OSM    H5F14555   0.831   2.553   6.968 -0.5794 -0.2220  0.5076
  134OSM    H5G14556   0.647   2.517   6.973  0.0083 -2.4944  2.4761
  134OSM    C6F14557   0.731   2.583   7.162 -0.3324 -0.2419 -0.3813
  134OSM    H6F14558   0.700   2.482   7.198  1.8912 -1.4094 -1.5992
  134OSM    H6G14559   0.658   2.656   7.202  1.5992  1.3088  0.4586
  134OSM    C7F14560   0.860   2.648   7.222  0.1862 -0.5921 -0.5636
  134OSM    H7F14561   0.869   2.754   7.187 -0.6294 -0.7656 -1.3434
  134OSM    H7G14562   0.951   2.608   7.173  0.3475 -0.0172 -0.7521
  134OSM    C8F14563   0.853   2.662   7.379 -1.3586  0.4432 -0.4208
  134OSM    H8F14564   0.784   2.741   7.414 -0.2986  1.6918 -1.0662
  134OSM    H8G14565   0.959   2.696   7.384 -0.7291 -1.1379 -1.9276
  134OSM    C9F14566   0.828   2.540   7.454  0.1121  0.1405  0.2138
  134OSM    H9F14567   0.883   2.458   7.406 -0.1561 -1.2748  2.2435
  134OSM   C10F14568   0.759   2.517   7.567 -0.1636 -0.0680  0.8231
  134OSM   H10F14569   0.771   2.415   7.605  5.0158  0.0744  0.2303
  134OSM   C11F14570   0.685   2.617   7.648  0.2192  0.2247  0.0105
  134OSM   H11F14571   0.580   2.630   7.612  0.2973  1.6444  0.2256
  134OSM   H11G14572   0.728   2.718   7.629  3.5135 -1.0027  0.3451
  134OSM   C12F14573   0.678   2.583   7.795  0.3601 -0.4959 -0.3097
  134OSM   H12F14574   0.623   2.489   7.817  0.8648 -1.0640 -1.3660
  134OSM   H12G14575   0.614   2.654   7.851  0.7108 -0.2838 -0.1752
  134OSM   C13F14576   0.816   2.569   7.856 -0.0971  0.6289 -0.2781
  134OSM   H13F14577   0.869   2.667   7.853  0.9215  0.1080  0.1210
  134OSM   H13G14578   0.876   2.490   7.806  2.2606  0.8982  1.8987
  134OSM   C14F14579   0.803   2.532   8.005  0.7952 -0.5701 -0.1047
  134OSM   H14F14580   0.906   2.551   8.043  0.8221  2.0285 -1.2672
  134OSM   H14G14581   0.782   2.424   8.022 -1.3995 -0.2360 -0.4924
  134OSM   C15F14582   0.700   2.601   8.095  0.7155  0.5486  0.5617
  134OSM   H15F14583   0.604   2.583   8.043  0.1788  2.1741  0.9540
  134OSM   H15G14584   0.713   2.709   8.076 -2.3135  1.0834  1.0293
  134OSM   C16F14585   0.683   2.551   8.238 -0.3648 -0.3341 -0.5102
  134OSM   H16F14586   0.646   2.446   8.232  0.6820 -0.7064 -0.6716
  134OSM   H16G14587   0.603   2.601   8.297 -1.1326 -1.3418 -0.6717
  134OSM   C17F14588   0.812   2.531   8.323 -0.4801 -0.3005 -0.0436
  134OSM   H17F14589   0.800   2.568   8.427  0.4513 -1.0484  0.3468
  134OSM   H17G14590   0.894   2.590   8.276  0.2284 -0.8176  0.5207
  134OSM   C18F14591   0.867   2.383   8.329 -0.3965 -0.5117  0.0493
  134OSM   H18F14592   0.949   2.378   8.404  0.1896  0.5809 -0.4970
  134OSM   H18G14593   0.915   2.358   8.232 -0.6936  1.3364 -0.6120
  134OSM   H18H14594   0.792   2.312   8.368 -1.1577  0.5109  0.4880
  135OSM      N14595   1.662   4.328   6.053  0.3111  0.3547 -0.1310
  135OSM    C1514596   1.623   4.469   6.020 -0.1483 -0.2229  0.3262
  135OSM   H15A14597   1.560   4.469   5.932  0.2173 -0.6071  0.0568
  135OSM   H15B14598   1.710   4.533   6.010  0.4373 -0.7865  1.5682
  135OSM   H15C14599   1.561   4.508   6.099 -3.2530 -0.3035 -1.8900
  135OSM    C1414600   1.543   4.248   6.035 -0.6359 -0.1531 -0.2815
  135OSM   H14A14601   1.504   4.263   5.936 -0.5953 -0.6706 -0.3812
  135OSM   H14B14602   1.470   4.268   6.112 -0.5417 -2.2535  0.4446
  135OSM   H14C14603   1.565   4.142   6.037  0.9181  0.1174  2.5708
  135OSM    C1314604   1.763   4.287   5.954 -0.7749 -0.3208  0.5250
  135OSM   H13A14605   1.798   4.185   5.962 -0.8405 -0.3236  0.7867
  135OSM   H13B14606   1.838   4.365   5.956 -0.8582 -0.2377  2.7574
  135OSM   H13C14607   1.711   4.287   5.860  2.7767 -0.8438 -1.5999
  135OSM    C1214608   1.709   4.315   6.201  1.2440 -0.1910  0.7150
  135OSM   H12A14609   1.798   4.373   6.219  1.1646  0.1314  0.0921
  135OSM   H12B14610   1.724   4.210   6.216 -1.0476 -0.9748 -1.6891
  135OSM    C1114611   1.609   4.362   6.312 -0.0656 -0.5768  0.2673
  135OSM   H11A14612   1.637   4.326   6.414  3.0431 -1.0508 -0.6444
  135OSM   H11B14613   1.514   4.309   6.289  0.6203 -0.8538 -2.1460
  135OSM      P14614   1.700   4.605   6.365  0.0105 -0.3922  0.2234
  135OSM    O1314615   1.830   4.592   6.295  0.4106 -0.4817 -0.0876
  135OSM    O1414616   1.649   4.740   6.366  0.2385  0.4857  0.4534
  135OSM    O1114617   1.719   4.561   6.515  0.6337 -0.6921  0.3311
  135OSM    O1214618   1.597   4.503   6.304  0.4286 -0.2377 -0.5799
  135OSM    C1S14619   1.618   4.584   6.612  0.0276 -0.0673 -0.6881
  135OSM    H1S14620   1.520   4.614   6.571  0.1741  1.6881  0.1717
  135OSM    H1T14621   1.658   4.654   6.689 -1.9861 -1.1962  1.5231
  135OSM     NF14622   1.504   4.489   6.809  0.2784 -0.0759 -0.2059
  135OSM    HNF14623   1.528   4.504   6.904  0.2354 -1.0869 -0.0298
  135OSM    C2S14624   1.599   4.454   6.704 -0.5617 -0.5018  0.0159
  135OSM    H2S14625   1.572   4.369   6.639  2.6039 -1.3622 -0.3203
  135OSM    C3S14626   1.739   4.424   6.770  0.7698  0.4739 -0.0414
  135OSM    H3S14627   1.770   4.517   6.822  1.7615 -0.0833  0.3822
  135OSM     O314628   1.846   4.396   6.686  0.0853  0.0553 -0.5433
  135OSM    HO314629   1.820   4.411   6.595  0.4568  0.0688 -0.6505
  135OSM    C4S14630   1.722   4.311   6.875 -0.2001 -0.0338  0.9890
  135OSM    H4S14631   1.717   4.348   6.979 -0.0235  0.8437  0.6974
  135OSM    C5S14632   1.725   4.176   6.845  0.6962 -0.0493  0.0213
  135OSM    H5S14633   1.751   4.143   6.743  1.9728  0.7402  0.0662
  135OSM    C6S14634   1.716   4.062   6.946 -0.3220 -0.3760  0.7797
  135OSM    H6S14635   1.819   4.023   6.963  0.5089  1.5192  0.2842
  135OSM    H6T14636   1.681   3.973   6.890 -0.1180 -0.3614  0.6270
  135OSM    C7S14637   1.634   4.085   7.079  0.1970 -0.1755 -0.0112
  135OSM    H7S14638   1.570   3.998   7.105 -1.0835  1.4518  2.8033
  135OSM    H7T14639   1.561   4.166   7.061  1.2090  0.5310 -1.0670
  135OSM    C8S14640   1.730   4.107   7.192 -0.0990  0.3922  0.2202
  135OSM    H8S14641   1.765   4.212   7.205  2.2986 -0.2643 -0.4408
  135OSM    H8T14642   1.821   4.043   7.183  0.1413  0.6505  0.7678
  135OSM    C9S14643   1.665   4.073   7.331 -0.0916  0.0026  0.2144
  135OSM    H9S14644   1.647   3.965   7.353 -0.8612  0.2228  0.7115
  135OSM    H9T14645   1.569   4.129   7.338  0.0679  0.3748 -0.4889
  135OSM   C10S14646   1.756   4.127   7.448 -0.1039 -0.0627 -0.4069
  135OSM   H10S14647   1.777   4.230   7.410 -0.2600 -0.8609 -2.8204
  135OSM   H10T14648   1.852   4.072   7.456  0.5685  0.9346 -1.1943
  135OSM   C11S14649   1.688   4.129   7.583 -0.2756  0.0337  0.2895
  135OSM   H11S14650   1.584   4.168   7.579 -0.0580  0.6129  0.2699
  135OSM   H11T14651   1.753   4.177   7.659  1.1763  0.9333 -1.4648
  135OSM   C12S14652   1.666   3.988   7.642 -0.2100 -0.3982  0.6206
  135OSM   H12S14653   1.763   3.933   7.639  0.6424  1.1100 -1.4837
  135OSM   H12T14654   1.613   3.931   7.562  2.0577  1.1867 -2.2024
  135OSM   C13S14655   1.614   3.973   7.784  0.5669  0.1512  1.4243
  135OSM   H13S14656   1.688   4.021   7.852 -0.8149  1.1865  2.2418
  135OSM   H13T14657   1.600   3.869   7.819 -1.7195 -0.1977 -0.3377
  135OSM   C14S14658   1.491   4.062   7.802  0.5407  0.3741  0.3184
  135OSM   H14S14659   1.416   4.010   7.864 -0.4967  2.3762  0.8319
  135OSM   H14T14660   1.440   4.078   7.705  0.8143  2.2443  0.4447
  135OSM   C15S14661   1.512   4.200   7.852 -0.3191 -0.5881 -0.7053
  135OSM   H15S14662   1.428   4.259   7.810 -0.9352 -2.1829 -1.8322
  135OSM   H15T14663   1.602   4.257   7.820 -1.0208  0.5432 -0.7119
  135OSM   C16S14664   1.512   4.213   8.003 -0.5125  0.5345 -0.5028
  135OSM   H16S14665   1.610   4.184   8.047  0.0714  1.3336 -1.2640
  135OSM   H16T14666   1.445   4.135   8.045 -1.3159  1.8703  0.7845
  135OSM   C17S14667   1.474   4.347   8.063 -0.1844  0.1008  1.1970
  135OSM   H17S14668   1.367   4.355   8.034 -0.4880 -0.6526  2.0738
  135OSM   H17T14669   1.537   4.425   8.015 -2.1059  1.1355  0.2677
  135OSM   C18S14670   1.484   4.351   8.212 -0.2548 -0.2217 -0.1457
  135OSM   H18S14671   1.587   4.359   8.254  0.3424  0.9676 -1.7729
  135OSM   H18T14672   1.432   4.264   8.258 -1.6496  1.7256  2.2224
  135OSM   H18U14673   1.437   4.440   8.258 -0.7361 -1.7324  2.4941
  135OSM    C1F14674   1.380   4.491   6.770  0.6871  0.3543  0.2520
  135OSM     OF14675   1.345   4.438   6.662  0.0398  0.5069 -0.0968
  135OSM    C2F14676   1.274   4.552   6.854 -0.3131 -0.4559  0.3727
  135OSM    H2F14677   1.241   4.642   6.798  1.7411  0.0511 -0.1263
  135OSM    H2G14678   1.331   4.590   6.943  2.2285 -0.1816 -1.2704
  135OSM    C3F14679   1.154   4.468   6.893  0.4447 -0.2911  0.2929
  135OSM    H3F14680   1.117   4.425   6.798  2.7987 -0.3177 -0.6852
  135OSM    H3G14681   1.073   4.531   6.935 -0.0857 -0.2641 -0.7591
  135OSM    C4F14682   1.186   4.349   6.987 -0.6105  0.3459 -0.4684
  135OSM    H4F14683   1.289   4.314   6.963  0.8431  4.1455 -0.5259
  135OSM    H4G14684   1.104   4.277   6.970  1.0753 -1.6069 -0.6759
  135OSM    C5F14685   1.166   4.407   7.126  0.0293  1.0348  0.3132
  135OSM    H5F14686   1.074   4.468   7.138  0.1268  0.9086  1.9432
  135OSM    H5G14687   1.251   4.476   7.147 -1.6045  3.6146 -1.0165
  135OSM    C6F14688   1.161   4.306   7.242  0.2171  0.4193 -0.0457
  135OSM    H6F14689   1.231   4.223   7.219  1.2340  1.1175  0.4715
  135OSM    H6G14690   1.055   4.272   7.247  0.2693  0.3490  0.7260
  135OSM    C7F14691   1.184   4.370   7.378  0.2645 -0.7523 -0.6752
  135OSM    H7F14692   1.123   4.462   7.380 -0.5949 -1.1888 -3.0749
  135OSM    H7G14693   1.293   4.388   7.369  0.6902 -0.9385  2.7705
  135OSM    C8F14694   1.164   4.273   7.493 -0.1061 -0.0931 -0.0994
  135OSM    H8F14695   1.224   4.184   7.466  0.1617  0.6324 -2.0585
  135OSM    H8G14696   1.060   4.234   7.482  0.3262 -1.9625  1.8357
  135OSM    C9F14697   1.182   4.324   7.634 -0.8334  0.9407  0.6078
  135OSM    H9F14698   1.268   4.392   7.635 -0.0539 -0.0135 -0.2471
  135OSM   C10F14699   1.107   4.325   7.742 -0.2171 -0.7614 -0.2950
  135OSM   H10F14700   1.144   4.373   7.834 -1.0146  1.1386 -0.9219
  135OSM   C11F14701   0.983   4.248   7.772  0.6390  1.0623  0.0842
  135OSM   H11F14702   0.953   4.191   7.681 -1.7947  2.0103  0.2131
  135OSM   H11G14703   0.897   4.316   7.789  1.1430  1.4785  1.0597
  135OSM   C12F14704   0.983   4.158   7.898 -0.1506  0.2481 -0.3461
  135OSM   H12F14705   1.089   4.125   7.908 -0.5038 -0.3310  1.9921
  135OSM   H12G14706   0.926   4.065   7.877 -1.1737  0.8236 -0.1947
  135OSM   C13F14707   0.932   4.219   8.028 -0.3975  0.3212  0.3753
  135OSM   H13F14708   0.823   4.234   8.013 -0.5843  0.1321  1.4665
  135OSM   H13G14709   0.969   4.319   8.060 -3.2821  1.6875 -0.1680
  135OSM   C14F14710   0.957   4.120   8.147  0.5864  0.1880 -0.0588
  135OSM   H14F14711   0.948   4.016   8.109 -0.7368  0.3200 -0.1310
  135OSM   H14G14712   0.873   4.138   8.217  0.7368  0.8795 -0.0436
  135OSM   C15F14713   1.086   4.134   8.218 -0.5795 -0.1002  0.1462
  135OSM   H15F14714   1.112   4.242   8.226  1.0364 -0.5846  1.8976
  135OSM   H15G14715   1.172   4.096   8.160 -0.3054 -0.1180  0.5629
  135OSM   C16F14716   1.074   4.095   8.369 -0.1941 -0.1938 -0.1689
  135OSM   H16F14717   1.055   3.986   8.383  0.0429 -0.8169 -3.6966
  135OSM   H16G14718   0.992   4.146   8.423 -0.2140 -0.9791  0.5731
  135OSM   C17F14719   1.206   4.126   8.442  0.7968  0.3763 -0.0380
  135OSM   H17F14720   1.245   4.226   8.417  0.5717  0.6585  0.7055
  135OSM   H17G14721   1.282   4.050   8.412 -0.1313 -1.6490  2.3430
  135OSM   C18F14722   1.191   4.109   8.592  0.4641  0.5608  0.0202
  135OSM   H18F14723   1.140   4.196   8.641 -1.8239 -1.8085  2.1554
  135OSM   H18G14724   1.289   4.093   8.642 -0.1562  0.3784  1.2089
  135OSM   H18H14725   1.124   4.025   8.618  1.0478 -0.6709 -2.2365
  136OSM      N14726   4.757   4.154   5.765 -0.1130  0.7777  0.5503
  136OSM    C1514727   4.802   4.009   5.788  0.4721  0.3880  0.2643
  136OSM   H15A14728   4.758   3.948   5.865  0.3797 -1.3745 -1.1320
  136OSM   H15B14729   4.905   4.014   5.820 -0.0510  1.2441  1.9219
  136OSM   H15C14730   4.796   3.948   5.699 -0.7300  0.1506  0.4854
  136OSM    C1414731   4.851   4.216   5.673  0.2325  0.8235 -0.0117
  136OSM   H14A14732   4.880   4.154   5.590  1.9986  1.9092 -0.2517
  136OSM   H14B14733   4.946   4.228   5.723  0.0210 -0.2362  0.6860
  136OSM   H14C14734   4.819   4.311   5.633 -0.4341  0.9110  0.7061
  136OSM    C1314735   4.617   4.141   5.712  0.0044  0.1655 -0.5217
  136OSM   H13A14736   4.584   4.242   5.693  0.5023  0.2983 -0.6855
  136OSM   H13B14737   4.555   4.110   5.795  1.6066  3.8785  2.3493
  136OSM   H13C14738   4.609   4.075   5.627 -3.8485 -0.7231  0.3419
  136OSM    C1214739   4.746   4.227   5.900 -0.2143 -1.3930 -0.4733
  136OSM   H12A14740   4.657   4.193   5.950 -1.3272  1.0370 -0.6252
  136OSM   H12B14741   4.721   4.325   5.861 -1.8370 -0.9551  1.5107
  136OSM    C1114742   4.868   4.233   6.000 -0.4167  0.8773  0.1559
  136OSM   H11A14743   4.891   4.135   6.047  0.9038  0.1891 -1.7855
  136OSM   H11B14744   4.851   4.292   6.093  0.7811  0.2371  0.8185
  136OSM      P14745   5.022   4.442   5.932 -0.2250  0.0867 -0.1387
  136OSM    O1314746   5.138   4.451   5.844 -0.4328  0.2482 -0.0515
  136OSM    O1414747   4.898   4.513   5.893  0.2837 -0.0506  0.2273
  136OSM    O1114748   5.059   4.478   6.081 -0.0308 -0.2347  0.2357
  136OSM    O1214749   4.988   4.292   5.943 -0.0817  0.1769 -0.3021
  136OSM    C1S14750   5.154   4.397   6.152 -0.4494  0.0567 -0.5675
  136OSM    H1S14751   5.256   4.429   6.121 -0.6242 -0.8502 -2.2065
  136OSM    H1T14752   5.148   4.289   6.127 -1.2787  0.2840 -1.4214
  136OSM     NF14753   5.256   4.352   6.381 -0.5019  0.0192  1.0254
  136OSM    HNF14754   5.240   4.266   6.430  0.8600  0.6599  2.6979
  136OSM    C2S14755   5.142   4.415   6.309  0.3347  0.3449 -0.3850
  136OSM    H2S14756   5.155   4.523   6.334 -1.1461  0.8509 -1.6789
  136OSM    C3S14757   5.009   4.370   6.361  0.5655 -0.5758 -0.0418
  136OSM    H3S14758   4.980   4.269   6.326  1.2509 -1.2640  1.2956
  136OSM     O314759   4.912   4.460   6.308 -0.4442 -0.0870 -0.3100
  136OSM    HO314760   4.955   4.495   6.230  0.1282  1.0264  0.4819
  136OSM    C4S14761   5.007   4.381   6.510  0.7792  0.8036 -0.4700
  136OSM    H4S14762   5.012   4.486   6.543 -1.2884  1.5797 -2.3492
  136OSM    C5S14763   4.990   4.282   6.600 -0.1860  0.0874 -0.0460
  136OSM    H5S14764   4.955   4.183   6.567  1.0718  0.3425 -2.3423
  136OSM    C6S14765   4.973   4.304   6.753 -1.3375 -0.5846  0.8285
  136OSM    H6S14766   4.898   4.240   6.804  1.7479 -2.6192  3.2043
  136OSM    H6T14767   4.943   4.410   6.770 -1.6666 -0.4032 -0.7508
  136OSM    C7S14768   5.106   4.284   6.835  0.1328 -0.2037 -0.3380
  136OSM    H7S14769   5.190   4.336   6.786  2.0820 -1.3372  1.6360
  136OSM    H7T14770   5.132   4.176   6.830  0.4547 -0.1983  0.8711
  136OSM    C8S14771   5.093   4.326   6.984 -0.0998 -0.5458 -0.2136
  136OSM    H8S14772   5.011   4.269   7.033 -2.3193  1.6590 -1.1403
  136OSM    H8T14773   5.049   4.428   6.991 -0.9915 -0.6797 -2.7846
  136OSM    C9S14774   5.227   4.324   7.065 -0.3622  0.2519  0.7352
  136OSM    H9S14775   5.282   4.415   7.032  0.4846 -0.9934 -1.5130
  136OSM    H9T14776   5.281   4.235   7.027 -0.6059 -0.7826  2.6987
  136OSM   C10S14777   5.218   4.338   7.216  0.0902  0.3939  0.0564
  136OSM   H10S14778   5.167   4.245   7.248  1.5415 -0.1816  0.7661
  136OSM   H10T14779   5.156   4.425   7.247  1.8144  0.8791  2.3857
  136OSM   C11S14780   5.357   4.339   7.284  0.5242 -0.0932  0.5702
  136OSM   H11S14781   5.415   4.426   7.247 -0.4889 -0.0225 -0.9148
  136OSM   H11T14782   5.404   4.244   7.249 -0.2944 -0.4228  0.3547
  136OSM   C12S14783   5.347   4.316   7.434  0.5307  0.5581 -0.6864
  136OSM   H12S14784   5.327   4.412   7.487 -3.4013  0.0919 -1.0213
  136OSM   H12T14785   5.435   4.265   7.478 -1.5707 -0.0330  3.3905
  136OSM   C13S14786   5.233   4.229   7.488 -0.3456  0.0570 -0.5067
  136OSM   H13S14787   5.238   4.127   7.444 -0.5468 -0.3893  0.4785
  136OSM   H13T14788   5.136   4.269   7.452  0.6948  2.1381 -1.1356
  136OSM   C14S14789   5.234   4.229   7.642 -0.0652 -0.6726 -0.4583
  136OSM   H14S14790   5.227   4.334   7.679 -0.7745 -0.4667 -1.1629
  136OSM   H14T14791   5.328   4.174   7.666  1.2196  0.7533 -2.0123
  136OSM   C15S14792   5.107   4.162   7.699 -0.8339  0.0799  0.2011
  136OSM   H15S14793   5.127   4.138   7.806 -0.5051  0.0570  0.1351
  136OSM   H15T14794   5.088   4.068   7.644 -0.3804  0.4384 -0.5739
  136OSM   C16S14795   4.977   4.246   7.709 -0.4393 -0.8980  0.0962
  136OSM   H16S14796   4.954   4.290   7.609  0.1175  0.7443  0.6656
  136OSM   H16T14797   4.982   4.332   7.779 -1.5294 -2.2453  1.9052
  136OSM   C17S14798   4.856   4.175   7.757 -0.2625  0.2846  0.0666
  136OSM   H17S14799   4.771   4.247   7.763 -2.4725 -2.2275  0.6191
  136OSM   H17T14800   4.879   4.137   7.859  1.2038  0.0843 -0.3123
  136OSM   C18S14801   4.817   4.049   7.681 -0.6457 -0.2386 -0.2105
  136OSM   H18S14802   4.833   4.049   7.571 -0.5687 -5.2599 -0.4377
  136OSM   H18T14803   4.722   4.002   7.715 -0.9173  0.0487 -0.5651
  136OSM   H18U14804   4.888   3.970   7.714 -0.6519 -0.7949 -1.4837
  136OSM    C1F14805   5.379   4.412   6.387 -0.3591 -0.2841  0.3101
  136OSM     OF14806   5.409   4.498   6.303 -0.3962  0.0547 -0.5259
  136OSM    C2F14807   5.474   4.363   6.487 -0.0582 -0.0812 -0.8154
  136OSM    H2F14808   5.501   4.257   6.470  2.4817 -0.1250  2.3615
  136OSM    H2G14809   5.420   4.352   6.583 -0.8148 -1.2937 -1.3670
  136OSM    C3F14810   5.604   4.449   6.506 -0.6883 -0.4542  0.1133
  136OSM    H3F14811   5.575   4.553   6.532  1.3706  0.5437 -1.2585
  136OSM    H3G14812   5.650   4.445   6.405  0.1065 -1.5603  0.4998
  136OSM    C4F14813   5.700   4.376   6.594 -0.5262 -0.0765 -0.6597
  136OSM    H4F14814   5.796   4.431   6.584 -0.5620  0.4042  1.3137
  136OSM    H4G14815   5.716   4.270   6.564  1.2677 -0.2260  0.6869
  136OSM    C5F14816   5.652   4.384   6.741  0.1059  0.1968  0.3402
  136OSM    H5F14817   5.555   4.331   6.754 -0.3730  0.7329 -0.9175
  136OSM    H5G14818   5.635   4.494   6.748 -1.9542 -0.1429  1.6128
  136OSM    C6F14819   5.753   4.332   6.847 -0.5313 -0.2507  0.6520
  136OSM    H6F14820   5.821   4.416   6.872 -3.1642  3.1758 -2.5094
  136OSM    H6G14821   5.812   4.254   6.795  0.2013  0.8042 -0.1448
  136OSM    C7F14822   5.683   4.279   6.969 -0.3028 -0.3134 -0.0639
  136OSM    H7F14823   5.603   4.209   6.938 -0.4639 -0.4432  0.6432
  136OSM    H7G14824   5.633   4.361   7.025 -2.1237 -0.5812 -1.2160
  136OSM    C8F14825   5.786   4.214   7.053 -0.4473  0.0298 -0.3060
  136OSM    H8F14826   5.851   4.301   7.075  1.4791 -1.6320  1.0416
  136OSM    H8G14827   5.855   4.143   7.002 -1.2488 -0.3316 -0.9093
  136OSM    C9F14828   5.726   4.160   7.181  0.7865 -0.3273  0.1493
  136OSM    H9F14829   5.689   4.058   7.160 -2.0895  0.5299  0.6503
  136OSM   C10F14830   5.725   4.219   7.301 -0.1589 -0.2375 -0.6488
  136OSM   H10F14831   5.681   4.164   7.385  0.6987  1.4868  1.0230
  136OSM   C11F14832   5.777   4.361   7.326 -0.0469  0.5488 -0.4123
  136OSM   H11F14833   5.703   4.416   7.388  2.3753  1.6033  1.7613
  136OSM   H11G14834   5.790   4.418   7.232 -1.6436 -0.8438 -1.5326
  136OSM   C12F14835   5.892   4.357   7.428  0.4176 -0.0381 -0.5249
  136OSM   H12F14836   5.929   4.460   7.445  0.7187 -0.1924 -0.2201
  136OSM   H12G14837   5.968   4.288   7.385  0.3458 -0.6407  0.2769
  136OSM   C13F14838   5.853   4.307   7.570 -0.0287 -0.0814  0.3121
  136OSM   H13F14839   5.817   4.202   7.568  2.5595 -1.0615  1.1538
  136OSM   H13G14840   5.769   4.369   7.608  0.7053  1.0865  0.0603
  136OSM   C14F14841   5.979   4.321   7.650 -0.4094  0.2515 -0.7352
  136OSM   H14F14842   6.000   4.429   7.639 -0.8985  0.4894  0.4861
  136OSM   H14G14843   6.069   4.269   7.610  1.1904  2.2459  0.0792
  136OSM   C15F14844   5.972   4.276   7.795  0.2921 -0.5264  0.3479
  136OSM   H15F14845   5.875   4.225   7.812 -0.3697  0.9639  1.2695
  136OSM   H15G14846   5.956   4.374   7.844 -0.7915 -0.3199 -0.3842
  136OSM   C16F14847   6.096   4.199   7.851 -0.7156 -0.1293 -0.3180
  136OSM   H16F14848   6.190   4.257   7.843 -0.6781 -0.2250 -0.5740
  136OSM   H16G14849   6.110   4.097   7.809  2.6443 -0.2753  0.8647
  136OSM   C17F14850   6.076   4.162   7.995 -0.1299 -0.3498 -0.1603
  136OSM   H17F14851   6.167   4.114   8.036 -0.3399 -0.4822  0.1546
  136OSM   H17G14852   6.007   4.075   8.000  0.4070 -0.9536 -2.2637
  136OSM   C18F14853   6.032   4.264   8.095  0.1106 -0.3253 -0.3217
  136OSM   H18F14854   5.924   4.288   8.087  0.0667  0.3218  1.7683
  136OSM   H18G14855   6.092   4.357   8.078  1.4349 -0.6279  2.1582
  136OSM   H18H14856   6.050   4.235   8.200 -0.9542 -0.3402 -0.1323
  137OSM      N14857   1.506   3.026   5.691 -0.3094 -0.6555  0.5301
  137OSM    C1514858   1.563   2.894   5.695  0.3236  0.0901 -0.4262
  137OSM   H15A14859   1.494   2.827   5.744  0.3946  0.9667  0.9316
  137OSM   H15B14860   1.661   2.903   5.739 -0.0489  3.2290 -0.0164
  137OSM   H15C14861   1.572   2.861   5.592 -0.5496 -0.8395 -0.2192
  137OSM    C1414862   1.591   3.135   5.624 -0.3735  0.1084 -0.2220
  137OSM   H14A14863   1.679   3.145   5.686  0.5876  1.8313 -1.7622
  137OSM   H14B14864   1.545   3.232   5.616 -0.1823  0.0801 -2.4678
  137OSM   H14C14865   1.630   3.112   5.525  1.5471 -1.5244  0.8222
  137OSM    C1314866   1.384   3.006   5.599  0.1250  0.3784 -0.2890
  137OSM   H13A14867   1.423   2.991   5.499 -0.7745 -1.7226 -0.3824
  137OSM   H13B14868   1.312   3.086   5.595 -1.4927 -0.9849  0.4311
  137OSM   H13C14869   1.330   2.915   5.622 -0.0953  0.2811 -1.1295
  137OSM    C1214870   1.458   3.067   5.828 -0.0657  0.1415  0.4110
  137OSM   H12A14871   1.379   3.001   5.860 -1.8977  1.6008 -0.8287
  137OSM   H12B14872   1.413   3.164   5.809  0.8612  1.1033  2.7277
  137OSM    C1114873   1.549   3.081   5.949 -0.3101 -0.0112 -0.2073
  137OSM   H11A14874   1.481   3.116   6.030  0.3246  0.1913  0.2514
  137OSM   H11B14875   1.623   3.163   5.937 -0.9847  1.6827  4.8652
  137OSM      P14876   1.557   2.859   6.103 -0.4453  0.0205 -0.1223
  137OSM    O1314877   1.409   2.848   6.090 -0.1332 -0.4741  0.3165
  137OSM    O1414878   1.645   2.739   6.094 -0.4061 -0.5518 -0.3729
  137OSM    O1114879   1.597   2.932   6.235 -0.5703  0.2020 -0.2590
  137OSM    O1214880   1.604   2.959   5.990  0.4525  0.5511  0.2031
  137OSM    C1S14881   1.716   3.002   6.249 -0.1412 -0.6482  0.0598
  137OSM    H1S14882   1.691   3.103   6.208  1.1471  0.0032  0.8103
  137OSM    H1T14883   1.798   2.945   6.201 -1.8423 -2.5128 -0.7781
  137OSM     NF14884   1.839   3.150   6.411 -0.3737 -0.1832 -0.5224
  137OSM    HNF14885   1.925   3.136   6.460 -1.4644  1.7658  2.2130
  137OSM    C2S14886   1.739   3.046   6.397 -0.1034  0.2947  0.0024
  137OSM    H2S14887   1.636   3.076   6.427 -1.5369 -4.4977  0.8329
  137OSM    C3S14888   1.774   2.927   6.486 -0.8835 -0.0236  0.1880
  137OSM    H3S14889   1.878   2.891   6.471 -1.3201 -1.2284 -0.0450
  137OSM     O314890   1.711   2.809   6.443  0.7583 -0.4065 -0.3127
  137OSM    HO314891   1.655   2.845   6.373 -0.3161  1.3764  1.3704
  137OSM    C4S14892   1.743   2.950   6.626  0.2295  0.4371 -0.4038
  137OSM    H4S14893   1.643   2.989   6.651  0.1713 -1.3414  2.5791
  137OSM    C5S14894   1.832   2.935   6.722 -0.2881  0.2071 -0.1442
  137OSM    H5S14895   1.936   2.918   6.693  0.4123 -0.0839  2.2885
  137OSM    C6S14896   1.814   2.955   6.871 -0.3380  0.1337 -0.9906
  137OSM    H6S14897   1.889   3.027   6.910 -0.7660  1.1515 -1.9873
  137OSM    H6T14898   1.825   2.860   6.926 -3.4415  0.9639  1.3818
  137OSM    C7S14899   1.679   3.019   6.913  0.2396 -0.7863  0.4306
  137OSM    H7S14900   1.593   2.956   6.883  0.2753  0.5436 -2.8868
  137OSM    H7T14901   1.676   3.113   6.854  0.4843 -0.4961  0.8766
  137OSM    C8S14902   1.678   3.069   7.055 -0.2319 -1.3624  0.2715
  137OSM    H8S14903   1.695   2.988   7.129 -2.6611  0.2752  2.8211
  137OSM    H8T14904   1.574   3.108   7.060  0.6378  1.0873  0.4421
  137OSM    C9S14905   1.772   3.177   7.095  0.0863 -0.0176  0.1657
  137OSM    H9S14906   1.748   3.268   7.036 -1.7425  0.0387  0.9513
  137OSM    H9T14907   1.876   3.142   7.076 -0.1051  0.0367 -1.1135
  137OSM   C10S14908   1.762   3.222   7.241  0.5381 -0.2812  0.1722
  137OSM   H10S14909   1.690   3.162   7.299  0.3679 -0.6695 -0.4262
  137OSM   H10T14910   1.730   3.328   7.244 -2.4089 -1.1305  1.2030
  137OSM   C11S14911   1.903   3.215   7.318 -0.3415  0.6435  0.0913
  137OSM   H11S14912   1.974   3.289   7.275  0.2270  0.9318  1.4561
  137OSM   H11T14913   1.956   3.119   7.300  0.0889  0.8490  0.2502
  137OSM   C12S14914   1.878   3.244   7.464  0.1898 -0.3040  0.6618
  137OSM   H12S14915   1.798   3.319   7.479 -0.3259 -0.8581  0.6893
  137OSM   H12T14916   1.963   3.307   7.497 -0.9749  1.9067 -0.3351
  137OSM   C13S14917   1.861   3.112   7.544  0.5176 -0.2199 -0.0206
  137OSM   H13S14918   1.937   3.039   7.509  2.0494  1.4492 -0.3807
  137OSM   H13T14919   1.757   3.080   7.521 -1.0228  1.7702  3.3971
  137OSM   C14S14920   1.858   3.138   7.691 -0.7041 -0.1991 -0.6584
  137OSM   H14S14921   1.775   3.208   7.713 -0.1100  0.3958 -0.2561
  137OSM   H14T14922   1.949   3.196   7.717 -2.0977  2.3552 -1.2043
  137OSM   C15S14923   1.856   3.009   7.774 -0.5794 -0.0258  0.4920
  137OSM   H15S14924   1.951   2.957   7.753 -1.1574 -0.1830 -2.0209
  137OSM   H15T14925   1.769   2.953   7.734 -0.3506  0.3911 -0.6177
  137OSM   C16S14926   1.838   3.012   7.931 -1.2569  0.1472 -0.1060
  137OSM   H16S14927   1.732   3.044   7.940 -1.2687  0.0206  0.2148
  137OSM   H16T14928   1.901   3.084   7.986 -0.0129 -2.5537  2.2960
  137OSM   C17S14929   1.840   2.876   7.998  0.6603 -0.1307  0.0466
  137OSM   H17S14930   1.942   2.833   7.995  0.9769  0.3757  2.1141
  137OSM   H17T14931   1.790   2.799   7.936  1.1128 -1.3615  1.1741
  137OSM   C18S14932   1.782   2.859   8.137  0.6241 -1.1220 -0.0225
  137OSM   H18S14933   1.671   2.861   8.131  0.7102 -1.1662 -2.4420
  137OSM   H18T14934   1.810   2.946   8.201 -0.9406 -0.2423 -0.4668
  137OSM   H18U14935   1.803   2.766   8.194 -1.3641 -0.5624  1.7572
  137OSM    C1F14936   1.832   3.279   6.373 -0.0887  0.6990  0.1877
  137OSM     OF14937   1.733   3.322   6.322 -0.1173  0.1034 -0.4363
  137OSM    C2F14938   1.949   3.364   6.398  0.0460 -0.3564 -0.0085
  137OSM    H2F14939   2.013   3.356   6.307 -1.5655 -2.0932 -1.0647
  137OSM    H2G14940   2.002   3.321   6.486  1.1310 -1.3255 -1.0956
  137OSM    C3F14941   1.906   3.505   6.433 -0.3998 -0.8255 -0.3326
  137OSM    H3F14942   1.829   3.511   6.512  0.9446  0.1914  0.9551
  137OSM    H3G14943   1.867   3.552   6.340  0.2851  0.5662  0.0551
  137OSM    C4F14944   2.025   3.591   6.478  0.0879  0.0666  0.0736
  137OSM    H4F14945   2.098   3.608   6.396 -0.2289 -0.3508 -0.3009
  137OSM    H4G14946   2.078   3.538   6.559  2.2922  1.1518 -0.5664
  137OSM    C5F14947   1.987   3.721   6.546 -0.3239  0.4587  0.6320
  137OSM    H5F14948   1.901   3.710   6.615 -0.0798  0.6471  0.9651
  137OSM    H5G14949   1.947   3.791   6.469 -2.2284 -0.9604  0.2546
  137OSM    C6F14950   2.088   3.796   6.635 -0.0582  0.2102 -0.1170
  137OSM    H6F14951   2.168   3.844   6.575  1.6714  0.3686  2.1995
  137OSM    H6G14952   2.141   3.725   6.702 -0.7240  0.5250  0.7666
  137OSM    C7F14953   2.012   3.899   6.728  0.3789 -0.1561  0.6392
  137OSM    H7F14954   1.940   3.849   6.797  0.9108  0.4416  1.6550
  137OSM    H7G14955   1.962   3.978   6.667  1.0817 -1.8300 -2.2778
  137OSM    C8F14956   2.112   3.970   6.828  0.0850  0.1639  0.0171
  137OSM    H8F14957   2.217   3.936   6.814  0.1208 -0.0426  0.7583
  137OSM    H8G14958   2.081   3.944   6.931  0.9932  1.2853  0.6014
  137OSM    C9F14959   2.104   4.117   6.807 -0.1881 -0.0976 -0.5035
  137OSM    H9F14960   2.139   4.142   6.706 -0.8271 -0.0825 -0.7207
  137OSM   C10F14961   2.083   4.217   6.897  0.0581  0.0642  0.1705
  137OSM   H10F14962   2.090   4.322   6.865  1.2091 -0.2115 -0.5156
  137OSM   C11F14963   2.049   4.208   7.039  0.7208  0.1854 -0.4457
  137OSM   H11F14964   2.057   4.106   7.082  0.0145 -0.1376 -1.0595
  137OSM   H11G14965   1.944   4.239   7.057 -0.1125 -1.2040 -2.4680
  137OSM   C12F14966   2.130   4.303   7.120  0.5361 -0.3938 -0.4023
  137OSM   H12F14967   2.145   4.398   7.065 -1.4466 -0.1181 -0.5454
  137OSM   H12G14968   2.231   4.257   7.123  1.7744  2.0844 -1.4218
  137OSM   C13F14969   2.089   4.311   7.268  0.4353  0.2639 -0.0667
  137OSM   H13F14970   2.078   4.207   7.306  1.0021 -0.1988 -1.1210
  137OSM   H13G14971   1.992   4.363   7.281  1.1457  1.8198 -0.7791
  137OSM   C14F14972   2.199   4.378   7.359 -0.2692 -0.0814  0.6104
  137OSM   H14F14973   2.222   4.481   7.324  1.5847 -0.6717 -0.0150
  137OSM   H14G14974   2.276   4.305   7.326 -0.8921 -0.0411 -1.0300
  137OSM   C15F14975   2.196   4.361   7.511  0.6251 -0.6228 -0.6420
  137OSM   H15F14976   2.170   4.256   7.535  0.9061 -0.2790  1.4084
  137OSM   H15G14977   2.112   4.422   7.551  0.4782 -1.2039 -0.0519
  137OSM   C16F14978   2.315   4.420   7.580 -0.0601 -0.1249 -0.3552
  137OSM   H16F14979   2.339   4.528   7.571 -1.9243  0.3821  0.3879
  137OSM   H16G14980   2.411   4.381   7.539 -0.7277  0.1932 -2.3513
  137OSM   C17F14981   2.298   4.379   7.734 -0.7440 -1.0658  0.6253
  137OSM   H17F14982   2.301   4.268   7.746  0.9756 -1.3960 -1.9711
  137OSM   H17G14983   2.201   4.424   7.764 -1.8253 -0.8219 -2.7953
  137OSM   C18F14984   2.412   4.435   7.820 -0.1466 -0.0245  0.7398
  137OSM   H18F14985   2.414   4.545   7.808  0.9208 -0.1690 -0.6658
  137OSM   H18G14986   2.511   4.388   7.801 -0.5118 -0.8407  0.8080
  137OSM   H18H14987   2.388   4.404   7.924  0.2785 -0.6328  0.6638
  138OSM      N14988   3.877   6.448   5.878  0.6131 -0.6784 -0.4123
  138OSM    C1514989   3.812   6.318   5.920  0.5429  0.6406 -0.4954
  138OSM   H15A14990   3.706   6.326   5.935  0.9124  3.4645  1.2782
  138OSM   H15B14991   3.848   6.283   6.016  1.2553 -0.7135 -1.2130
  138OSM   H15C14992   3.831   6.246   5.841  2.5655 -0.7180  1.0944
  138OSM    C1414993   4.022   6.418   5.845 -0.4082  0.3063 -0.2375
  138OSM   H14A14994   4.084   6.505   5.832 -1.0247  1.3075  2.7753
  138OSM   H14B14995   4.015   6.364   5.751 -0.8281 -0.3283  0.1462
  138OSM   H14C14996   4.068   6.353   5.918 -0.8200  0.0563 -0.1980
  138OSM    C1314997   3.802   6.512   5.766 -0.1560  0.6012  0.6501
  138OSM   H13A14998   3.703   6.543   5.797 -0.5214  1.4613 -1.2603
  138OSM   H13B14999   3.787   6.444   5.683  1.0660  0.4476  0.5404
  138OSM   H13C15000   3.853   6.601   5.733 -1.4024  1.3533  0.6555
  138OSM    C1215001   3.863   6.542   5.999 -0.3913 -0.2967 -0.6848
  138OSM   H12A15002   3.764   6.549   6.041 -0.2183 -0.0053 -0.3126
  138OSM   H12B15003   3.895   6.642   5.973  0.1129  0.2911  1.8514
  138OSM    C1115004   3.958   6.507   6.125  0.4063 -0.2498  0.3701
  138OSM   H11A15005   3.941   6.582   6.206  0.1177 -0.8183  0.8453
  138OSM   H11B15006   4.060   6.519   6.084 -0.6182  0.3780 -2.1379
  138OSM      P15007   4.062   6.276   6.222 -0.6955  0.4540 -0.1450
  138OSM    O1315008   4.015   6.143   6.263 -0.5309 -0.4533  0.0592
  138OSM    O1415009   4.170   6.280   6.122 -0.4216  0.6344  0.3302
  138OSM    O1115010   4.119   6.351   6.347  0.3650  0.2256 -0.1497
  138OSM    O1215011   3.941   6.370   6.179 -0.4152 -0.5366 -0.3384
  138OSM    C1S15012   4.163   6.285   6.469  0.0442  0.0859  0.1887
  138OSM    H1S15013   4.243   6.212   6.446  0.5544  0.1614  1.5796
  138OSM    H1T15014   4.077   6.238   6.520  1.6840 -1.4051  1.7334
  138OSM     NF15015   4.279   6.326   6.688  0.8412 -0.3787 -0.3523
  138OSM    HNF15016   4.224   6.332   6.771  0.4897  1.5262 -0.6684
  138OSM    C2S15017   4.230   6.385   6.566 -0.1566  0.1137  0.4161
  138OSM    H2S15018   4.312   6.434   6.507 -1.0619  3.0151  1.3870
  138OSM    C3S15019   4.129   6.490   6.605 -0.2704 -0.0395  0.0032
  138OSM    H3S15020   4.057   6.444   6.676  1.6329 -1.1683  1.2727
  138OSM     O315021   4.054   6.543   6.500 -0.0945  0.2835  0.0623
  138OSM    HO315022   4.065   6.487   6.424 -1.4164  0.1693 -0.0690
  138OSM    C4S15023   4.192   6.601   6.675  0.3965 -0.2949 -0.0734
  138OSM    H4S15024   4.286   6.639   6.633  1.2765 -2.9990 -0.7517
  138OSM    C5S15025   4.160   6.646   6.800  0.2049  0.9789  0.2144
  138OSM    H5S15026   4.078   6.601   6.857 -0.0193 -0.0178 -0.8545
  138OSM    C6S15027   4.229   6.752   6.869  0.1201 -0.6787  0.3517
  138OSM    H6S15028   4.317   6.799   6.820 -0.2645  2.0930  2.1374
  138OSM    H6T15029   4.263   6.701   6.961  2.3315  0.0057 -0.0372
  138OSM    C7S15030   4.152   6.881   6.914 -0.7757  0.3715  0.2528
  138OSM    H7S15031   4.072   6.899   6.839 -0.8274  0.6422  0.3731
  138OSM    H7T15032   4.212   6.973   6.896 -0.4114 -0.1622 -1.3853
  138OSM    C8S15033   4.084   6.881   7.050 -0.1999 -0.3838 -0.3731
  138OSM    H8S15034   4.019   6.792   7.049  0.1042 -0.6573  1.2265
  138OSM    H8T15035   4.024   6.973   7.065  0.2903 -0.3947  2.2072
  138OSM    C9S15036   4.189   6.878   7.174 -0.9973 -0.1627 -0.1389
  138OSM    H9S15037   4.226   6.983   7.181  2.8392 -1.1936 -2.0077
  138OSM    H9T15038   4.279   6.822   7.140 -1.2432 -0.9562  0.4961
  138OSM   C10S15039   4.126   6.828   7.306 -0.5127 -0.0808  0.3486
  138OSM   H10S15040   4.126   6.717   7.298 -2.5624 -0.2017  1.2644
  138OSM   H10T15041   4.025   6.875   7.302 -0.0166  1.0065 -2.4163
  138OSM   C11S15042   4.194   6.882   7.431  0.4586 -0.7269  0.5410
  138OSM   H11S15043   4.209   6.991   7.412 -2.2235 -0.6194 -1.4759
  138OSM   H11T15044   4.294   6.840   7.455  0.6092  0.1272  1.4797
  138OSM   C12S15045   4.101   6.847   7.545 -0.6576  0.3634 -0.2027
  138OSM   H12S15046   4.091   6.737   7.531 -0.8782  0.3986 -0.3428
  138OSM   H12T15047   4.000   6.893   7.539 -0.4540  0.7313 -0.9899
  138OSM   C13S15048   4.151   6.870   7.693 -0.3671  0.0313  0.2281
  138OSM   H13S15049   4.099   6.958   7.737  1.7354  3.0904 -2.9281
  138OSM   H13T15050   4.258   6.898   7.690 -0.5330  0.5566 -1.8082
  138OSM   C14S15051   4.129   6.757   7.796 -0.3727  0.2316  0.1814
  138OSM   H14S15052   4.169   6.661   7.756  0.0286  0.2036  0.6471
  138OSM   H14T15053   4.021   6.742   7.813 -0.5998 -0.6194 -1.7020
  138OSM   C15S15054   4.197   6.787   7.929 -0.0557 -0.0928 -0.7233
  138OSM   H15S15055   4.303   6.819   7.921  0.7433 -2.8723 -3.1787
  138OSM   H15T15056   4.204   6.689   7.982 -0.6258 -0.0437 -0.5467
  138OSM   C16S15057   4.107   6.883   8.010  0.1360  0.0970  0.0440
  138OSM   H16S15058   4.005   6.839   8.018  0.0878  0.0002 -0.9418
  138OSM   H16T15059   4.105   6.978   7.952 -1.8110 -0.0895 -0.2748
  138OSM   C17S15060   4.161   6.907   8.156 -0.1589 -0.2890 -0.4532
  138OSM   H17S15061   4.106   6.999   8.184 -0.9912 -1.0692  0.5437
  138OSM   H17T15062   4.268   6.936   8.150 -0.7840  1.9647 -1.9987
  138OSM   C18S15063   4.143   6.793   8.261  0.3077 -0.0764 -0.2662
  138OSM   H18S15064   4.156   6.829   8.365  1.0154 -1.0118 -0.0168
  138OSM   H18T15065   4.214   6.707   8.252  1.5858  0.8640  0.4407
  138OSM   H18U15066   4.046   6.739   8.253  0.0503 -0.0522  2.1277
  138OSM    C1F15067   4.386   6.241   6.687 -0.1577 -0.3556 -0.1986
  138OSM     OF15068   4.443   6.222   6.579  0.0812  0.2764 -0.0872
  138OSM    C2F15069   4.427   6.178   6.819 -0.0012  0.2845  0.7476
  138OSM    H2F15070   4.344   6.106   6.833  1.9691 -2.2869 -0.0673
  138OSM    H2G15071   4.432   6.251   6.903 -2.3921  1.6350 -0.1663
  138OSM    C3F15072   4.566   6.098   6.804  1.0377 -0.3508 -0.0440
  138OSM    H3F15073   4.645   6.167   6.769  1.6694 -0.2541  1.4757
  138OSM    H3G15074   4.550   6.009   6.739 -1.5043 -2.3659  3.0351
  138OSM    C4F15075   4.621   6.040   6.938  0.0152 -0.7971 -0.3141
  138OSM    H4F15076   4.728   6.011   6.926  0.7103  0.8622  1.3005
  138OSM    H4G15077   4.560   5.949   6.955 -1.6688  0.3881  0.2789
  138OSM    C5F15078   4.614   6.132   7.061  0.4646  0.1854 -0.2945
  138OSM    H5F15079   4.507   6.134   7.092  0.2042 -3.0676 -0.5495
  138OSM    H5G15080   4.647   6.237   7.048 -0.4528  0.2535 -2.4617
  138OSM    C6F15081   4.701   6.070   7.179  0.1289 -0.2419 -0.2922
  138OSM    H6F15082   4.809   6.071   7.152  0.6478 -0.1633  1.6360
  138OSM    H6G15083   4.670   5.964   7.190  0.2155 -0.5574 -2.4768
  138OSM    C7F15084   4.681   6.147   7.306 -0.1953  0.0439 -0.0954
  138OSM    H7F15085   4.573   6.149   7.334 -0.5855  0.0472 -1.5185
  138OSM    H7G15086   4.710   6.251   7.282  1.0700 -0.6796 -1.9034
  138OSM    C8F15087   4.777   6.099   7.419  0.8605  0.1607  0.6157
  138OSM    H8F15088   4.875   6.094   7.367 -0.6127  0.4300 -2.4431
  138OSM    H8G15089   4.766   6.001   7.469  1.3819 -0.0463  0.3300
  138OSM    C9F15090   4.801   6.203   7.528  0.8457  0.8058  0.3996
  138OSM    H9F15091   4.838   6.303   7.501  1.1716  0.1779 -1.7211
  138OSM   C10F15092   4.759   6.188   7.653 -0.4422 -0.2485  0.4200
  138OSM   H10F15093   4.780   6.262   7.731 -3.2572  2.0278 -0.7631
  138OSM   C11F15094   4.681   6.072   7.709  0.1632  0.3900 -0.2378
  138OSM   H11F15095   4.734   5.992   7.764  0.2579  0.4979 -0.1717
  138OSM   H11G15096   4.614   6.016   7.640 -2.3510  1.0956  1.4757
  138OSM   C12F15097   4.590   6.119   7.820  0.4944 -0.7997  0.2149
  138OSM   H12F15098   4.510   6.046   7.843 -1.0950  1.5267  2.7869
  138OSM   H12G15099   4.534   6.212   7.798 -2.8956 -2.1458  2.4119
  138OSM   C13F15100   4.652   6.140   7.958 -0.7660 -0.0962 -0.8086
  138OSM   H13F15101   4.715   6.229   7.978  0.5466 -0.9855 -0.8050
  138OSM   H13G15102   4.707   6.046   7.980 -1.4772 -0.6311 -1.2628
  138OSM   C14F15103   4.546   6.163   8.062 -0.2381  0.6153 -0.1510
  138OSM   H14F15104   4.482   6.073   8.054  0.9781 -0.5012  1.7302
  138OSM   H14G15105   4.479   6.251   8.052 -1.1046  0.2127  1.6132
  138OSM   C15F15106   4.605   6.170   8.205 -0.0828 -0.3463  0.5462
  138OSM   H15F15107   4.510   6.181   8.263 -0.1939 -0.1167  0.3236
  138OSM   H15G15108   4.664   6.262   8.226  1.7157 -1.5107  0.8029
  138OSM   C16F15109   4.681   6.053   8.251 -0.4951 -0.4475 -0.3181
  138OSM   H16F15110   4.770   6.040   8.185 -0.9846  0.5931 -1.2190
  138OSM   H16G15111   4.634   5.953   8.249 -0.2457 -0.5576 -1.5182
  138OSM   C17F15112   4.741   6.080   8.387 -0.2319 -0.3418  0.2511
  138OSM   H17F15113   4.770   6.186   8.399 -1.6865  0.2693 -1.2138
  138OSM   H17G15114   4.836   6.022   8.392  0.2086  0.4029  0.6983
  138OSM   C18F15115   4.655   6.037   8.507 -0.3940 -0.2366 -0.1005
  138OSM   H18F15116   4.712   6.061   8.599  1.4105  0.6988 -1.4075
  138OSM   H18G15117   4.630   5.928   8.511  2.6847 -1.1296 -1.5829
  138OSM   H18H15118   4.562   6.097   8.504  0.3057  0.8743  0.0406
  139OSM      N15119   2.458   0.943   5.945  0.6003  0.3902  0.3010
  139OSM    C1515120   2.340   0.955   5.853  0.0832  0.2522 -0.6055
  139OSM   H15A15121   2.283   0.864   5.860 -0.1243  0.3714 -0.7459
  139OSM   H15B15122   2.377   0.959   5.752  0.7944 -1.9238 -0.4897
  139OSM   H15C15123   2.282   1.042   5.877 -2.7880 -1.8565  0.6785
  139OSM    C1415124   2.560   0.851   5.878 -0.0145 -0.0631 -0.3679
  139OSM   H14A15125   2.589   0.891   5.782 -0.3299  0.4813 -0.2371
  139OSM   H14B15126   2.517   0.752   5.875 -2.3812  0.7863  1.7598
  139OSM   H14C15127   2.651   0.845   5.935  0.9437  1.3384 -1.6815
  139OSM    C1315128   2.525   1.077   5.968 -0.3315  0.2021  0.0164
  139OSM   H13A15129   2.529   1.136   5.877  1.1052 -1.3576 -0.9944
  139OSM   H13B15130   2.629   1.064   5.995  0.3440 -0.9814 -2.7213
  139OSM   H13C15131   2.473   1.131   6.046 -3.2834 -1.5132 -0.6310
  139OSM    C1215132   2.417   0.872   6.079 -0.0279 -0.3694 -1.0509
  139OSM   H12A15133   2.498   0.852   6.148  0.1348 -0.7158 -1.3461
  139OSM   H12B15134   2.374   0.775   6.058 -0.6123 -0.0318 -1.4555
  139OSM    C1115135   2.319   0.955   6.174 -0.3021  0.9370  0.4988
  139OSM   H11A15136   2.286   0.892   6.260  0.3952  0.3470  0.3438
  139OSM   H11B15137   2.221   0.972   6.126 -1.0273 -0.5786  1.3517
  139OSM      P15138   2.308   1.198   6.260  0.3769 -0.1740 -0.3854
  139OSM    O1315139   2.331   1.302   6.159 -0.8614 -0.9534  0.6589
  139OSM    O1415140   2.162   1.155   6.274  0.0768 -0.2038  0.2801
  139OSM    O1115141   2.348   1.244   6.399 -0.4587 -0.0363 -0.3464
  139OSM    O1215142   2.384   1.074   6.227 -0.6135  0.3951 -0.0862
  139OSM    C1S15143   2.352   1.157   6.517  0.9806 -0.3584 -0.7929
  139OSM    H1S15144   2.431   1.080   6.507  1.8351  0.5864 -1.5300
  139OSM    H1T15145   2.259   1.097   6.523 -0.3143  1.1492 -3.6519
  139OSM     NF15146   2.362   1.124   6.762  0.0501  0.0037  0.1906
  139OSM    HNF15147   2.283   1.134   6.823  0.4127 -1.4225  0.9136
  139OSM    C2S15148   2.372   1.228   6.658  0.5989  0.2154  0.0498
  139OSM    H2S15149   2.469   1.280   6.670 -0.1609  1.5339  0.6647
  139OSM    C3S15150   2.267   1.337   6.669  0.5196 -0.4490  0.0229
  139OSM    H3S15151   2.169   1.287   6.652  0.5114 -0.1727 -0.7932
  139OSM     O315152   2.282   1.441   6.576  0.0769  0.4145  1.1115
  139OSM    HO315153   2.317   1.389   6.504  0.4767 -0.4341  1.9010
  139OSM    C4S15154   2.273   1.402   6.807 -0.2194  0.5692  0.4784
  139OSM    H4S15155   2.346   1.482   6.821  0.6336  0.1645 -1.3323
  139OSM    C5S15156   2.182   1.380   6.900 -0.3613  0.0768  0.6967
  139OSM    H5S15157   2.103   1.307   6.875  0.6559 -1.5101  1.9402
  139OSM    C6S15158   2.198   1.452   7.029  0.3697 -0.0358 -0.4401
  139OSM    H6S15159   2.118   1.527   7.038  0.6017  0.1214  0.3756
  139OSM    H6T15160   2.288   1.517   7.038  0.0909  0.2416  0.4250
  139OSM    C7S15161   2.195   1.364   7.160  0.9532 -0.0136 -0.6106
  139OSM    H7S15162   2.289   1.304   7.163  1.9258  1.4081 -1.4800
  139OSM    H7T15163   2.111   1.292   7.146  1.3701 -0.4115 -1.1606
  139OSM    C8S15164   2.173   1.456   7.276 -0.6401 -0.1096  0.2241
  139OSM    H8S15165   2.074   1.505   7.271 -0.2756  0.5432 -1.6796
  139OSM    H8T15166   2.248   1.538   7.277  0.9804 -1.5336 -0.0360
  139OSM    C9S15167   2.191   1.386   7.409 -0.1771 -0.4355  0.2167
  139OSM    H9S15168   2.297   1.352   7.409  0.1905  0.6636 -0.3693
  139OSM    H9T15169   2.118   1.303   7.399 -2.5254  1.4251  1.0155
  139OSM   C10S15170   2.162   1.471   7.531  0.1996  0.1397 -0.0857
  139OSM   H10S15171   2.052   1.487   7.533  0.2784  0.6682  1.6421
  139OSM   H10T15172   2.213   1.569   7.513  2.5232 -0.6615  1.7275
  139OSM   C11S15173   2.197   1.417   7.662  0.2035  0.1362  0.4957
  139OSM   H11S15174   2.307   1.417   7.681  0.2355  1.8873  0.4165
  139OSM   H11T15175   2.159   1.313   7.675 -0.1683  0.3025  0.7086
  139OSM   C12S15176   2.148   1.490   7.780 -0.3012 -0.2763 -0.4929
  139OSM   H12S15177   2.038   1.499   7.783 -0.1588  1.4712  0.6144
  139OSM   H12T15178   2.186   1.594   7.768 -1.3680 -0.1135 -3.5436
  139OSM   C13S15179   2.201   1.419   7.908 -0.5750  0.4831 -0.1097
  139OSM   H13S15180   2.296   1.361   7.896 -1.4091 -0.8794 -0.3951
  139OSM   H13T15181   2.123   1.344   7.932  1.7418 -2.3992 -0.8823
  139OSM   C14S15182   2.231   1.520   8.021  0.1780  0.0705 -0.6880
  139OSM   H14S15183   2.143   1.583   8.044  0.4298 -0.0845  0.7813
  139OSM   H14T15184   2.308   1.593   7.985  0.1751  0.9963  1.0610
  139OSM   C15S15185   2.286   1.453   8.146  0.5562  0.6979 -0.5162
  139OSM   H15S15186   2.361   1.374   8.126  0.2985 -0.2047  1.7833
  139OSM   H15T15187   2.207   1.395   8.198  2.2191 -1.7035 -0.4773
  139OSM   C16S15188   2.343   1.542   8.258 -0.0670 -0.0969 -0.0616
  139OSM   H16S15189   2.275   1.618   8.302  1.4706  1.6555 -0.5826
  139OSM   H16T15190   2.429   1.597   8.213 -1.6483  1.3471 -1.4356
  139OSM   C17S15191   2.390   1.474   8.386  0.1295  0.0759 -0.2257
  139OSM   H17S15192   2.463   1.391   8.376  0.4863  0.1993  1.1558
  139OSM   H17T15193   2.295   1.426   8.417 -0.9332  0.3106 -2.8079
  139OSM   C18S15194   2.446   1.571   8.498  0.3785  0.1962  0.9398
  139OSM   H18S15195   2.548   1.592   8.459 -0.2150 -1.6881 -1.9416
  139OSM   H18T15196   2.447   1.535   8.603 -3.4321  1.8738  1.7192
  139OSM   H18U15197   2.385   1.664   8.506 -0.3435  0.1960 -2.5930
  139OSM    C1F15198   2.447   1.030   6.775 -0.9092  0.2153 -0.4870
  139OSM     OF15199   2.547   1.033   6.704  0.8180 -0.1206 -0.8552
  139OSM    C2F15200   2.425   0.934   6.893  0.3925  0.1084 -0.2406
  139OSM    H2F15201   2.516   0.871   6.907 -0.8679 -1.4274  1.3866
  139OSM    H2G15202   2.341   0.871   6.858  2.2152 -1.7208 -1.6219
  139OSM    C3F15203   2.401   1.022   7.020 -0.3603  0.4426 -0.1717
  139OSM    H3F15204   2.316   1.093   7.010 -0.3621  0.3243 -1.0408
  139OSM    H3G15205   2.496   1.074   7.046  0.7938 -0.9143 -1.5422
  139OSM    C4F15206   2.365   0.927   7.134 -0.2648  0.6602 -0.5384
  139OSM    H4F15207   2.454   0.865   7.158 -0.2451  0.4652 -1.0871
  139OSM    H4G15208   2.282   0.858   7.107  0.7211 -1.3661  1.2633
  139OSM    C5F15209   2.310   1.007   7.252 -0.3861 -0.3944 -0.1115
  139OSM    H5F15210   2.200   1.012   7.234 -0.4334 -0.4782  0.1451
  139OSM    H5G15211   2.360   1.105   7.253 -1.6119  0.2527  0.5445
  139OSM    C6F15212   2.323   0.943   7.395 -0.0628 -0.1427  0.0075
  139OSM    H6F15213   2.433   0.925   7.399  0.4807  1.5848 -3.3111
  139OSM    H6G15214   2.264   0.849   7.400  1.7421 -1.2679  3.3990
  139OSM    C7F15215   2.284   1.042   7.504 -0.7559 -0.2557  0.3213
  139OSM    H7F15216   2.178   1.067   7.484 -0.5761 -0.8925 -1.6272
  139OSM    H7G15217   2.340   1.134   7.477 -0.8582 -0.3326 -0.1608
  139OSM    C8F15218   2.325   0.995   7.641  0.0407 -0.6366 -0.9685
  139OSM    H8F15219   2.320   1.073   7.719  0.3228 -2.1609  0.6346
  139OSM    H8G15220   2.427   0.950   7.649  0.1298 -0.4614 -1.1080
  139OSM    C9F15221   2.240   0.878   7.688 -0.2592 -0.0824  0.1979
  139OSM    H9F15222   2.219   0.803   7.610 -1.2604  0.2107  0.1739
  139OSM   C10F15223   2.206   0.854   7.819 -0.1942 -0.1956  0.4118
  139OSM   H10F15224   2.148   0.763   7.842 -0.7995 -0.0483 -0.4818
  139OSM   C11F15225   2.242   0.940   7.942  0.4550 -0.7367 -0.4968
  139OSM   H11F15226   2.322   1.012   7.916  0.0146 -0.2682 -0.5830
  139OSM   H11G15227   2.299   0.864   8.000 -0.2466 -1.9010 -1.2833
  139OSM   C12F15228   2.123   0.993   8.017 -0.6527 -0.1849 -0.1812
  139OSM   H12F15229   2.044   0.916   8.023 -0.3960 -0.3531  2.8372
  139OSM   H12G15230   2.090   1.085   7.965  0.5316 -0.3595 -1.2894
  139OSM   C13F15231   2.172   1.025   8.156 -0.2821  0.2560  0.2575
  139OSM   H13F15232   2.274   1.069   8.157 -0.1975  0.0867  1.6664
  139OSM   H13G15233   2.190   0.929   8.208  2.5182  0.4350 -0.2200
  139OSM   C14F15234   2.064   1.102   8.232  0.0358 -0.4815  0.4561
  139OSM   H14F15235   1.969   1.046   8.247 -1.6461  1.1304 -2.9252
  139OSM   H14G15236   2.041   1.199   8.182  1.2134 -0.2410  0.3528
  139OSM   C15F15237   2.123   1.156   8.370 -0.1676 -0.3069 -0.4239
  139OSM   H15F15238   2.214   1.219   8.358  0.0721 -0.2829  1.2524
  139OSM   H15G15239   2.147   1.068   8.432 -2.1690 -1.1310 -0.7508
  139OSM   C16F15240   2.019   1.227   8.461  0.0659 -0.1636  0.0119
  139OSM   H16F15241   1.926   1.173   8.488 -1.2135  1.5141 -0.8779
  139OSM   H16G15242   1.980   1.315   8.406 -1.7713 -0.1757  1.2124
  139OSM   C17F15243   2.068   1.283   8.593 -0.0410  0.0859  0.7514
  139OSM   H17F15244   2.144   1.360   8.565 -0.5643 -0.0577 -1.2157
  139OSM   H17G15245   2.134   1.206   8.639 -2.4570 -1.9017  1.0666
  139OSM   C18F15246   1.957   1.313   8.693  0.2280 -0.9773  0.6798
  139OSM   H18F15247   1.895   1.392   8.644  1.4576 -0.0931  0.5060
  139OSM   H18G15248   1.998   1.356   8.787  1.9242 -0.9657 -0.0303
  139OSM   H18H15249   1.902   1.220   8.720 -0.5075 -0.8534 -0.2947
  140OSM      N15250   2.906   1.559   6.196 -0.2342 -0.4529 -0.2963
  140OSM    C1515251   2.933   1.658   6.087 -0.1822 -0.2275  0.3447
  140OSM   H15A15252   2.999   1.735   6.126  1.3200 -1.6629  0.7697
  140OSM   H15B15253   2.837   1.701   6.065 -0.9498 -1.4701  1.1704
  140OSM   H15C15254   2.977   1.612   6.001  0.9022  1.9443 -0.3457
  140OSM    C1415255   3.039   1.481   6.215  0.0158  0.1198  0.1184
  140OSM   H14A15256   3.035   1.409   6.295 -0.5570 -0.9292 -0.8396
  140OSM   H14B15257   3.131   1.537   6.226  1.1433 -1.3628 -1.3142
  140OSM   H14C15258   3.046   1.421   6.126  0.6154 -2.5392  1.8532
  140OSM    C1315259   2.869   1.622   6.332  0.3024  0.1527  0.5733
  140OSM   H13A15260   2.783   1.685   6.316 -0.2006 -1.1879 -2.9718
  140OSM   H13B15261   2.954   1.678   6.368 -0.5824  0.1297  2.8945
  140OSM   H13C15262   2.846   1.551   6.411 -0.5377  0.2275  0.4045
  140OSM    C1215263   2.779   1.478   6.163 -0.8169 -0.0629 -0.1664
  140OSM   H12A15264   2.694   1.543   6.153 -1.0139 -0.0653  1.3062
  140OSM   H12B15265   2.760   1.414   6.248 -1.3414 -0.7170 -0.7643
  140OSM    C1115266   2.785   1.396   6.034 -0.5637 -0.4694  0.0454
  140OSM   H11A15267   2.817   1.472   5.960  0.5608  0.7764  1.7438
  140OSM   H11B15268   2.689   1.356   5.995 -1.3378  0.8460  0.5666
  140OSM      P15269   2.889   1.170   6.129  0.2129 -0.0576 -0.3614
  140OSM    O1315270   2.819   1.059   6.066 -0.1821  0.6586  0.5860
  140OSM    O1415271   3.029   1.152   6.176 -0.7060 -0.5585  0.2397
  140OSM    O1115272   2.805   1.214   6.256  0.1923 -0.3988  0.8318
  140OSM    O1215273   2.881   1.293   6.030  0.1426 -0.1838  0.0653
  140OSM    C1S15274   2.711   1.124   6.316 -0.0561 -0.1225  0.0227
  140OSM    H1S15275   2.673   1.049   6.244 -0.5654 -1.7831  1.9267
  140OSM    H1T15276   2.615   1.177   6.333 -0.4881  0.1214 -2.8181
  140OSM     NF15277   2.681   0.943   6.488  0.0631 -0.2588  0.4959
  140OSM    HNF15278   2.626   0.965   6.568 -1.6527 -0.8496 -0.4625
  140OSM    C2S15279   2.775   1.049   6.438  0.1987  0.9101  0.5380
  140OSM    H2S15280   2.861   0.994   6.393 -1.3136 -1.3950  0.3416
  140OSM    C3S15281   2.817   1.149   6.546 -0.9290 -0.3724 -0.2560
  140OSM    H3S15282   2.733   1.208   6.587 -1.2550 -0.8862 -0.1832
  140OSM     O315283   2.902   1.262   6.515 -0.5150  0.1629  0.6968
  140OSM    HO315284   2.893   1.263   6.420 -0.8404 -0.6587  0.7062
  140OSM    C4S15285   2.870   1.073   6.660  0.3327 -0.0604  0.7619
  140OSM    H4S15286   2.793   1.035   6.728  1.5111 -2.7354  0.7353
  140OSM    C5S15287   2.999   1.059   6.692 -0.0937  0.6527 -0.1692
  140OSM    H5S15288   3.081   1.102   6.633  0.0379  0.0967 -0.3973
  140OSM    C6S15289   3.040   0.991   6.820 -0.2017  0.0632 -0.1404
  140OSM    H6S15290   3.148   1.016   6.824 -0.4770  1.0886  2.1572
  140OSM    H6T15291   3.017   0.882   6.817 -0.1205  0.0376  0.1789
  140OSM    C7S15292   2.979   1.039   6.950 -0.3744 -0.4572  0.6980
  140OSM    H7S15293   2.874   1.003   6.947 -0.6020 -0.0303 -3.8023
  140OSM    H7T15294   2.975   1.150   6.947  0.3571 -0.4273  0.4041
  140OSM    C8S15295   3.064   1.017   7.070 -0.4827  0.4544 -0.4116
  140OSM    H8S15296   3.169   1.027   7.039  0.5670 -1.2982  2.1610
  140OSM    H8T15297   3.055   0.911   7.104  1.6059  0.6620  0.9349
  140OSM    C9S15298   3.038   1.114   7.191 -0.9100  0.8479  0.3093
  140OSM    H9S15299   2.930   1.101   7.216 -0.9913  0.0340 -0.4091
  140OSM    H9T15300   3.059   1.215   7.150  2.0015 -0.8093 -2.8244
  140OSM   C10S15301   3.119   1.093   7.323  0.2703 -0.0302  0.1257
  140OSM   H10S15302   3.228   1.107   7.310  0.0426  1.0855 -0.7669
  140OSM   H10T15303   3.096   0.988   7.352 -1.4734  0.2288 -0.1986
  140OSM   C11S15304   3.086   1.184   7.438 -0.1070  0.1436 -0.7395
  140OSM   H11S15305   2.976   1.182   7.453 -0.0591 -2.1502 -0.4441
  140OSM   H11T15306   3.128   1.283   7.409  3.7210 -1.6487 -2.0318
  140OSM   C12S15307   3.149   1.131   7.559 -0.1645  0.2177  0.2825
  140OSM   H12S15308   3.260   1.122   7.549  0.4032  1.9113  3.5285
  140OSM   H12T15309   3.103   1.030   7.571 -1.2293  0.8608  2.0061
  140OSM   C13S15310   3.117   1.206   7.693  0.4188  0.5824 -0.0226
  140OSM   H13S15311   3.007   1.215   7.699  0.3773  0.2962 -0.3181
  140OSM   H13T15312   3.154   1.310   7.693  1.0946  0.3618  0.8483
  140OSM   C14S15313   3.171   1.129   7.811 -0.3487  0.7202  0.1418
  140OSM   H14S15314   3.281   1.119   7.796 -0.4592  1.4496 -1.3324
  140OSM   H14T15315   3.122   1.029   7.808  1.4304 -0.2689  1.6230
  140OSM   C15S15316   3.136   1.197   7.947  0.1372  0.0792 -0.5130
  140OSM   H15S15317   3.032   1.234   7.939 -0.4513 -1.3891 -0.0345
  140OSM   H15T15318   3.192   1.291   7.968  0.0517 -0.3006  1.5763
  140OSM   C16S15319   3.153   1.099   8.064  0.5638 -0.1236  0.2417
  140OSM   H16S15320   3.256   1.058   8.055  1.4350  2.1535 -0.8186
  140OSM   H16T15321   3.079   1.016   8.067  0.1581  0.2004 -0.4732
  140OSM   C17S15322   3.142   1.161   8.203  0.0240 -0.6091 -0.4698
  140OSM   H17S15323   3.038   1.191   8.230  0.1808 -0.8027  0.3565
  140OSM   H17T15324   3.199   1.256   8.214 -0.5964 -0.4183  1.3003
  140OSM   C18S15325   3.192   1.059   8.306 -0.2374  0.0634 -0.0305
  140OSM   H18S15326   3.301   1.058   8.283 -0.3916  1.3536 -0.9029
  140OSM   H18T15327   3.154   0.954   8.303 -1.0087  0.3550 -0.9821
  140OSM   H18U15328   3.176   1.096   8.409  0.2274  0.6760 -0.1707
  140OSM    C1F15329   2.643   0.832   6.425 -0.0580  0.7126  0.5853
  140OSM     OF15330   2.679   0.807   6.310 -0.6251  0.1502 -0.3030
  140OSM    C2F15331   2.551   0.731   6.495  0.6559 -0.0238 -0.4221
  140OSM    H2F15332   2.469   0.716   6.421  1.8970  0.0858 -1.8537
  140OSM    H2G15333   2.504   0.785   6.580 -1.8433 -0.0909 -1.6728
  140OSM    C3F15334   2.621   0.603   6.523  0.1236 -0.6991  0.0159
  140OSM    H3F15335   2.675   0.566   6.433 -0.4527 -2.5624  0.3820
  140OSM    H3G15336   2.541   0.529   6.545  0.0093 -0.4826  0.3284
  140OSM    C4F15337   2.725   0.617   6.638 -0.3599 -0.6055 -0.0506
  140OSM    H4F15338   2.793   0.700   6.609  0.1165 -1.7519 -2.4697
  140OSM    H4G15339   2.795   0.532   6.643 -0.0157 -0.3883 -0.9301
  140OSM    C5F15340   2.663   0.641   6.776 -0.0470  0.0324 -0.2785
  140OSM    H5F15341   2.604   0.549   6.794  0.9776 -0.2188  2.2086
  140OSM    H5G15342   2.590   0.725   6.777  1.6772  1.7572 -3.3102
  140OSM    C6F15343   2.760   0.641   6.893 -0.5421 -0.0645  0.4741
  140OSM    H6F15344   2.839   0.717   6.874 -1.3875  0.3653 -1.4911
  140OSM    H6G15345   2.812   0.544   6.905  1.4018  0.5126 -2.3181
  140OSM    C7F15346   2.681   0.653   7.030 -0.4150 -0.1890 -0.0402
  140OSM    H7F15347   2.587   0.595   7.014 -1.0922  0.7968  0.2811
  140OSM    H7G15348   2.658   0.761   7.035  0.3146 -0.1063  2.7097
  140OSM    C8F15349   2.761   0.610   7.152  0.1100  0.3465  0.1981
  140OSM    H8F15350   2.761   0.499   7.143 -3.9558 -0.0721  2.8504
  140OSM    H8G15351   2.694   0.626   7.239 -1.2362  0.5214 -0.8374
  140OSM    C9F15352   2.900   0.664   7.170  1.1694  0.2959 -0.0933
  140OSM    H9F15353   2.988   0.617   7.124  0.5288 -1.2572  0.2304
  140OSM   C10F15354   2.934   0.751   7.271 -0.2922  0.1132  0.4783
  140OSM   H10F15355   3.040   0.777   7.284  0.8582 -3.3134 -0.8460
  140OSM   C11F15356   2.838   0.835   7.355  0.1300 -0.2911  0.1565
  140OSM   H11F15357   2.738   0.821   7.309  0.6890 -1.0246 -0.8776
  140OSM   H11G15358   2.864   0.940   7.333 -0.0527  0.1675  1.9427
  140OSM   C12F15359   2.837   0.802   7.502  0.2317 -0.0267 -0.7034
  140OSM   H12F15360   2.941   0.822   7.536 -0.7435  2.3546  1.1519
  140OSM   H12G15361   2.809   0.696   7.518 -1.0311  0.0222 -2.2885
  140OSM   C13F15362   2.736   0.884   7.590  1.0202 -0.0241 -0.0921
  140OSM   H13F15363   2.632   0.872   7.552  1.0407 -1.0686  0.1536
  140OSM   H13G15364   2.765   0.991   7.586  1.7510 -0.1626  0.9759
  140OSM   C14F15365   2.716   0.827   7.733 -0.6172  0.0252  0.5619
  140OSM   H14F15366   2.818   0.791   7.757 -0.6531  0.0231  0.7120
  140OSM   H14G15367   2.655   0.735   7.720  2.7446 -2.2043 -0.5315
  140OSM   C15F15368   2.653   0.917   7.842 -0.3013  0.6432  0.1709
  140OSM   H15F15369   2.645   0.847   7.928  0.0883  0.1691 -0.1742
  140OSM   H15G15370   2.547   0.944   7.821 -0.5203 -0.9668 -0.9518
  140OSM   C16F15371   2.745   1.026   7.901 -0.5021  0.5345 -0.0468
  140OSM   H16F15372   2.778   1.103   7.828  1.6572  0.3332  0.6414
  140OSM   H16G15373   2.837   0.975   7.937 -0.6977  0.7523  0.7840
  140OSM   C17F15374   2.678   1.088   8.025 -0.1749 -0.3334  0.2688
  140OSM   H17F15375   2.636   1.003   8.084  1.5075 -1.5435 -0.2056
  140OSM   H17G15376   2.598   1.157   7.988  2.1834  1.4117 -1.9476
  140OSM   C18F15377   2.781   1.178   8.100  0.4735  0.4969  0.9248
  140OSM   H18F15378   2.815   1.253   8.025  3.2874 -0.6002  0.9773
  140OSM   H18G15379   2.861   1.117   8.146  1.0955  0.1459 -0.5624
  140OSM   H18H15380   2.742   1.243   8.182 -2.0944  2.5898 -1.7395
  141OSM      N15381   0.896   2.437   6.045  0.1919 -0.5595 -0.1004
  141OSM    C1515382   0.791   2.446   5.940  0.2602 -0.5390 -0.3131
  141OSM   H15A15383   0.707   2.381   5.960  0.2281 -0.4237 -0.0620
  141OSM   H15B15384   0.818   2.434   5.836 -5.9560 -0.6265 -2.3278
  141OSM   H15C15385   0.758   2.548   5.937  0.2184 -0.5378  0.0741
  141OSM    C1415386   0.966   2.307   6.043  0.3464  0.0719 -0.7502
  141OSM   H14A15387   1.055   2.309   6.104  0.2130 -0.8520 -0.4984
  141OSM   H14B15388   1.008   2.287   5.945  1.3039 -1.5955 -0.0465
  141OSM   H14C15389   0.903   2.231   6.088 -0.9394  1.7477  0.3768
  141OSM    C1315390   0.997   2.550   6.022  0.3419 -0.4513 -0.4033
  141OSM   H13A15391   1.059   2.555   6.110  1.7127 -2.3613 -1.2047
  141OSM   H13B15392   0.947   2.646   6.015  0.5065  0.0661  3.4000
  141OSM   H13C15393   1.074   2.528   5.949  1.6976  1.0392  0.5079
  141OSM    C1215394   0.834   2.464   6.183 -0.2989  0.7093 -0.2500
  141OSM   H12A15395   0.765   2.546   6.169 -1.1619 -0.1669 -1.3425
  141OSM   H12B15396   0.909   2.488   6.257 -0.0449 -0.7506  0.0067
  141OSM    C1115397   0.744   2.349   6.245  0.5397 -0.6165 -0.6186
  141OSM   H11A15398   0.702   2.407   6.331 -0.6562 -0.5901 -1.1927
  141OSM   H11B15399   0.802   2.269   6.296  0.1331 -1.2104 -1.0709
  141OSM      P15400   0.486   2.342   6.184 -0.0233  0.5936 -0.1407
  141OSM    O1315401   0.475   2.481   6.234 -0.0812  0.7032  0.6812
  141OSM    O1415402   0.419   2.303   6.059 -0.6420  0.5013  0.4690
  141OSM    O1115403   0.411   2.253   6.290 -0.6498  0.0438 -0.7209
  141OSM    O1215404   0.633   2.288   6.170  0.5230 -0.4180  0.2911
  141OSM    C1S15405   0.475   2.200   6.409  0.2878  0.5662 -0.1270
  141OSM    H1S15406   0.577   2.160   6.389 -0.8159 -2.7425  0.2243
  141OSM    H1T15407   0.415   2.110   6.437  0.0610  0.7685  0.0379
  141OSM     NF15408   0.550   2.255   6.652  0.7618 -0.2279  0.2653
  141OSM    HNF15409   0.505   2.229   6.737 -0.8743  0.6147 -0.3036
  141OSM    C2S15410   0.471   2.304   6.534 -0.5537 -0.7018 -0.4464
  141OSM    H2S15411   0.532   2.390   6.500 -1.7751 -0.7700 -2.9965
  141OSM    C3S15412   0.332   2.368   6.577 -0.2199 -0.0259  0.3815
  141OSM    H3S15413   0.279   2.292   6.639 -3.1579 -0.3704 -2.3000
  141OSM     O315414   0.241   2.393   6.466  0.4704  0.2431  0.0510
  141OSM    HO315415   0.295   2.367   6.391 -0.5341 -0.6912 -0.3782
  141OSM    C4S15416   0.329   2.504   6.645  0.2902 -0.7937  0.1097
  141OSM    H4S15417   0.358   2.588   6.581 -2.4378 -0.3918 -0.7032
  141OSM    C5S15418   0.292   2.533   6.777  0.3043 -0.3986  0.3797
  141OSM    H5S15419   0.237   2.462   6.840 -0.3443 -1.1711 -1.0171
  141OSM    C6S15420   0.298   2.674   6.827 -0.4380 -0.4227  0.2602
  141OSM    H6S15421   0.195   2.714   6.822  0.0670  0.8521 -3.1218
  141OSM    H6T15422   0.360   2.739   6.762  0.8878 -1.6175  0.2739
  141OSM    C7S15423   0.346   2.695   6.973  0.1140 -0.4609  0.4513
  141OSM    H7S15424   0.367   2.804   6.984 -1.2087 -0.2306  0.9343
  141OSM    H7T15425   0.445   2.648   6.988 -0.4951 -2.4260 -1.1287
  141OSM    C8S15426   0.245   2.656   7.080 -0.9512  0.2596 -0.1122
  141OSM    H8S15427   0.228   2.547   7.083  2.4474 -0.4535 -1.7517
  141OSM    H8T15428   0.149   2.711   7.067 -0.2577  1.9264  1.3974
  141OSM    C9S15429   0.311   2.682   7.220  1.8056 -0.1921 -0.0825
  141OSM    H9S15430   0.324   2.792   7.229 -3.9512  0.7305  1.2234
  141OSM    H9T15431   0.408   2.633   7.240  1.6157 -0.2775  0.6676
  141OSM   C10S15432   0.213   2.633   7.327  0.6106  0.0512  0.6177
  141OSM   H10S15433   0.210   2.523   7.312 -3.1772  0.2252 -0.8999
  141OSM   H10T15434   0.108   2.668   7.327  0.5651  0.0486  2.4948
  141OSM   C11S15435   0.261   2.657   7.470 -0.0469  0.4022 -0.1248
  141OSM   H11S15436   0.275   2.766   7.481  0.2247  0.6824 -2.5769
  141OSM   H11T15437   0.357   2.602   7.481 -1.6411 -2.1486  2.4901
  141OSM   C12S15438   0.173   2.605   7.576  0.1801 -0.1408  0.2953
  141OSM   H12S15439   0.165   2.496   7.558 -0.8705  0.0780 -0.6187
  141OSM   H12T15440   0.068   2.635   7.559 -0.3919 -2.7516 -1.3103
  141OSM   C13S15441   0.216   2.634   7.717 -0.0607 -0.8641 -0.5106
  141OSM   H13S15442   0.190   2.741   7.731 -0.1009 -0.8705 -0.5354
  141OSM   H13T15443   0.327   2.625   7.717 -0.2035 -3.2899  0.0013
  141OSM   C14S15444   0.153   2.544   7.820 -0.3031 -0.0851  0.2071
  141OSM   H14S15445   0.101   2.460   7.770  0.1840  0.3286 -1.0424
  141OSM   H14T15446   0.075   2.609   7.865 -1.7873 -0.1730 -2.0666
  141OSM   C15S15447   0.258   2.494   7.927  0.1072 -0.1053 -0.2726
  141OSM   H15S15448   0.328   2.577   7.949  4.7469 -3.6022 -0.2514
  141OSM   H15T15449   0.316   2.411   7.882 -0.6807 -1.0083  0.3266
  141OSM   C16S15450   0.195   2.455   8.059 -0.6851 -0.5021 -0.1442
  141OSM   H16S15451   0.130   2.366   8.047  0.3684 -1.2289 -0.6184
  141OSM   H16T15452   0.136   2.544   8.089 -0.7574  0.7373 -3.5889
  141OSM   C17S15453   0.296   2.415   8.172  0.5977 -0.3030  0.4373
  141OSM   H17S15454   0.252   2.387   8.270  2.2619  1.0406  1.6209
  141OSM   H17T15455   0.367   2.500   8.181 -2.5221  2.7577 -1.4148
  141OSM   C18S15456   0.373   2.284   8.137  0.3472 -0.6901 -0.2127
  141OSM   H18S15457   0.441   2.297   8.051 -0.6334 -0.8408 -1.0333
  141OSM   H18T15458   0.302   2.207   8.101  1.6465 -0.8429 -2.6144
  141OSM   H18U15459   0.432   2.252   8.226 -0.4055  0.5554  0.7652
  141OSM    C1F15460   0.681   2.231   6.647  0.3618 -0.3520  0.1327
  141OSM     OF15461   0.744   2.236   6.545 -0.2688  0.2477  0.0032
  141OSM    C2F15462   0.739   2.204   6.788  0.1986  1.3049  1.5660
  141OSM    H2F15463   0.761   2.095   6.796 -0.8995  1.0608  1.4128
  141OSM    H2G15464   0.661   2.235   6.860 -0.5986  1.3183  0.7107
  141OSM    C3F15465   0.877   2.275   6.793 -0.3358  0.2973 -0.1289
  141OSM    H3F15466   0.858   2.382   6.772 -0.3741  0.0736 -1.3003
  141OSM    H3G15467   0.944   2.238   6.713  1.7770 -0.3953  1.8269
  141OSM    C4F15468   0.955   2.249   6.923 -0.3321 -0.2585 -0.0267
  141OSM    H4F15469   0.959   2.139   6.934 -0.3343 -0.4181 -1.4352
  141OSM    H4G15470   0.901   2.285   7.013 -1.8804 -2.8715  0.1819
  141OSM    C5F15471   1.091   2.320   6.911  0.3710  0.8865  0.3546
  141OSM    H5F15472   1.063   2.428   6.905 -1.7762  0.3044 -2.4427
  141OSM    H5G15473   1.140   2.289   6.817 -0.6693 -1.2137  0.4522
  141OSM    C6F15474   1.181   2.285   7.033  0.0760 -0.2805 -0.2388
  141OSM    H6F15475   1.286   2.317   7.018  0.4692 -0.3592  1.9203
  141OSM    H6G15476   1.187   2.178   7.061  0.8360  0.0674  1.0254
  141OSM    C7F15477   1.135   2.356   7.165 -0.2905  0.0219  0.6407
  141OSM    H7F15478   1.034   2.323   7.196 -0.1004 -0.0842  1.1465
  141OSM    H7G15479   1.131   2.464   7.142 -1.5672 -0.2160 -0.3856
  141OSM    C8F15480   1.241   2.344   7.281  0.0706  0.3348 -1.1667
  141OSM    H8F15481   1.340   2.347   7.232  1.1723 -1.3236  0.8053
  141OSM    H8G15482   1.242   2.240   7.320 -1.5934  0.4932 -0.5963
  141OSM    C9F15483   1.225   2.453   7.387 -0.8727  0.0468  0.6747
  141OSM    H9F15484   1.260   2.554   7.360 -1.2321  0.3756  1.4143
  141OSM   C10F15485   1.193   2.429   7.512 -0.5019 -0.2894 -0.8858
  141OSM   H10F15486   1.180   2.513   7.583 -1.3647 -1.5094  0.4690
  141OSM   C11F15487   1.147   2.300   7.572  0.4908 -0.3608  0.3835
  141OSM   H11F15488   1.208   2.216   7.532 -0.8916 -0.7232 -1.0626
  141OSM   H11G15489   1.041   2.279   7.547  0.1350 -0.8742  2.1965
  141OSM   C12F15490   1.159   2.286   7.720 -0.3830  0.2014 -0.5467
  141OSM   H12F15491   1.120   2.190   7.762 -0.2764  1.1818  1.9876
  141OSM   H12G15492   1.097   2.368   7.762  0.6381 -0.0587  1.6074
  141OSM   C13F15493   1.311   2.301   7.761 -0.0312  0.2055  0.0460
  141OSM   H13F15494   1.343   2.404   7.735  1.0057 -0.2387 -0.4921
  141OSM   H13G15495   1.377   2.236   7.700  0.0340  0.7551 -0.4869
  141OSM   C14F15496   1.327   2.291   7.914 -0.0519 -0.2038  0.2644
  141OSM   H14F15497   1.314   2.186   7.945  1.5754 -0.6630 -0.4671
  141OSM   H14G15498   1.254   2.356   7.967  1.4953  1.6047  0.3026
  141OSM   C15F15499   1.470   2.333   7.952 -0.5532 -0.6664 -0.4984
  141OSM   H15F15500   1.488   2.434   7.910 -0.6458 -1.5726 -2.8708
  141OSM   H15G15501   1.547   2.267   7.907  0.6046  0.6288 -0.4714
  141OSM   C16F15502   1.494   2.343   8.099  0.1728 -0.1958 -0.0840
  141OSM   H16F15503   1.455   2.249   8.144  1.2069 -1.2821 -1.3845
  141OSM   H16G15504   1.413   2.412   8.131 -2.9242 -3.0486 -1.1468
  141OSM   C17F15505   1.636   2.385   8.139  0.0040 -0.5384 -0.2958
  141OSM   H17F15506   1.665   2.398   8.245  2.3616  0.3842 -1.0020
  141OSM   H17G15507   1.644   2.489   8.101 -0.9900  0.0665  1.0605
  141OSM   C18F15508   1.752   2.307   8.075  0.1239  0.0022 -0.3745
  141OSM   H18F15509   1.783   2.337   7.972  0.1782 -1.9023 -0.9446
  141OSM   H18G15510   1.730   2.199   8.087  2.4996 -0.5001 -0.0454
  141OSM   H18H15511   1.848   2.321   8.130  0.3672 -2.2946 -0.1203
  142OSM      N15512   1.418   6.118   6.190 -0.5369  0.4046  0.2194
  142OSM    C1515513   1.541   6.203   6.191 -0.1883  0.6358 -0.0136
  142OSM   H15A15514   1.627   6.153   6.232 -1.3416 -1.3545  0.1204
  142OSM   H15B15515   1.514   6.286   6.254 -1.7892 -1.2304  1.8946
  142OSM   H15C15516   1.574   6.235   6.093 -0.8209  2.1530  0.2356
  142OSM    C1415517   1.411   6.056   6.326  0.1625  0.3090 -0.5121
  142OSM   H14A15518   1.498   5.992   6.335 -0.7494 -1.1723 -1.6738
  142OSM   H14B15519   1.326   5.992   6.343  0.3752  0.3895  0.9238
  142OSM   H14C15520   1.410   6.133   6.400 -1.3909 -2.3002  2.4273
  142OSM    C1315521   1.292   6.203   6.168  0.5170 -0.0998 -0.4524
  142OSM   H13A15522   1.213   6.140   6.131  0.6011  1.0807 -2.8176
  142OSM   H13B15523   1.307   6.280   6.094  0.1431  1.9105  1.4489
  142OSM   H13C15524   1.250   6.255   6.253  0.7318  0.1764 -0.5109
  142OSM    C1215525   1.432   6.011   6.088  0.7991  0.3285 -0.3603
  142OSM   H12A15526   1.358   5.933   6.093  1.3455 -0.3590 -2.0620
  142OSM   H12B15527   1.509   5.947   6.130  0.2403  1.7500  3.2204
  142OSM    C1115528   1.461   6.051   5.945  0.1771 -0.8462 -0.3983
  142OSM   H11A15529   1.410   6.148   5.927  0.8839 -0.4497 -0.2618
  142OSM   H11B15530   1.424   5.970   5.878  2.0139 -0.8639 -1.4462
  142OSM      P15531   1.680   5.934   5.913 -0.0850  0.1194  0.1417
  142OSM    O1315532   1.618   5.832   5.820 -0.2839 -1.0289 -0.4058
  142OSM    O1415533   1.820   5.972   5.885 -0.1766  0.5191  0.5025
  142OSM    O1115534   1.672   5.867   6.059 -0.3056 -0.4953 -0.1810
  142OSM    O1215535   1.601   6.072   5.926  0.0159  0.3273 -0.3602
  142OSM    C1S15536   1.780   5.893   6.152 -0.6494 -0.7648 -0.1475
  142OSM    H1S15537   1.778   5.996   6.193  0.7661 -0.7878  0.0435
  142OSM    H1T15538   1.878   5.886   6.100  0.3783  0.0314  1.6198
  142OSM     NF15539   1.867   5.856   6.377 -0.1833 -0.7841 -0.2131
  142OSM    HNF15540   1.962   5.827   6.387 -0.4452 -2.2853 -1.5169
  142OSM    C2S15541   1.788   5.795   6.273 -0.2150  0.3911 -0.0469
  142OSM    H2S15542   1.681   5.797   6.305 -0.1716 -0.9168  0.2450
  142OSM    C3S15543   1.825   5.650   6.232  0.2547 -0.2248 -0.0752
  142OSM    H3S15544   1.933   5.654   6.207 -0.4362 -0.5076 -3.5963
  142OSM     O315545   1.775   5.598   6.112 -0.4628 -0.4985  0.2845
  142OSM    HO315546   1.716   5.665   6.078  0.5233 -0.9157 -2.4862
  142OSM    C4S15547   1.785   5.554   6.346  0.2719  0.1560  0.3922
  142OSM    H4S15548   1.677   5.548   6.369  0.2673 -0.5326  0.2207
  142OSM    C5S15549   1.873   5.475   6.415  0.0779  0.4425  0.8797
  142OSM    H5S15550   1.980   5.473   6.391  0.1971 -2.3010  1.2715
  142OSM    C6S15551   1.810   5.383   6.519  0.2746  0.3438 -0.0370
  142OSM    H6S15552   1.844   5.279   6.500  0.5944  0.5383 -0.5560
  142OSM    H6T15553   1.703   5.372   6.493  0.0466  2.1232  0.0456
  142OSM    C7S15554   1.850   5.420   6.662  0.3736 -0.9901  0.1510
  142OSM    H7S15555   1.959   5.439   6.674 -0.2815  4.4703  0.0371
  142OSM    H7T15556   1.816   5.334   6.724 -0.1300 -0.3618  0.7727
  142OSM    C8S15557   1.779   5.549   6.709 -0.8162  0.0970 -0.3172
  142OSM    H8S15558   1.671   5.547   6.682 -1.3228  0.8930  1.4889
  142OSM    H8T15559   1.825   5.633   6.653  0.7318  0.0109  0.7446
  142OSM    C9S15560   1.808   5.559   6.858  0.1566 -0.8092 -0.5870
  142OSM    H9S15561   1.915   5.584   6.877  0.3181 -2.2062  0.5318
  142OSM    H9T15562   1.791   5.459   6.903  0.6683  0.1972  2.0576
  142OSM   C10S15563   1.711   5.640   6.930  0.6252 -0.5017 -1.0726
  142OSM   H10S15564   1.609   5.601   6.909  0.6863  0.0152 -2.4673
  142OSM   H10T15565   1.720   5.749   6.913  2.7828 -0.5571 -0.6194
  142OSM   C11S15566   1.733   5.623   7.087  0.2252  0.0081  0.0270
  142OSM   H11S15567   1.824   5.679   7.115 -1.8687  2.6241  2.2040
  142OSM   H11T15568   1.743   5.517   7.119  1.2329 -0.8177 -2.6923
  142OSM   C12S15569   1.608   5.681   7.163 -0.3647 -0.1079  0.3564
  142OSM   H12S15570   1.519   5.629   7.122 -0.5658  0.9711 -0.6394
  142OSM   H12T15571   1.603   5.788   7.133 -1.6634 -1.0011 -3.1218
  142OSM   C13S15572   1.627   5.657   7.309 -0.0492 -0.0283 -0.2896
  142OSM   H13S15573   1.722   5.703   7.346 -0.8613 -0.6660  2.8396
  142OSM   H13T15574   1.624   5.548   7.330 -1.6632 -0.1474 -0.9914
  142OSM   C14S15575   1.520   5.713   7.404  1.0675 -0.4853  0.2782
  142OSM   H14S15576   1.425   5.664   7.374  0.9473 -0.8338  1.2001
  142OSM   H14T15577   1.501   5.822   7.387 -2.9119 -1.3651 -2.4708
  142OSM   C15S15578   1.534   5.696   7.559 -0.2809 -0.0572 -0.0332
  142OSM   H15S15579   1.611   5.769   7.593 -0.0826 -0.2403 -0.0885
  142OSM   H15T15580   1.575   5.595   7.583 -1.1575 -0.3767  0.1646
  142OSM   C16S15581   1.407   5.705   7.641 -0.3701 -0.8493  0.4423
  142OSM   H16S15582   1.338   5.626   7.606 -1.6656 -1.4871  4.0494
  142OSM   H16T15583   1.372   5.807   7.612  1.4692 -0.5274 -0.9048
  142OSM   C17S15584   1.417   5.690   7.794  0.2961  0.0217 -0.8361
  142OSM   H17S15585   1.502   5.746   7.840 -0.0087 -1.6983  2.0511
  142OSM   H17T15586   1.428   5.585   7.826  1.1310  0.4230  0.2640
  142OSM   C18S15587   1.285   5.742   7.862 -0.1524 -0.3237  0.4030
  142OSM   H18S15588   1.206   5.663   7.865 -3.0189  2.3208  0.0523
  142OSM   H18T15589   1.248   5.832   7.808  3.5570  0.2434 -1.4726
  142OSM   H18U15590   1.295   5.778   7.967  1.0574 -0.8363  0.4719
  142OSM    C1F15591   1.820   5.942   6.462  0.1080 -0.5824  0.0575
  142OSM     OF15592   1.712   6.008   6.446 -0.7455  0.0907  0.6920
  142OSM    C2F15593   1.910   5.971   6.576  0.1930 -0.4636 -0.3428
  142OSM    H2F15594   1.956   6.071   6.561  0.9204 -0.9047 -1.1290
  142OSM    H2G15595   1.990   5.893   6.578  0.2853 -0.3798  2.2879
  142OSM    C3F15596   1.849   5.979   6.720 -0.8538  0.2892 -1.3705
  142OSM    H3F15597   1.825   5.873   6.744 -0.5607  0.8172  1.7211
  142OSM    H3G15598   1.748   6.024   6.727 -0.7101  0.3709  2.3766
  142OSM    C4F15599   1.928   6.038   6.840 -0.6366  0.5709  0.2479
  142OSM    H4F15600   1.922   6.149   6.839  0.9924  0.6921 -0.9113
  142OSM    H4G15601   2.033   6.003   6.830 -1.3883 -1.8368  0.1737
  142OSM    C5F15602   1.879   5.971   6.966 -0.2051  0.5071 -0.2526
  142OSM    H5F15603   1.902   5.863   6.964 -2.5481 -0.0582 -0.1127
  142OSM    H5G15604   1.768   5.982   6.967 -0.2137  0.7017  2.1726
  142OSM    C6F15605   1.927   6.033   7.097  0.5685  0.2108  0.8929
  142OSM    H6F15606   1.899   6.141   7.094 -0.8810 -0.1695 -1.3906
  142OSM    H6G15607   2.037   6.024   7.105  0.9577  1.3477 -1.8580
  142OSM    C7F15608   1.869   5.956   7.215  0.7215  0.6721 -0.0735
  142OSM    H7F15609   1.922   5.859   7.229 -0.1894  0.1999  0.2297
  142OSM    H7G15610   1.766   5.926   7.184  1.8141 -1.2622 -2.1383
  142OSM    C8F15611   1.852   6.024   7.347 -0.1968  0.6052 -0.0188
  142OSM    H8F15612   1.782   5.959   7.403 -1.9509  2.5547  0.1931
  142OSM    H8G15613   1.807   6.124   7.328 -0.1629  0.2984 -1.9213
  142OSM    C9F15614   1.977   6.055   7.427  0.5160  0.2817  0.0473
  142OSM    H9F15615   2.027   6.142   7.384 -2.6718  1.9783 -0.5427
  142OSM   C10F15616   2.025   6.000   7.545 -0.4934  0.0087 -0.3411
  142OSM   H10F15617   2.119   6.041   7.583 -1.0165  1.0851 -0.1676
  142OSM   C11F15618   1.945   5.905   7.630  0.1001  0.5212  0.7331
  142OSM   H11F15619   1.963   5.802   7.594  0.3870  0.8704 -0.1421
  142OSM   H11G15620   1.836   5.924   7.627 -0.2656 -1.5195 -1.1028
  142OSM   C12F15621   1.969   5.908   7.785 -0.1568 -0.1165  0.7552
  142OSM   H12F15622   2.076   5.888   7.805  0.2014  0.5697 -0.3820
  142OSM   H12G15623   1.912   5.832   7.841  0.0227  0.7207  2.1173
  142OSM   C13F15624   1.931   6.046   7.844  0.3820 -0.3394 -0.1156
  142OSM   H13F15625   1.834   6.036   7.897  0.9227  0.0582  0.9804
  142OSM   H13G15626   1.929   6.129   7.769  1.0800  1.5051  1.8182
  142OSM   C14F15627   2.028   6.097   7.949 -0.3116 -0.3175  0.3199
  142OSM   H14F15628   2.003   6.203   7.974  2.2043  0.0104  1.7555
  142OSM   H14G15629   2.129   6.084   7.906 -1.0849  0.1646 -1.7364
  142OSM   C15F15630   2.008   6.019   8.087 -0.0295  0.2397  0.7421
  142OSM   H15F15631   2.033   5.912   8.075  2.1312  0.8446 -0.7823
  142OSM   H15G15632   1.902   6.026   8.119 -0.5987 -0.3447 -0.9334
  142OSM   C16F15633   2.097   6.077   8.193  0.2777  0.0228 -0.1686
  142OSM   H16F15634   2.195   6.094   8.144  0.0994  0.7415 -0.2862
  142OSM   H16G15635   2.113   6.004   8.275  0.9231  3.3840  2.9670
  142OSM   C17F15636   2.040   6.198   8.268 -0.3434  0.4551  0.3788
  142OSM   H17F15637   1.951   6.159   8.322  0.6344 -1.1162  0.9241
  142OSM   H17G15638   2.013   6.267   8.186  0.8127 -1.8796 -2.1350
  142OSM   C18F15639   2.143   6.260   8.357  0.1654  0.5613  0.0683
  142OSM   H18F15640   2.235   6.274   8.297 -1.0583  0.2117 -1.9745
  142OSM   H18G15641   2.172   6.194   8.441 -0.3521  0.8362  0.4701
  142OSM   H18H15642   2.108   6.362   8.387 -3.0337  0.5675 -3.0463
  143OSM      N15643   5.385   4.822   6.044  0.2551 -0.2105  0.3610
  143OSM    C1515644   5.510   4.890   5.997  0.4923  0.1102 -0.3244
  143OSM   H15A15645   5.499   4.997   5.983 -0.9916 -0.0163 -0.3109
  143OSM   H15B15646   5.548   4.853   5.903  1.4253 -0.2370  0.1869
  143OSM   H15C15647   5.590   4.884   6.068 -1.2195 -0.1079  1.6838
  143OSM    C1415648   5.275   4.864   5.953  0.2439 -0.1220  0.0135
  143OSM   H14A15649   5.289   4.964   5.915  1.3700  0.0777  0.8939
  143OSM   H14B15650   5.184   4.860   6.011  1.1921 -2.5811  1.5109
  143OSM   H14C15651   5.280   4.798   5.868 -0.9149 -0.2983  0.0724
  143OSM    C1315652   5.399   4.672   6.040 -0.4309  0.0083 -0.1597
  143OSM   H13A15653   5.468   4.631   5.968  1.8394 -0.2421  2.0131
  143OSM   H13B15654   5.307   4.617   6.051  0.5906 -1.6560  0.4551
  143OSM   H13C15655   5.446   4.644   6.133  0.5993 -1.5074 -1.0985
  143OSM    C1215656   5.355   4.864   6.183  0.4293 -0.1125  0.0305
  143OSM   H12A15657   5.446   4.860   6.242  1.0681 -0.3345 -0.9590
  143OSM   H12B15658   5.296   4.794   6.240  0.8976 -0.0171  0.6448
  143OSM    C1115659   5.307   5.006   6.200  0.2959  0.1410  0.0557
  143OSM   H11A15660   5.358   5.069   6.124 -0.3900 -1.6891 -2.0603
  143OSM   H11B15661   5.330   5.036   6.304 -1.5528  0.4389  0.4181
  143OSM      P15662   5.092   5.139   6.140 -0.0521 -0.0015 -0.2621
  143OSM    O1315663   5.190   5.248   6.125 -1.0861 -0.4052  0.4234
  143OSM    O1415664   5.006   5.118   6.026  0.3831  0.1938  0.7898
  143OSM    O1115665   5.000   5.180   6.262  0.8356 -0.4066  0.0625
  143OSM    O1215666   5.162   5.005   6.186  0.2029  0.3402  0.2791
  143OSM    C1S15667   4.902   5.097   6.322  0.3211  0.4300 -0.1543
  143OSM    H1S15668   4.902   4.994   6.279  2.3004  0.0375  0.6464
  143OSM    H1T15669   4.798   5.133   6.308 -0.5092 -1.4442  0.7902
  143OSM     NF15670   4.787   5.033   6.539  0.3040 -0.1788  0.0202
  143OSM    HNF15671   4.758   5.086   6.619  0.0368  0.7544 -0.6767
  143OSM    C2S15672   4.905   5.093   6.480  0.4004  0.1615 -0.0959
  143OSM    H2S15673   4.989   5.026   6.506 -0.1112 -0.0865  0.9382
  143OSM    C3S15674   4.939   5.229   6.542 -0.4557  0.3035 -0.4836
  143OSM    H3S15675   4.847   5.291   6.548 -0.1426  0.7181  0.2316
  143OSM     O315676   5.015   5.322   6.469 -0.3248  0.1024  0.5737
  143OSM    HO315677   5.024   5.278   6.384 -1.2733 -0.1758  0.6101
  143OSM    C4S15678   4.983   5.234   6.691  0.9468  0.9871 -0.6352
  143OSM    H4S15679   4.904   5.240   6.767  0.8081  0.5405 -0.7394
  143OSM    C5S15680   5.106   5.238   6.738  0.0786  0.5889 -0.0780
  143OSM    H5S15681   5.195   5.243   6.673  1.2837 -0.2953  1.4279
  143OSM    C6S15682   5.150   5.234   6.879  0.3083 -0.2815 -0.5488
  143OSM    H6S15683   5.193   5.332   6.909 -0.7354 -0.1875  0.7278
  143OSM    H6T15684   5.222   5.154   6.907 -0.5359 -0.8967 -0.0708
  143OSM    C7S15685   5.037   5.209   6.991 -0.1784 -0.0896  0.0569
  143OSM    H7S15686   4.969   5.125   6.963 -1.4926  0.8991  0.2255
  143OSM    H7T15687   4.971   5.297   6.997 -2.2547 -1.6122  0.7550
  143OSM    C8S15688   5.100   5.184   7.121  0.0356 -0.2081  0.0343
  143OSM    H8S15689   5.175   5.262   7.146 -0.6865  0.2197  0.8845
  143OSM    H8T15690   5.139   5.080   7.113 -2.5784 -1.1539 -2.0270
  143OSM    C9S15691   4.997   5.184   7.238 -0.1489 -0.5758 -0.0963
  143OSM    H9S15692   4.922   5.106   7.215  0.2060 -0.7836 -0.5584
  143OSM    H9T15693   4.941   5.280   7.250  1.8904  0.7390 -0.5580
  143OSM   C10S15694   5.071   5.155   7.378  0.2132  0.4005  0.2244
  143OSM   H10S15695   5.134   5.246   7.390 -0.3549  0.8107  0.1248
  143OSM   H10T15696   5.135   5.066   7.360  1.4017  1.3570 -0.4577
  143OSM   C11S15697   4.977   5.153   7.498 -0.3217  0.1118 -0.4509
  143OSM   H11S15698   4.899   5.076   7.480 -1.3408  1.4515 -1.9853
  143OSM   H11T15699   4.924   5.249   7.486 -0.0979  0.2877 -0.0324
  143OSM   C12S15700   5.045   5.137   7.633 -0.3147  0.2095 -0.1052
  143OSM   H12S15701   5.130   5.208   7.645 -0.6079  0.3779  1.1176
  143OSM   H12T15702   5.086   5.036   7.652  0.5679  0.7760  1.1175
  143OSM   C13S15703   4.943   5.156   7.740 -0.3467  0.4607 -0.3490
  143OSM   H13S15704   4.869   5.073   7.743 -1.5478  1.4773 -0.5902
  143OSM   H13T15705   4.888   5.248   7.709  1.1321  1.1323 -1.0738
  143OSM   C14S15706   4.997   5.160   7.884 -0.4897 -0.0219 -0.9339
  143OSM   H14S15707   5.045   5.063   7.910 -0.7811  0.3421  1.1273
  143OSM   H14T15708   4.926   5.173   7.969  2.2806  0.9574  1.3930
  143OSM   C15S15709   5.101   5.264   7.924  0.1658 -0.4499  0.1058
  143OSM   H15S15710   5.060   5.365   7.902  0.7589 -0.4433 -1.0478
  143OSM   H15T15711   5.185   5.250   7.853  0.6837 -0.7165  0.7603
  143OSM   C16S15712   5.148   5.239   8.075  0.0907 -0.8387 -0.3540
  143OSM   H16S15713   5.224   5.157   8.072 -0.8486 -1.7141 -0.7147
  143OSM   H16T15714   5.063   5.200   8.135 -0.2685  0.2388 -0.1484
  143OSM   C17S15715   5.188   5.366   8.139 -0.1659  0.5331  0.7716
  143OSM   H17S15716   5.096   5.423   8.161 -0.4779 -0.5991  2.5631
  143OSM   H17T15717   5.253   5.418   8.065 -2.0296 -1.6400 -2.6501
  143OSM   C18S15718   5.262   5.336   8.272  1.0402 -0.3655 -0.2036
  143OSM   H18S15719   5.302   5.433   8.310  1.9735  0.2093 -2.4745
  143OSM   H18T15720   5.354   5.275   8.264 -1.2223 -4.1737  0.5268
  143OSM   H18U15721   5.193   5.289   8.345 -0.5345 -1.1136 -2.0833
  143OSM    C1F15722   4.716   4.926   6.494  0.1274  0.9127 -0.1181
  143OSM     OF15723   4.753   4.859   6.392 -0.2662 -0.5277  0.4388
  143OSM    C2F15724   4.589   4.891   6.571 -0.2361 -0.3785  0.5558
  143OSM    H2F15725   4.498   4.912   6.511 -0.3622  0.6982  1.1160
  143OSM    H2G15726   4.579   4.958   6.659  0.6575 -0.4661  0.7366
  143OSM    C3F15727   4.588   4.740   6.611  0.6818  1.0991  0.3425
  143OSM    H3F15728   4.601   4.676   6.520  3.2243  0.9690  0.7018
  143OSM    H3G15729   4.492   4.704   6.651  1.3139 -1.6348 -0.3520
  143OSM    C4F15730   4.699   4.709   6.717  0.5022 -0.6557 -0.1483
  143OSM    H4F15731   4.799   4.726   6.671  0.2435  0.7460 -0.2348
  143OSM    H4G15732   4.694   4.601   6.743 -2.9840 -1.0390 -1.9044
  143OSM    C5F15733   4.701   4.788   6.845 -0.7655 -0.0200 -0.2901
  143OSM    H5F15734   4.603   4.787   6.897  0.5655 -1.4266  2.4108
  143OSM    H5G15735   4.712   4.896   6.821 -3.1419  0.1145 -0.9276
  143OSM    C6F15736   4.806   4.738   6.946 -0.3862 -0.0297  0.1654
  143OSM    H6F15737   4.901   4.737   6.890 -0.4712 -1.6206 -0.0055
  143OSM    H6G15738   4.778   4.635   6.979  0.5069 -1.6472 -3.6115
  143OSM    C7F15739   4.825   4.833   7.065 -0.3161 -0.0615 -0.1293
  143OSM    H7F15740   4.724   4.845   7.110 -0.0326  0.9529  0.2604
  143OSM    H7G15741   4.860   4.936   7.044 -0.8647  0.1989  0.1968
  143OSM    C8F15742   4.926   4.775   7.170 -0.0023 -0.5285 -0.6564
  143OSM    H8F15743   4.956   4.856   7.240 -1.5968 -0.5326  0.0857
  143OSM    H8G15744   5.024   4.744   7.128  0.1498 -1.0692  0.0821
  143OSM    C9F15745   4.894   4.654   7.248 -0.0296  0.2656 -0.6855
  143OSM    H9F15746   4.925   4.569   7.186  0.2484  1.0105 -1.5902
  143OSM   C10F15747   4.837   4.645   7.373  0.6063  0.5193 -0.1158
  143OSM   H10F15748   4.836   4.549   7.426 -1.7160 -1.0127 -2.6211
  143OSM   C11F15749   4.773   4.764   7.440  0.1299  0.3768 -0.5783
  143OSM   H11F15750   4.669   4.732   7.465  0.5549 -1.1787 -0.7314
  143OSM   H11G15751   4.780   4.856   7.378 -1.1045  1.1807  0.4257
  143OSM   C12F15752   4.847   4.808   7.568 -0.4820 -0.3959 -0.8848
  143OSM   H12F15753   4.775   4.864   7.631 -0.5491 -0.7423 -0.6516
  143OSM   H12G15754   4.935   4.868   7.537  0.6809 -2.7632 -2.5015
  143OSM   C13F15755   4.894   4.687   7.653  0.6533  0.1829 -0.1465
  143OSM   H13F15756   4.983   4.642   7.604 -0.7178 -2.8498 -0.0347
  143OSM   H13G15757   4.820   4.606   7.671 -0.5478  1.3951  0.5844
  143OSM   C14F15758   4.939   4.732   7.795  0.0430  0.3983  0.5574
  143OSM   H14F15759   4.853   4.788   7.838  0.6686  0.8208  1.2851
  143OSM   H14G15760   5.036   4.786   7.802  0.4742 -0.2689 -0.2049
  143OSM   C15F15761   4.968   4.610   7.889 -0.7021 -0.3724 -0.1302
  143OSM   H15F15762   5.054   4.545   7.859  0.9176  0.3097  2.6817
  143OSM   H15G15763   4.878   4.545   7.894 -1.2462  0.3306 -0.6771
  143OSM   C16F15764   5.002   4.663   8.026 -0.9040 -0.0169 -0.6527
  143OSM   H16F15765   5.097   4.719   8.011 -0.2328 -1.3223 -1.3869
  143OSM   H16G15766   5.040   4.580   8.089  0.3283  0.7709 -0.3230
  143OSM   C17F15767   4.901   4.753   8.105 -0.5627  0.2689  0.1806
  143OSM   H17F15768   4.806   4.696   8.118  0.7552 -1.8856  1.0453
  143OSM   H17G15769   4.863   4.843   8.053 -0.5117  1.2867  1.8303
  143OSM   C18F15770   4.943   4.805   8.240 -0.8395  0.5997 -0.4918
  143OSM   H18F15771   5.033   4.870   8.247  0.1520 -0.7794 -0.1103
  143OSM   H18G15772   4.949   4.718   8.308 -2.6846  0.6279 -0.2331
  143OSM   H18H15773   4.862   4.865   8.286  0.7607  1.4051  1.4113
  144OSM      N15774   2.957   0.479   6.198  0.8709 -0.0492 -0.0079
  144OSM    C1515775   2.997   0.619   6.226 -0.7009  0.1215  0.0438
  144OSM   H15A15776   3.075   0.614   6.300 -1.6992  0.0251  1.1143
  144OSM   H15B15777   2.917   0.684   6.259  0.0486  0.5294  1.1211
  144OSM   H15C15778   3.041   0.662   6.137 -0.1967  0.7019  0.5595
  144OSM    C1415779   2.956   0.402   6.325  0.4569  0.1998 -0.0656
  144OSM   H14A15780   3.055   0.372   6.358  0.3685 -1.6256 -1.3012
  144OSM   H14B15781   2.909   0.308   6.299 -1.0586  1.3873 -1.7933
  144OSM   H14C15782   2.894   0.450   6.399 -0.3276  0.7758 -1.0852
  144OSM    C1315783   2.813   0.491   6.149 -0.7029  0.5723  0.0834
  144OSM   H13A15784   2.777   0.393   6.121 -1.4020  0.4803  1.2524
  144OSM   H13B15785   2.810   0.555   6.062  0.5145  0.2350 -0.2257
  144OSM   H13C15786   2.749   0.533   6.226 -0.2378  0.9699  0.2577
  144OSM    C1215787   3.045   0.409   6.094 -0.1009  0.5954 -0.5933
  144OSM   H12A15788   3.032   0.466   6.004 -1.7709 -0.6176 -1.1897
  144OSM   H12B15789   3.003   0.312   6.072  1.2673 -0.1129 -0.1529
  144OSM    C1115790   3.197   0.392   6.134  0.1542  0.3893 -0.6807
  144OSM   H11A15791   3.239   0.491   6.164 -2.3129  1.7968 -1.5335
  144OSM   H11B15792   3.257   0.367   6.044  2.9385  0.0501  1.1376
  144OSM      P15793   3.231   0.150   6.203  0.0669  0.0852 -0.1550
  144OSM    O1315794   3.152   0.125   6.081  0.7558 -0.0429  0.2988
  144OSM    O1415795   3.377   0.124   6.193  0.1334 -0.0317  0.4099
  144OSM    O1115796   3.175   0.074   6.336 -0.5165 -0.4334 -0.0019
  144OSM    O1215797   3.215   0.302   6.247  0.3242  0.5749  0.6153
  144OSM    C1S15798   3.200   0.146   6.458 -0.4521 -0.7714 -0.1931
  144OSM    H1S15799   3.125   0.227   6.470  0.3087 -0.1657  0.5537
  144OSM    H1T15800   3.300   0.195   6.454 -0.2415 -1.1540  0.4295
  144OSM     NF15801   3.208   0.118   6.707  0.0546 -0.7317  0.4967
  144OSM    HNF15802   3.284   0.097   6.767 -0.5907  0.7286  1.8853
  144OSM    C2S15803   3.190   0.050   6.580 -0.4044  0.4266  0.6997
  144OSM    H2S15804   3.090   0.004   6.591  0.7153 -2.5810 -0.7006
  144OSM    C3S15805   3.292  -0.066   6.558 -0.7652  0.3093  0.8290
  144OSM    H3S15806   3.398  -0.036   6.575 -0.7711  1.0194 -0.3266
  144OSM     O315807   3.291  -0.129   6.429 -0.0534 -0.6215 -0.8080
  144OSM    HO315808   3.251  -0.066   6.369  1.5374  1.1540 -0.1015
  144OSM    C4S15809   3.263  -0.160   6.671  0.2480 -0.2609 -0.2098
  144OSM    H4S15810   3.159  -0.195   6.676  0.1546  0.0798  0.2815
  144OSM    C5S15811   3.350  -0.196   6.769  0.3161  0.8763 -0.7917
  144OSM    H5S15812   3.457  -0.172   6.774  0.5886  0.7548 -4.0029
  144OSM    C6S15813   3.303  -0.288   6.877 -0.1042 -0.7788  0.2914
  144OSM    H6S15814   3.377  -0.370   6.886 -1.3910 -2.0766 -0.4750
  144OSM    H6T15815   3.208  -0.333   6.839  0.4323 -1.1705 -0.6268
  144OSM    C7S15816   3.278  -0.211   7.002 -0.1055  0.0130  0.1555
  144OSM    H7S15817   3.199  -0.133   6.990 -1.3335 -1.3050 -0.6929
  144OSM    H7T15818   3.370  -0.154   7.024 -1.5744  2.5306  0.2216
  144OSM    C8S15819   3.245  -0.299   7.126  0.6215  0.2004 -0.1937
  144OSM    H8S15820   3.321  -0.380   7.120 -2.4414 -3.1370  1.5653
  144OSM    H8T15821   3.146  -0.349   7.113  1.4004 -1.2646 -0.7329
  144OSM    C9S15822   3.263  -0.224   7.255 -0.1362 -0.2487  0.3034
  144OSM    H9S15823   3.174  -0.160   7.277  0.9818  2.7619 -2.9893
  144OSM    H9T15824   3.351  -0.159   7.236  0.3141 -0.1854  2.3075
  144OSM   C10S15825   3.275  -0.303   7.390  0.0880 -0.9010  0.4984
  144OSM   H10S15826   3.376  -0.349   7.389  1.1140  1.1851 -0.7296
  144OSM   H10T15827   3.191  -0.373   7.375 -1.4034  0.7693  0.6682
  144OSM   C11S15828   3.260  -0.226   7.515  0.1349 -0.2161  0.8482
  144OSM   H11S15829   3.162  -0.174   7.510  0.3459  0.2246  1.1990
  144OSM   H11T15830   3.340  -0.149   7.510 -1.6856  1.6810 -1.8305
  144OSM   C12S15831   3.282  -0.300   7.646 -0.4630  0.0099 -0.2262
  144OSM   H12S15832   3.381  -0.349   7.645  0.2848  1.4438 -0.3599
  144OSM   H12T15833   3.210  -0.382   7.664 -1.9151  1.3679  0.3989
  144OSM   C13S15834   3.273  -0.209   7.767 -0.6787  0.1296  0.1313
  144OSM   H13S15835   3.185  -0.143   7.756 -0.6697  0.3844  1.4835
  144OSM   H13T15836   3.367  -0.149   7.766 -1.5729  1.6495 -2.0679
  144OSM   C14S15837   3.266  -0.293   7.896 -0.2465 -0.4680  0.0936
  144OSM   H14S15838   3.361  -0.349   7.910  0.0316  0.3273  1.5420
  144OSM   H14T15839   3.184  -0.367   7.891  0.7656 -1.7921  1.8134
  144OSM   C15S15840   3.265  -0.210   8.023  0.0187  0.8370  0.1119
  144OSM   H15S15841   3.169  -0.155   8.028 -1.1884 -1.1958  0.5278
  144OSM   H15T15842   3.352  -0.142   8.036 -0.2474  0.8824  1.7910
  144OSM   C16S15843   3.274  -0.302   8.146  0.0936 -0.3345  0.3751
  144OSM   H16S15844   3.366  -0.363   8.139 -1.4810 -2.6775 -1.8616
  144OSM   H16T15845   3.189  -0.373   8.141  1.8357 -2.4871 -0.0491
  144OSM   C17S15846   3.269  -0.219   8.272 -0.5422  0.4936  0.4113
  144OSM   H17S15847   3.202  -0.131   8.262 -1.1037  0.0212 -0.0453
  144OSM   H17T15848   3.370  -0.174   8.280 -0.2852  0.1089 -0.5540
  144OSM   C18S15849   3.236  -0.296   8.393  0.6076  0.8539 -0.3435
  144OSM   H18S15850   3.211  -0.228   8.477 -2.2831  0.0176 -0.4063
  144OSM   H18T15851   3.303  -0.376   8.430 -1.3951 -0.6892  0.1437
  144OSM   H18U15852   3.136  -0.340   8.373 -0.3211  1.3465  2.7749
  144OSM    C1F15853   3.125   0.213   6.746  0.1129  0.4535 -0.5199
  144OSM     OF15854   3.029   0.250   6.680 -0.1884  0.1682 -0.3780
  144OSM    C2F15855   3.149   0.259   6.890 -0.5406 -0.0750 -0.0820
  144OSM    H2F15856   3.197   0.359   6.883 -1.0234  0.1771  0.1722
  144OSM    H2G15857   3.210   0.182   6.943 -1.0101 -0.1880  0.3079
  144OSM    C3F15858   3.019   0.265   6.960 -0.6307 -0.2313 -0.0191
  144OSM    H3F15859   2.969   0.167   6.946 -0.5749 -0.4576  1.2697
  144OSM    H3G15860   2.960   0.346   6.912 -1.7199 -0.6676  0.5614
  144OSM    C4F15861   3.020   0.300   7.113  0.4137  0.6784 -0.1857
  144OSM    H4F15862   2.912   0.288   7.137  0.2805 -2.2267 -1.7832
  144OSM    H4G15863   3.051   0.406   7.130  1.2742  0.6285 -1.3184
  144OSM    C5F15864   3.098   0.205   7.212 -0.1445 -0.0513  0.3395
  144OSM    H5F15865   3.208   0.216   7.201  0.0677 -0.3748  1.9452
  144OSM    H5G15866   3.059   0.105   7.183 -0.4645 -0.5588  2.3418
  144OSM    C6F15867   3.065   0.223   7.364  0.1876 -0.3085  0.1143
  144OSM    H6F15868   3.016   0.321   7.384  0.3369  0.3815 -2.5616
  144OSM    H6G15869   3.165   0.240   7.410  0.0601  4.1950 -0.7443
  144OSM    C7F15870   3.001   0.110   7.441  0.6743  0.3675  0.4280
  144OSM    H7F15871   3.030   0.016   7.391  3.0538  0.7060  1.0601
  144OSM    H7G15872   2.890   0.120   7.444  0.4912 -1.2959  3.2816
  144OSM    C8F15873   3.041   0.093   7.588 -0.6942 -0.0466 -0.3393
  144OSM    H8F15874   3.150   0.073   7.596 -0.2725  1.6313 -1.2830
  144OSM    H8G15875   2.990   0.008   7.638  2.4136 -0.9814  1.4954
  144OSM    C9F15876   3.007   0.218   7.660  0.0157  0.5115 -0.1341
  144OSM    H9F15877   3.031   0.312   7.609  0.9812  2.0324  2.8880
  144OSM   C10F15878   2.915   0.235   7.755 -0.1946 -0.1851  0.2776
  144OSM   H10F15879   2.912   0.331   7.808  2.7046 -0.4427  1.0933
  144OSM   C11F15880   2.836   0.133   7.821  0.3925  0.2097 -0.1884
  144OSM   H11F15881   2.829   0.040   7.761  0.1337 -1.9429  2.9249
  144OSM   H11G15882   2.731   0.171   7.824 -1.2805 -3.7294 -1.8572
  144OSM   C12F15883   2.903   0.104   7.958  0.9606 -0.4432 -0.0922
  144OSM   H12F15884   2.895   0.181   8.037  1.1407 -0.9783  0.4584
  144OSM   H12G15885   3.010   0.076   7.946  2.4977  4.1553  0.7327
  144OSM   C13F15886   2.820  -0.002   8.027  0.1575 -0.1459 -0.0364
  144OSM   H13F15887   2.812  -0.098   7.972  1.8160 -0.8749  0.9052
  144OSM   H13G15888   2.715   0.033   8.025  0.2392  0.0575 -1.1740
  144OSM   C14F15889   2.860  -0.025   8.171  0.1892 -0.1840 -0.4556
  144OSM   H14F15890   2.836   0.065   8.232 -1.9950 -1.2373  0.3438
  144OSM   H14G15891   2.966  -0.056   8.180  0.3407  0.2900 -0.5613
  144OSM   C15F15892   2.793  -0.145   8.246  0.0718 -0.5483 -0.7138
  144OSM   H15F15893   2.863  -0.181   8.325 -1.5756 -2.2485  0.0652
  144OSM   H15G15894   2.787  -0.232   8.177  1.4720 -2.2243  1.1340
  144OSM   C16F15895   2.661  -0.114   8.319 -0.0008  0.4832  0.7248
  144OSM   H16F15896   2.596  -0.066   8.242  1.9674  3.0142  0.4968
  144OSM   H16G15897   2.687  -0.039   8.396  1.2042  1.8588 -0.9391
  144OSM   C17F15898   2.583  -0.241   8.372  0.0779 -0.3462 -0.6568
  144OSM   H17F15899   2.642  -0.281   8.457  0.3980  1.9059  0.2304
  144OSM   H17G15900   2.575  -0.319   8.292 -2.8064  0.1935 -0.9882
  144OSM   C18F15901   2.444  -0.204   8.424  0.0708  0.4520  0.3869
  144OSM   H18F15902   2.441  -0.138   8.514  0.8266  1.2694 -0.1777
  144OSM   H18G15903   2.386  -0.297   8.445  0.0079  0.5882  0.8159
  144OSM   H18H15904   2.385  -0.146   8.351  0.6430  0.7435  0.1489
  145SAPE     N15905   0.665   1.163  10.718 -0.0132  0.6630 -0.2622
  145SAPE   HN115906   0.744   1.192  10.656 -1.7129 -0.8041 -3.4117
  145SAPE   HN215907   0.650   1.064  10.690  1.1319 -0.6143  3.1665
  145SAPE   HN315908   0.589   1.233  10.708  0.3203  1.2161  0.9062
  145SAPE   C1215909   0.692   1.160  10.867 -0.9141  0.5978  0.1242
  145SAPE  H12A15910   0.612   1.109  10.925 -0.3825  1.0959  1.3283
  145SAPE  H12B15911   0.704   1.261  10.910  1.8435 -0.0871  1.1502
  145SAPE   C1115912   0.830   1.108  10.895 -0.6469  0.4483  0.1225
  145SAPE  H11A15913   0.843   1.006  10.851  2.4022  0.2790  1.1418
  145SAPE  H11B15914   0.843   1.098  11.004  2.3806  0.9326 -0.1082
  145SAPE     P15915   1.083   1.179  10.856  0.0270  0.5060 -0.3025
  145SAPE   O1315916   1.149   1.304  10.818 -0.2261 -0.3805  0.1113
  145SAPE   O1415917   1.115   1.110  10.988  0.2110  0.0553  0.0514
  145SAPE   O1215918   0.926   1.199  10.847 -0.4663 -0.3900 -0.5884
  145SAPE   O1115919   1.112   1.067  10.749  0.0487 -0.2666 -0.2346
  145SAPE    C115920   1.047   1.065  10.625  0.7079  0.1495  0.4789
  145SAPE    HA15921   0.964   0.992  10.640 -0.0392  0.9622  0.3562
  145SAPE    HB15922   1.008   1.165  10.599 -2.1181 -1.1005 -0.4993
  145SAPE    C215923   1.137   1.014  10.508  0.5477 -0.0002 -0.6773
  145SAPE    HS15924   1.088   1.040  10.412  0.1242  3.4784  0.3284
  145SAPE   O2115925   1.154   0.876  10.534 -0.1129  0.1540  0.1421
  145SAPE   C2115926   1.155   0.802  10.429  0.1784  0.0933 -0.6599
  145SAPE   O2215927   1.120   0.832  10.315 -0.2623 -0.3075  0.1023
  145SAPE   C2215928   1.215   0.670  10.469  0.6803 -0.5553  0.3833
  145SAPE   H2R15929   1.301   0.681  10.538  0.1360 -0.8450  1.1220
  145SAPE   H2S15930   1.140   0.609  10.523 -0.4859  0.6572  0.1822
  145SAPE    C315931   1.271   1.098  10.507  0.5115  0.0537  0.4521
  145SAPE    HX15932   1.316   1.072  10.605  1.1871  0.9522  0.3842
  145SAPE    HY15933   1.254   1.208  10.503 -0.0198 -0.0263 -3.1015
  145SAPE   O3115934   1.358   1.042  10.406 -0.2403  0.3094 -0.1276
  145SAPE   C3115935   1.340   1.090  10.283  0.1327 -0.2573  0.1534
  145SAPE   O3215936   1.267   1.180  10.254 -0.9768 -0.7072 -0.0592
  145SAPE   C3215937   1.413   0.996  10.180  0.2122  0.0156  0.3451
  145SAPE   H2X15938   1.338   0.923  10.145 -0.1437  1.5116 -2.2704
  145SAPE   H2Y15939   1.492   0.949  10.243  0.9213 -0.2663 -0.7378
  145SAPE   C2315940   1.265   0.580  10.349  0.2302  0.2972 -0.0735
  145SAPE   H3R15941   1.180   0.574  10.278  0.0667 -0.4048  0.1787
  145SAPE   H3S15942   1.295   0.481  10.388  3.0577  1.1928  0.2659
  145SAPE   C2415943   1.392   0.629  10.283 -0.4204 -0.5965  0.1580
  145SAPE   H4R15944   1.463   0.646  10.366 -0.4726  2.9054 -0.3854
  145SAPE   H4S15945   1.361   0.720  10.228 -1.1794  0.8510  2.8366
  145SAPE   C2515946   1.453   0.530  10.183  0.7769  0.5885 -0.0104
  145SAPE   H5R15947   1.426   0.425  10.206 -2.2870  1.2943  0.1288
  145SAPE   C2615948   1.522   0.562  10.072  0.2489 -0.0799 -0.1538
  145SAPE   H6R15949   1.553   0.479  10.007 -1.2243  0.2714 -1.3636
  145SAPE   C2715950   1.562   0.693  10.021  0.3447 -0.8269  0.0305
  145SAPE   H7R15951   1.489   0.772  10.051  1.5780  0.7135 -0.8868
  145SAPE   H7S15952   1.545   0.701   9.911  0.1496 -0.5979  0.0766
  145SAPE   C2815953   1.702   0.732  10.061  0.0307  0.8796 -0.5726
  145SAPE   H8R15954   1.705   0.781  10.160  1.1664  0.1317 -0.2118
  145SAPE   C2915955   1.813   0.685   9.996  0.1743 -0.2303  0.3429
  145SAPE   H9R15956   1.914   0.714  10.029 -0.2423  1.2558  0.3951
  145SAPE  C21015957   1.809   0.615   9.862  0.4149  0.9078  0.6462
  145SAPE  H10R15958   1.724   0.644   9.797  1.7732  0.1606 -1.5611
  145SAPE  H10S15959   1.798   0.505   9.873 -0.6078  0.8974 -0.3413
  145SAPE  C21115960   1.935   0.637   9.790 -0.4067 -0.1156  0.8261
  145SAPE  H11R15961   2.026   0.598   9.837 -0.3589 -1.7564 -0.5412
  145SAPE  C21215962   1.949   0.669   9.655 -0.2326  0.2780 -0.2069
  145SAPE  H12R15963   2.054   0.671   9.623  0.7036  3.3614  2.5226
  145SAPE  C21315964   1.841   0.707   9.563  0.3461  0.3120  0.7298
  145SAPE  H13R15965   1.870   0.789   9.493  2.1907 -0.7134  0.2267
  145SAPE  H13S15966   1.746   0.726   9.618  0.6263 -1.3786  1.8592
  145SAPE  C21415967   1.795   0.583   9.481 -0.2070 -0.4620 -0.6557
  145SAPE  H14R15968   1.831   0.487   9.519  1.2992  0.4936  0.4584
  145SAPE  C21515969   1.724   0.581   9.365 -0.0764  0.6100 -0.0686
  145SAPE  H15R15970   1.714   0.481   9.320  0.4855  0.1446  0.8199
  145SAPE  C21615971   1.661   0.699   9.298 -0.1721  0.2484  0.3786
  145SAPE  H16R15972   1.703   0.794   9.338  2.6670 -0.1579 -1.2718
  145SAPE  H16S15973   1.551   0.710   9.305 -0.2160  0.6292 -0.6123
  145SAPE  C21715974   1.694   0.708   9.149 -0.7113  1.0298 -0.0015
  145SAPE  H17R15975   1.805   0.712   9.145 -0.5187 -1.0286  1.6981
  145SAPE  H17S15976   1.660   0.808   9.114 -2.2365  1.5775  2.7411
  145SAPE  C21815977   1.627   0.601   9.066 -0.3330  0.7013 -0.1201
  145SAPE  H18R15978   1.532   0.574   9.117 -0.1741 -2.5822 -1.2934
  145SAPE  H18S15979   1.689   0.509   9.069 -1.7140 -0.2532  2.5746
  145SAPE  C21915980   1.601   0.639   8.920  0.3841 -0.5139  0.0522
  145SAPE  H19R15981   1.523   0.718   8.925  0.3643 -0.5644  0.6039
  145SAPE  H19S15982   1.548   0.561   8.861 -2.8829  2.1444 -0.8223
  145SAPE  C22015983   1.738   0.681   8.855  0.1131  0.9467  0.7147
  145SAPE  H20R15984   1.712   0.717   8.754 -1.5793 -1.8077  0.0548
  145SAPE  H20S15985   1.809   0.598   8.833 -0.7477  0.1787  0.7625
  145SAPE  H20T15986   1.801   0.752   8.914  2.0209  1.2270 -1.5384
  145SAPE   C3315987   1.475   1.072  10.062  0.4410 -0.8202  0.1662
  145SAPE   H3X15988   1.578   1.032  10.049  0.7932  0.7048 -2.3513
  145SAPE   H3Y15989   1.481   1.179  10.090  1.7330 -1.1500  1.2946
  145SAPE   C3415990   1.407   1.042   9.930  0.1444  0.7299 -0.3839
  145SAPE   H4X15991   1.319   1.107   9.911 -0.4420  0.3460  0.9084
  145SAPE   H4Y15992   1.385   0.938   9.897 -1.3839  1.2628 -1.1066
  145SAPE   C3515993   1.494   1.101   9.815 -0.4363  0.4548 -0.1916
  145SAPE   H5X15994   1.574   1.027   9.792 -1.9708 -1.8171  1.3692
  145SAPE   H5Y15995   1.518   1.206   9.842  1.8248  0.0467 -0.3479
  145SAPE   C3615996   1.409   1.103   9.688  0.6969 -0.0503  0.1230
  145SAPE   H6X15997   1.456   1.179   9.621  1.0415 -1.1834 -0.9550
  145SAPE   H6Y15998   1.306   1.139   9.708  1.5921  2.2449  1.0122
  145SAPE   C3715999   1.416   0.963   9.609 -0.7206  0.0622  0.6118
  145SAPE   H7X16000   1.359   0.895   9.676 -0.3185 -0.4414  0.4495
  145SAPE   H7Y16001   1.518   0.920   9.602 -0.6115  0.4874 -0.7030
  145SAPE   C3816002   1.355   0.960   9.470  0.0349  0.0488 -0.9816
  145SAPE   H8X16003   1.251   0.998   9.474  0.5549  1.3697  1.1448
  145SAPE   H8Y16004   1.358   0.852   9.444 -0.7838 -0.4400  0.7969
  145SAPE   C3916005   1.436   1.035   9.367  0.3554 -0.5154 -0.4064
  145SAPE   H9X16006   1.529   0.978   9.345  0.8590  0.1022  0.0448
  145SAPE   H9Y16007   1.465   1.130   9.417 -1.4689 -0.7558  1.2479
  145SAPE  C31016008   1.370   1.058   9.228  0.5514  0.3836  0.1649
  145SAPE  H10X16009   1.432   1.122   9.162  3.1621 -0.4005  1.7276
  145SAPE  H10Y16010   1.273   1.112   9.244 -0.1228 -0.7002 -0.1659
  145SAPE  C31116011   1.345   0.933   9.151  0.1740 -0.2038  0.4490
  145SAPE  H11X16012   1.293   0.855   9.211  2.2411 -1.4493  0.7119
  145SAPE  H11Y16013   1.442   0.893   9.113 -0.7728 -0.8793 -1.4064
  145SAPE  C31216014   1.273   0.961   9.022  0.2276 -0.2292  0.0021
  145SAPE  H12X16015   1.345   1.016   8.958 -0.4038  1.0000  0.3275
  145SAPE  H12Y16016   1.184   1.023   9.043  2.0909  1.9184  2.1738
  145SAPE  C31316017   1.216   0.834   8.954 -0.3908 -0.3363  0.4961
  145SAPE  H13X16018   1.120   0.808   9.004 -0.1851 -0.5359  0.7840
  145SAPE  H13Y16019   1.285   0.747   8.961  0.6104  0.4478  0.6185
  145SAPE  C31416020   1.189   0.865   8.806 -0.3754 -0.8107  0.1372
  145SAPE  H14X16021   1.104   0.935   8.797 -0.1136 -0.3987  0.7857
  145SAPE  H14Y16022   1.148   0.769   8.768 -2.6840  0.0344  0.3623
  145SAPE  C31516023   1.307   0.924   8.724 -0.3258  0.1930 -0.2467
  145SAPE  H15X16024   1.396   0.864   8.752 -1.2959 -0.5333  1.4634
  145SAPE  H15Y16025   1.320   1.030   8.757 -0.5210  0.4320 -0.9146
  145SAPE  C31616026   1.295   0.914   8.575  0.4631  0.2668 -0.2903
  145SAPE  H16X16027   1.274   0.808   8.548 -2.1298  0.9866 -1.3789
  145SAPE  H16Y16028   1.393   0.943   8.531 -0.1102  1.3664 -0.8780
  145SAPE  C31716029   1.182   1.000   8.502  0.4472  0.3273  0.1622
  145SAPE  H17X16030   1.198   1.108   8.524 -0.0926  0.3344  0.5408
  145SAPE  H17Y16031   1.082   0.967   8.539 -0.0728 -0.4385 -1.7736
  145SAPE  C31816032   1.186   0.977   8.342 -0.2656  0.0593 -0.6540
  145SAPE  H18X16033   1.110   1.034   8.284  2.5025  2.9894 -1.7552
  145SAPE  H18Y16034   1.188   0.876   8.295 -1.9490  0.1726 -1.0554
  145SAPE  H18Z16035   1.290   1.010   8.319  0.4059 -1.6539 -0.2116
  146SAPE     N16036   0.139   3.768  10.988  0.2864 -0.0301  0.1296
  146SAPE   HN116037   0.070   3.832  11.032 -2.0049 -2.4460  0.3039
  146SAPE   HN216038   0.165   3.688  11.050  0.7332  0.5225  0.6699
  146SAPE   HN316039   0.224   3.821  10.960 -0.8844  1.4647 -0.7435
  146SAPE   C1216040   0.076   3.706  10.867  0.5935 -0.1566  0.6249
  146SAPE  H12A16041   0.058   3.793  10.801 -2.4891 -1.5912 -0.6581
  146SAPE  H12B16042  -0.023   3.661  10.891  0.6418 -0.7271 -0.2190
  146SAPE   C1116043   0.177   3.609  10.808  0.5551 -0.0837 -0.1797
  146SAPE  H11A16044   0.121   3.548  10.734  0.3939 -0.0382 -0.0943
  146SAPE  H11B16045   0.209   3.534  10.884 -0.8620  0.7040  1.2441
  146SAPE     P16046   0.411   3.596  10.698 -0.0007  0.1060 -0.1195
  146SAPE   O1316047   0.521   3.696  10.679  0.1484 -0.0468  0.6020
  146SAPE   O1416048   0.445   3.484  10.788 -0.0420  0.2661 -0.0723
  146SAPE   O1216049   0.289   3.672  10.756  0.2458 -0.0235  0.1744
  146SAPE   O1116050   0.371   3.541  10.561 -0.0750  0.7463  0.0290
  146SAPE    C116051   0.452   3.559  10.442 -0.4589 -0.0819  0.0627
  146SAPE    HA16052   0.383   3.544  10.357  1.3542 -0.1775 -1.4566
  146SAPE    HB16053   0.503   3.658  10.443 -0.5136 -0.0196  2.3647
  146SAPE    C216054   0.560   3.442  10.432  0.3417 -0.1654 -0.0236
  146SAPE    HS16055   0.618   3.447  10.527 -0.3787 -0.9027  0.4725
  146SAPE   O2116056   0.650   3.449  10.318  0.4662  0.9087  0.1920
  146SAPE   C2116057   0.739   3.548  10.318 -0.2582  0.0317  0.2403
  146SAPE   O2216058   0.769   3.621  10.412  0.1025 -0.8182 -0.1798
  146SAPE   C2216059   0.804   3.546  10.182  0.1664  0.6800  0.5965
  146SAPE   H2R16060   0.913   3.556  10.195  0.1390  0.3632  1.0880
  146SAPE   H2S16061   0.781   3.446  10.137  0.1059 -0.3494  2.8059
  146SAPE    C316062   0.494   3.303  10.430  0.5632  0.3020  0.4051
  146SAPE    HX16063   0.437   3.300  10.525  1.0468 -2.5093  0.6868
  146SAPE    HY16064   0.581   3.234  10.424  0.2798 -0.0192 -0.0623
  146SAPE   O3116065   0.404   3.286  10.320  0.0349  0.0816  0.1757
  146SAPE   C3116066   0.432   3.200  10.218 -0.1097 -0.8249  0.1179
  146SAPE   O3216067   0.539   3.142  10.208  0.0479 -0.1357  0.0273
  146SAPE   C3216068   0.319   3.194  10.124  0.2529  0.2483  0.1068
  146SAPE   H2X16069   0.302   3.294  10.080  0.6517  1.3443  2.3567
  146SAPE   H2Y16070   0.230   3.165  10.185 -0.2498  0.6435 -0.4211
  146SAPE   C2316071   0.742   3.654  10.092 -0.2460  0.1682  0.3129
  146SAPE   H3R16072   0.803   3.659  10.000  0.3918 -0.2287  0.7068
  146SAPE   H3S16073   0.768   3.754  10.135  0.6614  0.2528 -0.4167
  146SAPE   C2416074   0.595   3.635  10.071 -0.6204  0.2685  0.8497
  146SAPE   H4R16075   0.557   3.719  10.009 -0.6059 -1.8114 -2.1899
  146SAPE   H4S16076   0.534   3.642  10.164 -0.8142 -3.3726  1.1612
  146SAPE   C2516077   0.555   3.504  10.003 -0.4857 -0.0125 -0.0119
  146SAPE   H5R16078   0.506   3.429  10.067  2.3227 -1.1222  1.0012
  146SAPE   C2616079   0.571   3.470   9.877 -0.2175  0.3660 -0.3233
  146SAPE   H6R16080   0.540   3.370   9.844  1.9039  0.2250 -2.1182
  146SAPE   C2716081   0.635   3.554   9.770  0.3929 -0.3005 -0.0068
  146SAPE   H7R16082   0.684   3.641   9.818  0.8490 -0.7282  0.3122
  146SAPE   H7S16083   0.557   3.602   9.706  1.5778 -0.5869 -1.7540
  146SAPE   C2816084   0.737   3.484   9.682 -0.3976  0.1963  0.2109
  146SAPE   H8R16085   0.836   3.479   9.730 -1.0257  0.3025  1.5661
  146SAPE   C2916086   0.710   3.432   9.560 -0.2971  0.0933  0.1471
  146SAPE   H9R16087   0.795   3.383   9.510  1.0029  3.0669 -0.7330
  146SAPE  C21016088   0.580   3.433   9.488 -0.1730  0.3038  0.8220
  146SAPE  H10R16089   0.496   3.426   9.560 -4.0433 -1.4512 -3.3731
  146SAPE  H10S16090   0.568   3.348   9.417 -1.5943  1.4449 -0.3807
  146SAPE  C21116091   0.563   3.555   9.405  0.5847 -0.0775  0.2453
  146SAPE  H11R16092   0.582   3.649   9.460 -2.1135  1.2634 -0.9029
  146SAPE  C21216093   0.540   3.560   9.267  0.5096  0.1764 -0.7507
  146SAPE  H12R16094   0.546   3.662   9.225  1.9651 -0.1080 -1.3181
  146SAPE  C21316095   0.507   3.447   9.167  0.2437  0.6303 -1.1442
  146SAPE  H13R16096   0.444   3.377   9.225 -0.5537  2.0725 -0.1795
  146SAPE  H13S16097   0.601   3.390   9.154 -0.3615 -0.2370 -1.7931
  146SAPE  C21416098   0.446   3.491   9.041  0.0857  0.4122 -0.1327
  146SAPE  H14R16099   0.358   3.554   9.057  1.6725  2.7293 -0.0416
  146SAPE  C21516100   0.486   3.452   8.920  0.7747  0.3882  0.2336
  146SAPE  H15R16101   0.438   3.492   8.829 -1.1176  0.4414  1.1975
  146SAPE  C21616102   0.609   3.368   8.886  0.1046 -0.9354  0.2571
  146SAPE  H16R16103   0.602   3.263   8.924  0.2685 -1.0567 -0.0438
  146SAPE  H16S16104   0.701   3.402   8.939  0.1888 -0.2238 -0.3392
  146SAPE  C21716105   0.640   3.377   8.734 -0.1819  0.1505  1.0738
  146SAPE  H17R16106   0.676   3.478   8.705  1.7711 -0.7796  0.1151
  146SAPE  H17S16107   0.550   3.347   8.675  1.6712 -0.0538 -1.8204
  146SAPE  C21816108   0.756   3.283   8.701  0.2764  0.3791  0.3240
  146SAPE  H18R16109   0.739   3.178   8.732 -0.0182  0.6526  1.1417
  146SAPE  H18S16110   0.835   3.320   8.770  0.3311  0.7746  0.0503
  146SAPE  C21916111   0.811   3.273   8.551  0.7162 -0.4601 -0.0839
  146SAPE  H19R16112   0.865   3.371   8.546  0.4185 -0.2855  0.1047
  146SAPE  H19S16113   0.724   3.277   8.481  0.2191  0.0475  0.5506
  146SAPE  C22016114   0.899   3.162   8.511  0.0943 -0.5089 -0.0109
  146SAPE  H20R16115   0.992   3.156   8.572 -0.1930  3.6347  1.0976
  146SAPE  H20S16116   0.932   3.182   8.407 -0.2099  0.0893  0.0053
  146SAPE  H20T16117   0.849   3.063   8.517 -0.8354 -0.1042 -0.8373
  146SAPE   C3316118   0.327   3.083  10.018 -0.2156 -0.0726 -0.0814
  146SAPE   H3X16119   0.366   2.988  10.059  0.5946  0.4606  0.4150
  146SAPE   H3Y16120   0.392   3.115   9.933 -0.9153 -0.5985 -0.8250
  146SAPE   C3416121   0.186   3.062   9.958  0.4998 -0.2664 -0.9026
  146SAPE   H4X16122   0.152   3.166   9.936  0.0329 -0.3084 -0.3984
  146SAPE   H4Y16123   0.121   3.024  10.039  1.2770 -0.3240 -0.3045
  146SAPE   C3516124   0.191   2.984   9.831  0.8052  0.4024  0.2426
  146SAPE   H5X16125   0.092   2.936   9.818  0.8220  0.1559  0.9522
  146SAPE   H5Y16126   0.275   2.911   9.840 -0.3322 -1.0316 -0.2996
  146SAPE   C3616127   0.221   3.075   9.715 -0.2165  0.3806 -0.2950
  146SAPE   H6X16128   0.311   3.137   9.736  0.4449 -0.8975  0.7953
  146SAPE   H6Y16129   0.132   3.139   9.699  0.5171  1.4377 -0.2528
  146SAPE   C3716130   0.252   2.994   9.590 -0.2757 -0.0891  0.1052
  146SAPE   H7X16131   0.172   2.918   9.575 -0.0554 -0.6377  1.5431
  146SAPE   H7Y16132   0.347   2.937   9.602 -0.3385 -0.7964 -2.1813
  146SAPE   C3816133   0.287   3.080   9.467 -0.1641  0.0818  0.0778
  146SAPE   H8X16134   0.374   3.144   9.491  0.5222 -0.3176 -1.2100
  146SAPE   H8Y16135   0.204   3.153   9.455 -0.4646 -0.0617  1.2122
  146SAPE   C3916136   0.309   3.005   9.339 -0.1468  0.2684  0.1202
  146SAPE   H9X16137   0.222   2.946   9.304  1.2998 -1.4658 -0.7226
  146SAPE   H9Y16138   0.371   2.915   9.357 -1.1979 -0.4430  0.2582
  146SAPE  C31016139   0.361   3.095   9.228  0.5670  0.0443  0.6354
  146SAPE  H10X16140   0.456   3.129   9.274 -0.5367  0.1674  2.9127
  146SAPE  H10Y16141   0.293   3.181   9.212  0.7871 -0.2913 -2.8683
  146SAPE  C31116142   0.388   3.038   9.082 -1.4656 -0.2393 -0.7833
  146SAPE  H11X16143   0.440   2.941   9.096  2.6408  1.9759  1.2032
  146SAPE  H11Y16144   0.449   3.108   9.021 -1.2643 -0.4074 -0.7745
  146SAPE  C31216145   0.264   3.022   8.999 -0.4441  0.7211  0.1344
  146SAPE  H12X16146   0.209   3.110   8.960  2.3969  2.6879  0.2159
  146SAPE  H12Y16147   0.190   2.958   9.051 -1.8680  1.3007 -1.1144
  146SAPE  C31316148   0.295   2.962   8.861 -0.8746 -0.1561  0.0537
  146SAPE  H13X16149   0.372   2.882   8.860  0.3606  0.9183 -3.1595
  146SAPE  H13Y16150   0.332   3.047   8.800 -1.6917  0.1387 -0.0459
  146SAPE  C31416151   0.169   2.911   8.795 -0.8511  0.0260  0.3025
  146SAPE  H14X16152   0.082   2.975   8.823 -0.6716  0.4398 -0.0818
  146SAPE  H14Y16153   0.153   2.811   8.840  2.4927 -0.3533  0.9167
  146SAPE  C31516154   0.180   2.907   8.638  0.4529 -0.1014  0.0725
  146SAPE  H15X16155   0.258   2.833   8.610  1.1313 -0.6457  3.0904
  146SAPE  H15Y16156   0.202   3.013   8.611 -0.6546  0.2833  0.6197
  146SAPE  C31616157   0.043   2.871   8.587  0.3277  0.1262  0.2140
  146SAPE  H16X16158  -0.029   2.937   8.640  1.6953 -0.1155  2.5170
  146SAPE  H16Y16159   0.026   2.768   8.625  1.1333 -0.1757 -0.2261
  146SAPE  C31716160   0.044   2.883   8.430 -0.3511 -0.0183 -0.2209
  146SAPE  H17X16161   0.123   2.813   8.397  0.3301  0.3768  0.5192
  146SAPE  H17Y16162   0.082   2.985   8.406  1.3754  0.1882  2.7795
  146SAPE  C31816163  -0.088   2.854   8.360  1.2126  0.5885  0.2903
  146SAPE  H18X16164  -0.079   2.892   8.257  1.9576 -1.5402 -0.4866
  146SAPE  H18Y16165  -0.171   2.909   8.409  0.7027 -1.3475  1.7334
  146SAPE  H18Z16166  -0.112   2.746   8.355 -1.8492  1.1918 -4.5880
  147SAPE     N16167   2.267   5.770  10.922  0.4126 -0.4789  0.9684
  147SAPE   HN116168   2.270   5.872  10.941  2.4237 -0.8172  2.8209
  147SAPE   HN216169   2.258   5.756  10.819 -1.3571 -0.6528  1.1223
  147SAPE   HN316170   2.192   5.731  10.981 -1.8230 -1.0406 -2.0133
  147SAPE   C1216171   2.397   5.703  10.958 -0.2418  0.0474 -0.0133
  147SAPE  H12A16172   2.406   5.613  10.895 -0.7800 -0.7935  1.0625
  147SAPE  H12B16173   2.380   5.685  11.067  1.4428  1.8571  0.6128
  147SAPE   C1116174   2.521   5.786  10.935  0.1190 -0.3276 -0.2297
  147SAPE  H11A16175   2.542   5.778  10.826 -0.7204 -0.0506 -0.4218
  147SAPE  H11B16176   2.609   5.738  10.982 -0.8693 -0.1083  1.9728
  147SAPE     P16177   2.603   6.027  10.952 -0.0886 -0.1331 -0.3311
  147SAPE   O1316178   2.536   6.158  10.978 -0.1980 -0.5520 -0.4211
  147SAPE   O1416179   2.733   6.001  11.014 -0.2297  0.0647 -0.0398
  147SAPE   O1216180   2.500   5.919  10.986  0.2507 -0.6501  0.1613
  147SAPE   O1116181   2.631   6.012  10.797 -0.1716 -0.0942  0.6807
  147SAPE    C116182   2.526   6.050  10.704 -0.6362 -0.5092 -0.2902
  147SAPE    HA16183   2.435   5.987  10.714 -0.8961  0.1637  2.1625
  147SAPE    HB16184   2.490   6.153  10.723 -1.5445 -0.9207  0.3051
  147SAPE    C216185   2.569   6.034  10.557  0.4003  0.2479 -0.4454
  147SAPE    HS16186   2.654   6.099  10.526  2.5766 -2.4569 -0.5516
  147SAPE   O2116187   2.448   6.041  10.471 -0.5258 -0.0037  0.2699
  147SAPE   C2116188   2.424   6.172  10.433 -0.4240  0.6597  0.6851
  147SAPE   O2216189   2.502   6.263  10.444 -0.0776  0.4563  0.3974
  147SAPE   C2216190   2.293   6.181  10.359  0.0036 -0.7403  0.0767
  147SAPE   H2R16191   2.280   6.092  10.294  1.5167 -0.7503 -0.2539
  147SAPE   H2S16192   2.215   6.181  10.438 -1.4728  0.9794 -1.3257
  147SAPE    C316193   2.632   5.889  10.537  0.4161 -0.0967 -0.3825
  147SAPE    HX16194   2.562   5.830  10.599 -0.1060 -0.2524 -1.1139
  147SAPE    HY16195   2.736   5.885  10.577  0.7430 -1.4525 -1.3077
  147SAPE   O3116196   2.641   5.846  10.397  0.1005  0.0763 -0.6687
  147SAPE   C3116197   2.534   5.775  10.365  0.4911 -0.0349 -0.6168
  147SAPE   O3216198   2.462   5.709  10.441  0.0354 -0.2566  0.1343
  147SAPE   C3216199   2.521   5.772  10.214 -0.5645 -0.0163  0.5527
  147SAPE   H2X16200   2.591   5.693  10.180 -0.7478 -0.7055  1.7056
  147SAPE   H2Y16201   2.549   5.871  10.173  0.6934 -0.4263  0.3871
  147SAPE   C2316202   2.295   6.307  10.276  0.1074  0.5992 -0.2471
  147SAPE   H3R16203   2.315   6.397  10.338 -0.0145  0.6694 -0.3104
  147SAPE   H3S16204   2.188   6.311  10.246 -0.7428 -0.6843  2.3743
  147SAPE   C2416205   2.395   6.301  10.158  0.5197  0.5564  0.3738
  147SAPE   H4R16206   2.368   6.215  10.093  3.0738  0.6356 -0.9654
  147SAPE   H4S16207   2.499   6.292  10.197  0.1819 -0.6337  1.0243
  147SAPE   C2516208   2.364   6.427  10.077 -1.1098  0.3958  0.2370
  147SAPE   H5R16209   2.352   6.523  10.129 -2.1598  0.7060 -0.5551
  147SAPE   C2616210   2.365   6.432   9.943 -0.5078  0.6608 -0.7507
  147SAPE   H6R16211   2.372   6.534   9.903  3.7765  1.4453  1.4502
  147SAPE   C2716212   2.389   6.320   9.845  0.2124 -0.3981 -0.1357
  147SAPE   H7R16213   2.462   6.248   9.889  0.5298 -0.5807 -0.9550
  147SAPE   H7S16214   2.451   6.356   9.760  1.7047  0.9583  1.4479
  147SAPE   C2816215   2.250   6.263   9.815 -0.4873  0.1801 -0.4953
  147SAPE   H8R16216   2.175   6.269   9.895 -1.9100  1.5703 -1.8656
  147SAPE   C2916217   2.215   6.189   9.705 -0.1420 -0.0555  0.0981
  147SAPE   H9R16218   2.115   6.145   9.698  0.8207 -2.3035 -0.1170
  147SAPE  C21016219   2.313   6.149   9.593  0.0940 -0.5564 -0.4457
  147SAPE  H10R16220   2.292   6.041   9.580 -1.0902 -0.3234 -0.5406
  147SAPE  H10S16221   2.418   6.154   9.628 -0.2089  0.2541  0.3862
  147SAPE  C21116222   2.313   6.235   9.469 -0.5398  0.1332  0.3194
  147SAPE  H11R16223   2.251   6.326   9.477  0.0723  0.6523 -0.6266
  147SAPE  C21216224   2.360   6.208   9.346  0.5163  0.1939 -0.2418
  147SAPE  H12R16225   2.348   6.289   9.272 -0.2800 -1.1099 -1.5905
  147SAPE  C21316226   2.459   6.103   9.297  0.0894 -0.4817 -0.0986
  147SAPE  H13R16227   2.552   6.125   9.354 -0.7687  0.5668  0.9286
  147SAPE  H13S16228   2.487   6.133   9.193 -0.0098  0.8240  0.2404
  147SAPE  C21416229   2.415   5.967   9.321 -1.1075 -0.3382 -0.2357
  147SAPE  H14R16230   2.387   5.946   9.425 -2.1119  1.3205 -0.1258
  147SAPE  C21516231   2.419   5.876   9.227 -0.6716  0.7900 -0.2239
  147SAPE  H15R16232   2.384   5.776   9.253 -1.3089  1.0090 -0.2383
  147SAPE  C21616233   2.453   5.893   9.083 -0.2511  0.6105  0.4121
  147SAPE  H16R16234   2.485   5.998   9.062 -0.4857  0.8999  1.4471
  147SAPE  H16S16235   2.358   5.892   9.025  1.1370 -0.2151 -2.0104
  147SAPE  C21716236   2.551   5.793   9.026 -0.1642 -0.2742 -0.1351
  147SAPE  H17R16237   2.535   5.693   9.072 -2.0678  0.3900  0.7645
  147SAPE  H17S16238   2.650   5.832   9.059 -0.6453 -0.1118  1.1816
  147SAPE  C21816239   2.539   5.787   8.873 -0.0959  0.4379 -0.2603
  147SAPE  H18R16240   2.610   5.708   8.838 -0.4317 -1.3171  2.7106
  147SAPE  H18S16241   2.585   5.880   8.833 -0.1330  0.4764 -0.2133
  147SAPE  C21916242   2.403   5.739   8.799 -0.3991 -0.4496  0.1889
  147SAPE  H19R16243   2.432   5.753   8.693 -0.2954  1.2363  0.4111
  147SAPE  H19S16244   2.324   5.815   8.821  0.4149  0.1913  0.9628
  147SAPE  C22016245   2.348   5.607   8.836  0.4195 -0.0882  0.4245
  147SAPE  H20R16246   2.437   5.543   8.852  0.2188  0.0543  2.3006
  147SAPE  H20S16247   2.279   5.561   8.761  1.5730 -2.3619  0.6659
  147SAPE  H20T16248   2.293   5.609   8.933  1.4500 -1.1216  1.0572
  147SAPE   C3316249   2.377   5.743  10.153  0.3317 -0.2380  0.3476
  147SAPE   H3X16250   2.292   5.800  10.195  0.5290  0.3746 -0.0682
  147SAPE   H3Y16251   2.356   5.635  10.166 -0.7980 -0.0670  0.0298
  147SAPE   C3416252   2.378   5.753   9.998  0.4534 -0.3913  0.0515
  147SAPE   H4X16253   2.479   5.713   9.973  2.2466  2.9998  1.1519
  147SAPE   H4Y16254   2.382   5.858   9.962 -2.9430  0.0342  0.6369
  147SAPE   C3516255   2.264   5.692   9.909 -0.2815  0.1255  0.0553
  147SAPE   H5X16256   2.177   5.757   9.928 -0.7245 -0.8158  1.4375
  147SAPE   H5Y16257   2.239   5.588   9.942  0.7439 -0.6643 -1.5179
  147SAPE   C3616258   2.292   5.676   9.760 -0.4917 -0.1830 -0.0958
  147SAPE   H6X16259   2.393   5.630   9.754 -0.3255 -0.9294  4.8294
  147SAPE   H6Y16260   2.299   5.781   9.723  2.1933  0.9026  2.9958
  147SAPE   C3716261   2.182   5.597   9.692 -0.8062  0.6247 -0.3189
  147SAPE   H7X16262   2.089   5.653   9.712 -1.1676 -0.1533  0.2297
  147SAPE   H7Y16263   2.178   5.493   9.731  2.5586 -0.2039 -1.8288
  147SAPE   C3816264   2.202   5.590   9.535 -0.4556 -0.9394 -0.3604
  147SAPE   H8X16265   2.291   5.526   9.520  0.3916  0.8310 -4.0743
  147SAPE   H8Y16266   2.214   5.692   9.493  1.3125 -1.2323 -0.6227
  147SAPE   C3916267   2.082   5.524   9.454  0.2068  1.3425  0.0969
  147SAPE   H9X16268   1.995   5.593   9.459 -0.7634  0.1417  4.5432
  147SAPE   H9Y16269   2.048   5.427   9.495 -0.9287  0.3222 -2.9713
  147SAPE  C31016270   2.103   5.509   9.305  1.1379 -0.0051 -1.1229
  147SAPE  H10X16271   2.198   5.454   9.282  0.6411 -0.6689 -1.6364
  147SAPE  H10Y16272   2.109   5.611   9.261 -0.5747  1.6361  2.1130
  147SAPE  C31116273   1.988   5.444   9.229 -0.5477  0.0094  0.2637
  147SAPE  H11X16274   1.886   5.477   9.257 -1.0085  1.6204 -2.8625
  147SAPE  H11Y16275   1.997   5.337   9.258 -2.5357  0.1016  1.3316
  147SAPE  C31216276   2.017   5.460   9.076  0.4861 -0.1438 -0.2086
  147SAPE  H12X16277   2.122   5.427   9.058  0.7999  1.0086 -0.5671
  147SAPE  H12Y16278   2.011   5.565   9.040  1.7426  1.6272  4.0693
  147SAPE  C31316279   1.920   5.379   8.982  0.3560 -0.3828  0.3130
  147SAPE  H13X16280   1.830   5.443   8.972 -0.6251 -1.3957  2.1236
  147SAPE  H13Y16281   1.886   5.281   9.023 -1.0133  0.7726  2.1149
  147SAPE  C31416282   1.986   5.362   8.846  0.0695 -0.4171  0.5449
  147SAPE  H14X16283   2.074   5.295   8.858  0.9965  0.3605 -1.4281
  147SAPE  H14Y16284   2.019   5.462   8.810 -0.7410 -0.4175 -0.2304
  147SAPE  C31516285   1.895   5.299   8.742  0.1253 -0.7190  0.8744
  147SAPE  H15X16286   1.813   5.372   8.727  1.2453  0.3744 -0.2457
  147SAPE  H15Y16287   1.837   5.205   8.755 -2.5489  0.5973 -0.6890
  147SAPE  C31616288   1.977   5.278   8.614 -0.3359  0.0735  0.3520
  147SAPE  H16X16289   2.081   5.241   8.630 -0.1984 -0.8395 -2.2294
  147SAPE  H16Y16290   1.985   5.377   8.565  0.1647 -0.1357 -0.0002
  147SAPE  C31716291   1.896   5.181   8.521 -0.2648 -0.5856 -0.6594
  147SAPE  H17X16292   1.794   5.223   8.509 -0.3245 -1.2556 -3.0395
  147SAPE  H17Y16293   1.906   5.085   8.574  0.0331  0.8529  2.0740
  147SAPE  C31816294   1.962   5.174   8.378  0.6505 -0.3316  0.1443
  147SAPE  H18X16295   1.877   5.144   8.313 -1.7290  1.9304  1.9937
  147SAPE  H18Y16296   2.047   5.103   8.364 -0.7458 -2.1013  0.2542
  147SAPE  H18Z16297   1.998   5.272   8.340  0.6563  0.8152  2.9084
  148SAPE     N16298   4.499   0.619  10.717 -0.4546 -0.1811 -0.2632
  148SAPE   HN116299   4.449   0.709  10.706  0.2604  0.4318  1.2545
  148SAPE   HN216300   4.491   0.546  10.643  2.2684 -1.7097  0.7776
  148SAPE   HN316301   4.466   0.573  10.805 -1.5579  2.1225  0.6003
  148SAPE   C1216302   4.638   0.673  10.730  0.3109 -0.2551 -0.7223
  148SAPE  H12A16303   4.682   0.668  10.628 -0.0738  2.2042 -1.0786
  148SAPE  H12B16304   4.710   0.616  10.792 -1.4982 -0.7171  1.0717
  148SAPE   C1116305   4.643   0.820  10.768  0.4502 -0.3685  0.4007
  148SAPE  H11A16306   4.737   0.862  10.725 -0.9642  2.1422 -0.4661
  148SAPE  H11B16307   4.649   0.834  10.878 -3.9530  1.5123  0.5984
  148SAPE     P16308   4.524   1.044  10.680 -0.1204  0.1834 -0.4372
  148SAPE   O1316309   4.407   1.104  10.747  0.0182 -0.6066  0.7496
  148SAPE   O1416310   4.650   1.116  10.709 -0.3493  0.2070  0.1033
  148SAPE   O1216311   4.525   0.885  10.718  0.5127 -0.1515 -0.3318
  148SAPE   O1116312   4.504   1.026  10.532 -0.2947 -0.1437  0.2575
  148SAPE    C116313   4.391   0.979  10.457 -0.1632 -0.2334 -0.4381
  148SAPE    HA16314   4.295   0.989  10.512  1.6376 -2.5282  3.5729
  148SAPE    HB16315   4.396   1.049  10.371  2.2375  2.4923  1.6998
  148SAPE    C216316   4.399   0.830  10.406  0.4522  0.1233  0.3679
  148SAPE    HS16317   4.413   0.781  10.505 -0.2459  3.4453  2.2583
  148SAPE   O2116318   4.515   0.817  10.318  0.1160 -0.5913 -0.5140
  148SAPE   C2116319   4.541   0.699  10.281 -0.0590 -0.7704  0.1763
  148SAPE   O2216320   4.484   0.599  10.319  0.2158 -0.2223 -0.6415
  148SAPE   C2216321   4.630   0.701  10.154 -0.0451  0.9104  0.3734
  148SAPE   H2R16322   4.732   0.739  10.176  0.4055 -0.2952  0.4523
  148SAPE   H2S16323   4.641   0.595  10.122 -0.8166  0.6136  1.0803
  148SAPE    C316324   4.263   0.791  10.348  0.2588 -0.2047  1.0706
  148SAPE    HX16325   4.183   0.826  10.416  0.8978  0.9103  1.2770
  148SAPE    HY16326   4.255   0.681  10.331  0.7351 -0.0683 -0.1196
  148SAPE   O3116327   4.257   0.866  10.223  0.1437 -0.5282 -0.5713
  148SAPE   C3116328   4.148   0.836  10.146 -0.0090  0.2146  0.2529
  148SAPE   O3216329   4.054   0.772  10.184  0.4422 -0.1376  0.8110
  148SAPE   C3216330   4.141   0.935  10.031 -0.2870 -1.4617 -0.6287
  148SAPE   H2X16331   4.236   0.935   9.973  0.2274  1.6480  0.0439
  148SAPE   H2Y16332   4.143   1.035  10.080  0.6327 -1.1566 -1.2499
  148SAPE   C2316333   4.564   0.772  10.034 -0.1433  0.2608 -0.4303
  148SAPE   H3R16334   4.582   0.880  10.053 -0.4879  0.5491 -1.6315
  148SAPE   H3S16335   4.453   0.762  10.033 -0.2234  1.0571 -0.9578
  148SAPE   C2416336   4.617   0.743   9.895  0.1185 -0.3622  0.0116
  148SAPE   H4R16337   4.554   0.660   9.857  0.8863 -0.7323 -0.4708
  148SAPE   H4S16338   4.721   0.704   9.906  0.0687 -0.2643  0.9456
  148SAPE   C2516339   4.601   0.865   9.808 -0.4920  0.0781 -0.7319
  148SAPE   H5R16340   4.635   0.962   9.845  0.4936  0.0082 -1.4267
  148SAPE   C2616341   4.534   0.861   9.695  0.0903  0.0116  0.4593
  148SAPE   H6R16342   4.503   0.956   9.649  4.7058  0.7248 -1.7811
  148SAPE   C2716343   4.459   0.748   9.620  0.5834  0.2771  1.1895
  148SAPE   H7R16344   4.351   0.770   9.636 -0.1171 -0.4330 -1.8966
  148SAPE   H7S16345   4.480   0.655   9.677  0.4867  0.7559  2.0249
  148SAPE   C2816346   4.454   0.727   9.467 -0.2207 -0.1402  0.4309
  148SAPE   H8R16347   4.371   0.764   9.405 -0.2957 -0.2003  0.4950
  148SAPE   C2916348   4.556   0.674   9.393  0.1840  0.2283  0.0221
  148SAPE   H9R16349   4.540   0.672   9.284  2.0492  0.0386 -0.2739
  148SAPE  C21016350   4.687   0.616   9.445 -0.3228 -0.0191 -0.3240
  148SAPE  H10R16351   4.685   0.585   9.552 -0.7863 -2.0584 -0.8660
  148SAPE  H10S16352   4.762   0.696   9.437  0.0358 -0.1164  1.4663
  148SAPE  C21116353   4.713   0.489   9.369 -0.8452  0.3781 -0.8572
  148SAPE  H11R16354   4.648   0.408   9.402  0.1739  0.0300  0.3790
  148SAPE  C21216355   4.795   0.480   9.260  0.0640  0.0639 -0.0557
  148SAPE  H12R16356   4.814   0.385   9.209 -0.5064  0.2914 -0.7148
  148SAPE  C21316357   4.880   0.591   9.205 -0.3892 -0.3808  0.9900
  148SAPE  H13R16358   4.928   0.646   9.288 -0.0717  2.0111 -0.6716
  148SAPE  H13S16359   4.818   0.671   9.160 -0.0919 -1.3085 -1.2122
  148SAPE  C21416360   4.976   0.552   9.096  0.2078 -0.2550 -0.0971
  148SAPE  H14R16361   5.076   0.539   9.140 -0.4760 -1.0803  1.3011
  148SAPE  C21516362   4.955   0.546   8.964 -0.1972 -0.0265 -1.2986
  148SAPE  H15R16363   5.036   0.512   8.899  2.0522 -0.9408  1.7730
  148SAPE  C21616364   4.813   0.558   8.901 -0.1306  0.2778 -0.2619
  148SAPE  H16R16365   4.830   0.644   8.832 -0.0211  1.8208  1.5919
  148SAPE  H16S16366   4.723   0.583   8.962 -1.0692  0.2184 -1.5616
  148SAPE  C21716367   4.784   0.435   8.817 -0.3406 -0.0426 -0.0200
  148SAPE  H17R16368   4.873   0.392   8.767  1.0757  1.3207  1.2366
  148SAPE  H17S16369   4.710   0.456   8.737 -0.7220  1.1431  0.6226
  148SAPE  C21816370   4.714   0.325   8.905  0.3078 -0.3777  0.0819
  148SAPE  H18R16371   4.627   0.367   8.960 -0.0290 -1.3535  0.3216
  148SAPE  H18S16372   4.781   0.270   8.974  1.4350 -2.0677 -2.2101
  148SAPE  C21916373   4.641   0.216   8.819  0.4467  0.1143  0.5978
  148SAPE  H19R16374   4.582   0.265   8.738  0.0098 -0.9281  0.2723
  148SAPE  H19S16375   4.567   0.160   8.881  0.4247  0.8824  1.2913
  148SAPE  C22016376   4.736   0.112   8.750  0.5166 -0.7537 -0.9258
  148SAPE  H20R16377   4.676   0.058   8.673 -0.9621  0.5147 -0.7095
  148SAPE  H20S16378   4.771   0.035   8.823 -0.9532 -0.4903  0.0894
  148SAPE  H20T16379   4.821   0.162   8.699  1.5502 -0.6392  0.8326
  148SAPE   C3316380   4.011   0.926   9.946 -0.1036 -0.2012  0.8120
  148SAPE   H3X16381   3.978   1.026   9.910  2.4889  0.6594  0.5466
  148SAPE   H3Y16382   3.929   0.880  10.005 -0.0654 -0.6427  0.5245
  148SAPE   C3416383   4.022   0.838   9.825  0.6150 -0.2692  0.3200
  148SAPE   H4X16384   4.053   0.734   9.850 -1.9174 -1.2217 -0.2683
  148SAPE   H4Y16385   4.098   0.878   9.755  0.1117 -0.8766 -0.5894
  148SAPE   C3516386   3.886   0.835   9.755  0.1553  0.1095 -0.0930
  148SAPE   H5X16387   3.839   0.934   9.737 -1.3307 -0.7981 -1.5264
  148SAPE   H5Y16388   3.825   0.764   9.816 -0.5895 -0.1997 -1.1605
  148SAPE   C3616389   3.905   0.776   9.606  0.2046 -0.1523  0.0194
  148SAPE   H6X16390   3.823   0.710   9.571  0.8324 -0.3757 -1.0768
  148SAPE   H6Y16391   4.003   0.724   9.603  0.0313 -0.4318 -0.9472
  148SAPE   C3716392   3.907   0.885   9.497 -0.1644  0.3539 -0.0491
  148SAPE   H7X16393   4.005   0.938   9.498 -0.3543  0.7561  1.8987
  148SAPE   H7Y16394   3.820   0.949   9.523  0.3110  0.7326  0.6290
  148SAPE   C3816395   3.882   0.839   9.356 -0.0227 -0.3388 -0.0866
  148SAPE   H8X16396   3.778   0.800   9.352 -0.5189  0.9067  0.1216
  148SAPE   H8Y16397   3.953   0.756   9.336  1.0507  0.2720  1.0079
  148SAPE   C3916398   3.901   0.959   9.258 -0.0399 -0.4785  0.3397
  148SAPE   H9X16399   3.995   1.017   9.271 -0.3279  0.3747 -1.1898
  148SAPE   H9Y16400   3.814   1.025   9.278 -0.9021 -1.6804  0.6757
  148SAPE  C31016401   3.883   0.902   9.114  0.3623  0.2078  0.0932
  148SAPE  H10X16402   3.781   0.859   9.117  0.5166 -0.1301  0.7870
  148SAPE  H10Y16403   3.955   0.819   9.094  0.9130  0.7583 -0.2682
  148SAPE  C31116404   3.889   1.002   8.995 -0.4123  0.1717  0.5861
  148SAPE  H11X16405   3.992   1.043   8.996  0.3927 -1.7434  1.6301
  148SAPE  H11Y16406   3.818   1.086   9.015 -0.1762  0.1743  1.4624
  148SAPE  C31216407   3.851   0.945   8.859 -0.7256 -0.0246  0.0892
  148SAPE  H12X16408   3.744   0.916   8.852 -0.2223 -1.8268 -0.5331
  148SAPE  H12Y16409   3.902   0.854   8.821 -1.5927  0.5612 -2.7303
  148SAPE  C31316410   3.880   1.055   8.746 -0.5763  0.1683  0.3323
  148SAPE  H13X16411   3.989   1.077   8.732 -0.7286 -0.7848 -3.5378
  148SAPE  H13Y16412   3.833   1.154   8.764  2.3645  2.0164 -1.2804
  148SAPE  C31416413   3.822   1.008   8.605 -0.7435 -0.4409 -0.0483
  148SAPE  H14X16414   3.715   1.034   8.595 -0.6554 -0.8949 -3.3191
  148SAPE  H14Y16415   3.836   0.898   8.598  2.0486 -0.0806 -1.7906
  148SAPE  C31516416   3.901   1.074   8.487  0.0805  0.3115  0.2386
  148SAPE  H15X16417   3.913   1.179   8.519 -2.9299 -0.0075  2.9351
  148SAPE  H15Y16418   3.827   1.069   8.405 -0.0531  1.8286  0.2527
  148SAPE  C31616419   4.038   1.005   8.463  1.2467  0.3022 -0.2386
  148SAPE  H16X16420   4.012   0.899   8.444 -0.0679  0.8168 -1.4562
  148SAPE  H16Y16421   4.094   0.987   8.558 -0.7107 -1.5429  0.6347
  148SAPE  C31716422   4.115   1.063   8.346 -0.0918 -0.1156  0.0229
  148SAPE  H17X16423   4.104   1.173   8.344 -0.3447 -0.1345 -1.7576
  148SAPE  H17Y16424   4.062   1.041   8.250 -1.3228 -0.3483  0.7259
  148SAPE  C31816425   4.264   1.018   8.347  1.0966 -0.3898 -0.8878
  148SAPE  H18X16426   4.313   1.025   8.447  1.9548 -2.0926 -1.1394
  148SAPE  H18Y16427   4.331   1.067   8.273  0.3353 -0.1195 -1.4035
  148SAPE  H18Z16428   4.267   0.908   8.329  1.5593 -0.6805  0.8143
  149SAPE     N16429   5.649   2.350  10.462 -0.0813  0.1064  0.5603
  149SAPE   HN116430   5.700   2.318  10.547  0.6233 -0.0210  0.0901
  149SAPE   HN216431   5.646   2.454  10.459 -1.5481  0.0692 -0.5395
  149SAPE   HN316432   5.556   2.311  10.489  0.2801 -0.5051  0.9447
  149SAPE   C1216433   5.722   2.275  10.349  0.3961  0.1271  0.3334
  149SAPE  H12A16434   5.760   2.347  10.273  1.0874  1.4037  1.8580
  149SAPE  H12B16435   5.646   2.202  10.313  0.9889  0.0901 -0.8965
  149SAPE   C1116436   5.839   2.204  10.406 -0.2240 -0.1709  0.1144
  149SAPE  H11A16437   5.927   2.271  10.417  0.2089 -0.5910 -0.7203
  149SAPE  H11B16438   5.871   2.145  10.318 -0.4580  0.6144 -0.5107
  149SAPE     P16439   5.923   2.066  10.595  0.0402 -0.2427 -0.3366
  149SAPE   O1316440   5.986   2.167  10.684  0.1185 -0.1794  0.1755
  149SAPE   O1416441   5.884   1.936  10.658  0.0278 -0.6715 -0.1144
  149SAPE   O1216442   5.800   2.128  10.524 -0.2787 -0.4400 -0.4351
  149SAPE   O1116443   6.020   2.037  10.477 -0.7637 -0.1021 -0.3782
  149SAPE    C116444   6.163   2.019  10.487  0.7337  0.4967  0.0407
  149SAPE    HA16445   6.199   2.068  10.580  1.6824 -2.0518  1.1152
  149SAPE    HB16446   6.189   1.911  10.489  2.5505  0.7845 -2.6480
  149SAPE    C216447   6.241   2.077  10.367 -0.5342  0.1757  0.1799
  149SAPE    HS16448   6.345   2.042  10.377 -0.6050  0.2338  1.1881
  149SAPE   O2116449   6.229   2.221  10.365 -0.4200 -0.2026  0.6108
  149SAPE   C2116450   6.321   2.279  10.435  0.7371  0.2014 -0.1023
  149SAPE   O2216451   6.415   2.226  10.492 -0.3066 -0.1888 -0.1465
  149SAPE   C2216452   6.316   2.429  10.423 -0.2159 -0.2015 -0.2066
  149SAPE   H2R16453   6.215   2.465  10.450  0.9086  2.5875  0.6384
  149SAPE   H2S16454   6.383   2.475  10.500 -0.0628  1.7444 -1.4491
  149SAPE    C316455   6.172   2.021  10.236 -0.3126  0.2134 -0.6948
  149SAPE    HX16456   6.067   2.057  10.228 -0.3745  0.2802  0.3418
  149SAPE    HY16457   6.164   1.912  10.256  2.4429  0.1289  0.3238
  149SAPE   O3116458   6.251   2.039  10.113  0.1563  0.0557 -0.3610
  149SAPE   C3116459   6.349   1.946  10.089 -0.2621 -0.7991 -0.9948
  149SAPE   O3216460   6.386   1.859  10.166 -0.0143 -0.2677  0.1766
  149SAPE   C3216461   6.384   1.955   9.942 -0.4023  0.7668 -0.9919
  149SAPE   H2X16462   6.483   2.005   9.933  1.5135 -2.4483  0.3576
  149SAPE   H2Y16463   6.309   2.021   9.892 -2.0500  0.9514  1.5816
  149SAPE   C2316464   6.354   2.474  10.285  0.0364 -0.4937 -0.2144
  149SAPE   H3R16465   6.323   2.579  10.269 -0.1926 -0.3206  1.2173
  149SAPE   H3S16466   6.285   2.423  10.214  0.6342 -2.0588  0.2899
  149SAPE   C2416467   6.504   2.456  10.243 -0.3588  0.0453 -0.0820
  149SAPE   H4R16468   6.512   2.345  10.239 -1.2092 -0.0310  0.1461
  149SAPE   H4S16469   6.561   2.490  10.333 -0.6490  0.0209  0.1120
  149SAPE   C2516470   6.551   2.516  10.114 -0.5595 -0.5069  0.1860
  149SAPE   H5R16471   6.600   2.614  10.123  0.9293 -1.3268  1.5794
  149SAPE   C2616472   6.551   2.467   9.992  0.5025 -0.2958 -0.5085
  149SAPE   H6R16473   6.593   2.530   9.912  0.8608  0.4822  0.2771
  149SAPE   C2716474   6.491   2.335   9.948 -0.1338  0.3719  0.1944
  149SAPE   H7R16475   6.453   2.275  10.033  0.2262  0.8260  0.6909
  149SAPE   H7S16476   6.571   2.265   9.917 -2.0826 -1.9788  0.2154
  149SAPE   C2816477   6.384   2.362   9.843 -0.2784  0.4613 -0.2523
  149SAPE   H8R16478   6.279   2.375   9.873 -1.3262 -4.3389 -1.0117
  149SAPE   C2916479   6.397   2.353   9.711 -0.3058 -0.1705  0.2066
  149SAPE   H9R16480   6.311   2.363   9.644  0.9721 -1.6486 -1.7891
  149SAPE  C21016481   6.521   2.335   9.620 -0.1997 -0.5869  0.5264
  149SAPE  H10R16482   6.517   2.238   9.566  0.9644 -0.2948 -0.1249
  149SAPE  H10S16483   6.614   2.332   9.680 -1.1438  0.9792  2.1453
  149SAPE  C21116484   6.534   2.440   9.516  0.5829  0.6886 -0.3086
  149SAPE  H11R16485   6.525   2.538   9.564 -1.7943  0.1868  0.4150
  149SAPE  C21216486   6.549   2.430   9.382 -0.2872 -0.1459 -0.1271
  149SAPE  H12R16487   6.548   2.523   9.324  0.9519 -0.9215 -1.4573
  149SAPE  C21316488   6.560   2.310   9.289 -0.1332 -0.9480 -0.4117
  149SAPE  H13R16489   6.515   2.331   9.190  1.3990  1.3879 -0.7028
  149SAPE  H13S16490   6.510   2.221   9.334 -1.7843 -0.1105 -0.4847
  149SAPE  C21416491   6.707   2.286   9.268 -0.0092 -0.4736  0.5059
  149SAPE  H14R16492   6.759   2.263   9.362  0.6549 -0.9726  0.0267
  149SAPE  C21516493   6.778   2.278   9.151  0.9400 -0.0679 -1.1907
  149SAPE  H15R16494   6.888   2.267   9.155  0.7951 -1.9642 -1.7117
  149SAPE  C21616495   6.715   2.296   9.018 -0.9102 -0.2645  0.4907
  149SAPE  H16R16496   6.614   2.342   9.017 -0.3374  1.2334 -3.0472
  149SAPE  H16S16497   6.702   2.199   8.964  0.7731  0.0011 -0.4735
  149SAPE  C21716498   6.806   2.363   8.916  0.3316  0.0339 -0.7193
  149SAPE  H17R16499   6.894   2.296   8.904  1.7974  1.9271 -0.9743
  149SAPE  H17S16500   6.838   2.469   8.931  0.5985  0.3303 -2.9513
  149SAPE  C21816501   6.735   2.387   8.778  0.5047  0.6552 -0.0756
  149SAPE  H18R16502   6.658   2.465   8.797  2.0387  1.7315  2.1627
  149SAPE  H18S16503   6.685   2.294   8.744  1.9319  0.4289 -1.7024
  149SAPE  C21916504   6.804   2.455   8.658  0.4703 -0.3314 -0.3312
  149SAPE  H19R16505   6.881   2.395   8.605 -0.1363  0.0421 -1.6665
  149SAPE  H19S16506   6.863   2.542   8.693  1.3391 -0.7939 -0.6128
  149SAPE  C22016507   6.708   2.507   8.549  0.1550 -0.4139  0.2934
  149SAPE  H20R16508   6.619   2.545   8.603  1.3523  1.8288  0.7854
  149SAPE  H20S16509   6.674   2.421   8.487  0.8560 -1.7923  1.7417
  149SAPE  H20T16510   6.762   2.582   8.487 -0.9360 -0.1092 -0.3037
  149SAPE   C3316511   6.394   1.820   9.865 -0.3874  0.1592  0.7687
  149SAPE   H3X16512   6.302   1.759   9.853 -0.5430  0.6380 -0.5715
  149SAPE   H3Y16513   6.471   1.758   9.915  0.4798  1.0685  0.5946
  149SAPE   C3416514   6.434   1.851   9.717 -0.2761 -0.3594  0.1187
  149SAPE   H4X16515   6.488   1.766   9.670 -0.4584 -0.7478  0.6062
  149SAPE   H4Y16516   6.518   1.923   9.729  1.1143 -2.1180  1.3895
  149SAPE   C3516517   6.325   1.901   9.629 -0.5960  0.5886  0.4367
  149SAPE   H5X16518   6.289   1.994   9.678  0.5878  1.0452  0.4651
  149SAPE   H5Y16519   6.236   1.835   9.619  0.0434 -0.0997 -0.9584
  149SAPE   C3616520   6.358   1.956   9.486 -0.6057  0.2980 -0.0313
  149SAPE   H6X16521   6.446   2.023   9.500 -0.3344  0.1410 -0.9520
  149SAPE   H6Y16522   6.267   2.016   9.463 -0.2537 -0.1166 -2.8642
  149SAPE   C3716523   6.391   1.862   9.366  0.5798  0.1116 -0.3547
  149SAPE   H7X16524   6.301   1.816   9.320  0.2167  2.1034 -1.7505
  149SAPE   H7Y16525   6.459   1.784   9.407 -1.4018 -1.1426  0.7025
  149SAPE   C3816526   6.455   1.951   9.249  0.1648  0.8464  0.0797
  149SAPE   H8X16527   6.548   2.001   9.283 -0.1772  1.9050 -0.4804
  149SAPE   H8Y16528   6.373   2.022   9.222 -0.0500  0.3409 -0.6024
  149SAPE   C3916529   6.485   1.871   9.125  0.3502 -0.7485  0.1175
  149SAPE   H9X16530   6.389   1.825   9.094 -0.8811  2.1308 -0.6788
  149SAPE   H9Y16531   6.563   1.794   9.144 -0.8033 -2.1001 -0.4823
  149SAPE  C31016532   6.530   1.962   9.013 -0.3655 -0.5715 -0.3598
  149SAPE  H10X16533   6.618   2.020   9.047 -1.3914  0.8617 -0.0946
  149SAPE  H10Y16534   6.457   2.034   8.970  1.1160  0.4724 -1.2022
  149SAPE  C31116535   6.584   1.893   8.889 -0.0503  0.3288 -0.6595
  149SAPE  H11X16536   6.496   1.853   8.834  1.1639 -2.9819 -0.4188
  149SAPE  H11Y16537   6.652   1.815   8.930 -2.0068 -0.0629  2.1716
  149SAPE  C31216538   6.670   1.974   8.801  0.3189 -0.4896  0.4462
  149SAPE  H12X16539   6.769   1.989   8.849  0.4708  2.2998 -0.5501
  149SAPE  H12Y16540   6.627   2.077   8.793 -0.3132 -0.7789  0.0578
  149SAPE  C31316541   6.688   1.920   8.653 -0.2109  0.5647 -0.5270
  149SAPE  H13X16542   6.603   1.926   8.581 -0.2776  0.1892 -0.4795
  149SAPE  H13Y16543   6.710   1.813   8.671 -0.2419  0.4298 -1.2666
  149SAPE  C31416544   6.814   1.975   8.578 -0.1873 -0.9994  0.1419
  149SAPE  H14X16545   6.898   1.988   8.649  0.8601 -2.9148 -0.6650
  149SAPE  H14Y16546   6.786   2.076   8.540  0.7311 -1.0552 -0.7238
  149SAPE  C31516547   6.854   1.868   8.473 -1.0472  0.4421  0.2511
  149SAPE  H15X16548   6.777   1.846   8.395  0.1599 -0.3616 -0.7553
  149SAPE  H15Y16549   6.866   1.775   8.533 -0.8458  0.7571  0.7068
  149SAPE  C31616550   6.988   1.909   8.416  0.2325  0.2472 -0.4343
  149SAPE  H16X16551   7.064   1.926   8.495  2.3031  0.4846 -2.3661
  149SAPE  H16Y16552   6.969   2.011   8.375 -4.1104  0.5375  1.7671
  149SAPE  C31716553   7.045   1.816   8.310  0.1248 -0.3177 -0.0967
  149SAPE  H17X16554   6.975   1.795   8.226 -0.8713  0.0101  0.6245
  149SAPE  H17Y16555   7.051   1.716   8.360  1.9174  0.8408  2.1930
  149SAPE  C31816556   7.190   1.859   8.264  0.7946  0.7457  0.0411
  149SAPE  H18X16557   7.240   1.783   8.200 -0.1777  0.0348  0.1013
  149SAPE  H18Y16558   7.243   1.885   8.358 -2.2424  2.6018  1.4185
  149SAPE  H18Z16559   7.183   1.953   8.206  0.2461  0.7930  0.1742
  150SAPE     N16560   1.127   2.754  10.900  0.0948  0.0377  0.5898
  150SAPE   HN116561   1.158   2.850  10.928  0.1362  0.2896 -0.2853
  150SAPE   HN216562   1.031   2.758  10.860 -0.2107  0.6564  1.3636
  150SAPE   HN316563   1.121   2.701  10.989  1.5602 -0.4235  0.4436
  150SAPE   C1216564   1.206   2.694  10.787  0.4068  0.2414 -0.2933
  150SAPE  H12A16565   1.186   2.759  10.699  0.6356 -0.5787 -0.9655
  150SAPE  H12B16566   1.165   2.594  10.763  0.8739  0.0292 -0.2192
  150SAPE   C1116567   1.351   2.702  10.814 -1.1646  0.0150 -0.1198
  150SAPE  H11A16568   1.403   2.629  10.748 -0.5285  1.5523 -1.3976
  150SAPE  H11B16569   1.369   2.663  10.916 -2.0800  0.8565  0.3850
  150SAPE     P16570   1.491   2.908  10.700 -0.2071 -0.1277  0.2989
  150SAPE   O1316571   1.437   3.045  10.704  0.2940  0.4080  0.4908
  150SAPE   O1416572   1.632   2.892  10.735 -0.2546  0.7731  0.3649
  150SAPE   O1216573   1.407   2.830  10.804 -0.3326  0.6994 -0.3472
  150SAPE   O1116574   1.458   2.833  10.572  0.1515  0.8197  0.3737
  150SAPE    C116575   1.355   2.867  10.475 -0.8675 -0.6783  0.5433
  150SAPE    HA16576   1.302   2.778  10.433 -2.1466 -0.1453  0.9721
  150SAPE    HB16577   1.268   2.916  10.524 -1.1674  2.1248 -2.4351
  150SAPE    C216578   1.408   2.956  10.361 -0.0374 -0.1363  0.2879
  150SAPE    HS16579   1.402   3.061  10.396  0.5897 -0.4170  1.2727
  150SAPE   O2116580   1.318   2.934  10.246 -0.2566 -0.1991 -0.0833
  150SAPE   C2116581   1.297   3.032  10.164  0.5156 -0.7094  0.1378
  150SAPE   O2216582   1.340   3.146  10.168  0.1022  0.5238 -0.4002
  150SAPE   C2216583   1.180   2.993  10.071 -0.3278  0.1669 -0.1941
  150SAPE   H2R16584   1.175   2.883  10.077  1.5031  0.1251  1.8128
  150SAPE   H2S16585   1.087   3.045  10.102  0.8565  1.4398  1.4681
  150SAPE    C316586   1.557   2.931  10.325  0.1939  0.0696  0.3879
  150SAPE    HX16587   1.569   2.821  10.339  0.0065 -0.0221 -0.1588
  150SAPE    HY16588   1.627   2.973  10.400 -0.3742 -1.5598  1.9017
  150SAPE   O3116589   1.594   2.968  10.189 -0.2450  0.3113 -0.4348
  150SAPE   C3116590   1.620   3.096  10.170  0.1818 -0.1858  0.4304
  150SAPE   O3216591   1.631   3.179  10.258 -0.2760  0.0271 -0.2483
  150SAPE   C3216592   1.634   3.120  10.013  0.2897  0.2933 -0.4942
  150SAPE   H2X16593   1.555   3.050   9.978 -0.6728  0.1478  1.8074
  150SAPE   H2Y16594   1.737   3.086   9.990  0.2286 -0.9147  0.8679
  150SAPE   C2316595   1.218   3.033   9.925 -0.1598  0.1091  0.1575
  150SAPE   H3R16596   1.313   2.988   9.890  0.0157  2.0426 -2.1453
  150SAPE   H3S16597   1.229   3.144   9.931 -0.3117  0.0862  1.0064
  150SAPE   C2416598   1.116   2.988   9.823  0.4300  0.0805 -0.2306
  150SAPE   H4R16599   1.139   3.047   9.731  0.6330 -0.1488 -0.3259
  150SAPE   H4S16600   1.012   3.016   9.850 -0.2392 -0.5998 -1.9605
  150SAPE   C2516601   1.124   2.835   9.804  0.2032  0.2054 -0.1618
  150SAPE   H5R16602   1.101   2.771   9.890 -1.6540 -2.9093 -2.7678
  150SAPE   C2616603   1.172   2.772   9.695  0.6986 -0.7065  0.7067
  150SAPE   H6R16604   1.170   2.662   9.688 -0.6411 -0.7859  1.9914
  150SAPE   C2716605   1.209   2.839   9.564 -0.1610 -0.4754 -0.3263
  150SAPE   H7R16606   1.204   2.950   9.565  0.0256 -0.3736 -2.9199
  150SAPE   H7S16607   1.146   2.819   9.475  1.3287  0.9452 -1.7881
  150SAPE   C2816608   1.351   2.806   9.521  0.0857  0.0278  0.6577
  150SAPE   H8R16609   1.432   2.781   9.591 -0.2209 -0.3709  0.8718
  150SAPE   C2916610   1.395   2.827   9.392  0.4559  0.3668 -0.2840
  150SAPE   H9R16611   1.502   2.806   9.374  1.2243 -1.9094  4.9739
  150SAPE  C21016612   1.313   2.899   9.281  0.1077  0.2322  0.1521
  150SAPE  H10R16613   1.360   2.996   9.253 -1.0010  0.1565 -2.2389
  150SAPE  H10S16614   1.211   2.922   9.318 -0.4391 -1.2558 -0.3618
  150SAPE  C21116615   1.296   2.805   9.162 -0.6910 -0.7624 -0.9323
  150SAPE  H11R16616   1.199   2.754   9.166 -0.1007 -1.9711  3.8209
  150SAPE  C21216617   1.383   2.785   9.061 -0.1801 -0.0715  0.3704
  150SAPE  H12R16618   1.351   2.711   8.987 -1.9601  0.2649  0.7668
  150SAPE  C21316619   1.524   2.834   9.060 -0.4091 -0.2070 -0.1125
  150SAPE  H13R16620   1.527   2.940   9.095  0.2674 -1.0205  2.5225
  150SAPE  H13S16621   1.553   2.846   8.954 -1.5523 -1.8282 -0.6445
  150SAPE  C21416622   1.625   2.749   9.131 -0.0987 -0.9143 -0.4324
  150SAPE  H14R16623   1.602   2.643   9.119 -0.6613 -0.7610 -0.7272
  150SAPE  C21516624   1.733   2.788   9.195  0.2163  0.0232 -0.4832
  150SAPE  H15R16625   1.798   2.712   9.240 -2.0969 -0.5088  2.2332
  150SAPE  C21616626   1.786   2.930   9.204 -0.2792  0.3912  1.1816
  150SAPE  H16R16627   1.733   2.988   9.126 -0.3796 -0.3100  0.7128
  150SAPE  H16S16628   1.889   2.926   9.163 -0.5937 -1.4465  0.4329
  150SAPE  C21716629   1.783   2.998   9.336 -0.2173  0.3786 -0.4297
  150SAPE  H17R16630   1.674   3.000   9.357 -0.4420 -0.0983 -1.5025
  150SAPE  H17S16631   1.830   3.099   9.326  0.1906  0.4220  1.5268
  150SAPE  C21816632   1.852   2.917   9.451 -0.7770 -0.1302 -0.1521
  150SAPE  H18R16633   1.961   2.916   9.433 -0.7230 -3.1539 -0.1568
  150SAPE  H18S16634   1.829   2.808   9.453  1.9804 -0.7732  0.7608
  150SAPE  C21916635   1.825   2.983   9.586  0.0355  0.0607  0.2802
  150SAPE  H19R16636   1.824   3.094   9.577 -0.9933  0.1164  0.8701
  150SAPE  H19S16637   1.903   2.947   9.656 -0.2821 -1.4592 -0.1015
  150SAPE  C22016638   1.690   2.936   9.642 -0.2335  0.5257  0.0132
  150SAPE  H20R16639   1.694   2.827   9.666 -0.4387  0.6408  0.6003
  150SAPE  H20S16640   1.609   2.957   9.568 -1.4358 -1.4871  0.6481
  150SAPE  H20T16641   1.656   3.001   9.726 -0.1673  1.0799 -0.3875
  150SAPE   C3316642   1.602   3.269   9.968  0.0836  0.2504  0.0857
  150SAPE   H3X16643   1.681   3.331  10.017  2.2528 -1.3406 -1.2485
  150SAPE   H3Y16644   1.507   3.304  10.013  1.3047  2.8267  0.8961
  150SAPE   C3416645   1.608   3.294   9.815  0.2454  0.3124  0.0151
  150SAPE   H4X16646   1.700   3.264   9.761 -0.0865 -0.4009 -0.1687
  150SAPE   H4Y16647   1.604   3.405   9.806 -0.6587  0.2784 -0.1527
  150SAPE   C3516648   1.485   3.234   9.737 -0.2902  0.0441 -0.4558
  150SAPE   H5X16649   1.396   3.295   9.765 -0.8498 -1.8073  2.0675
  150SAPE   H5Y16650   1.466   3.136   9.784 -1.2197 -0.0630 -1.0394
  150SAPE   C3616651   1.505   3.211   9.585 -0.0330  0.1564  0.1306
  150SAPE   H6X16652   1.443   3.127   9.549  0.1203 -0.5970  1.5468
  150SAPE   H6Y16653   1.610   3.175   9.574 -0.1277  0.1496 -0.8630
  150SAPE   C3716654   1.503   3.337   9.501 -0.3635 -0.8707 -0.0930
  150SAPE   H7X16655   1.525   3.431   9.555  0.9823 -1.0365 -0.3323
  150SAPE   H7Y16656   1.393   3.347   9.488 -0.1977  0.7768 -0.4698
  150SAPE   C3816657   1.582   3.327   9.371 -0.2585  0.1447  0.5345
  150SAPE   H8X16658   1.558   3.227   9.330 -1.1299 -0.3077  2.0687
  150SAPE   H8Y16659   1.689   3.337   9.398  0.6162 -1.9446 -1.8268
  150SAPE   C3916660   1.543   3.429   9.258 -0.2805  0.1327 -0.6953
  150SAPE   H9X16661   1.552   3.526   9.312  3.4565  1.0268 -2.6488
  150SAPE   H9Y16662   1.434   3.418   9.238 -0.3026  1.4971 -1.4331
  150SAPE  C31016663   1.622   3.436   9.129 -0.3652  0.1691 -0.8064
  150SAPE  H10X16664   1.732   3.439   9.144 -0.0565  0.6205 -2.8900
  150SAPE  H10Y16665   1.585   3.523   9.071  1.3445  0.9515 -0.7836
  150SAPE  C31116666   1.599   3.321   9.027  0.8639 -0.2185 -0.5607
  150SAPE  H11X16667   1.648   3.233   9.074 -1.1334 -0.2267  1.7037
  150SAPE  H11Y16668   1.652   3.346   8.932 -1.8684  2.1044 -1.6206
  150SAPE  C31216669   1.448   3.287   9.004 -0.3025  0.1575  0.9917
  150SAPE  H12X16670   1.378   3.368   8.972 -0.9421 -0.1084  1.6852
  150SAPE  H12Y16671   1.410   3.253   9.103 -0.3979 -0.2627  0.8114
  150SAPE  C31316672   1.442   3.172   8.906 -0.2189 -0.3157  0.4963
  150SAPE  H13X16673   1.509   3.089   8.938  0.6098  0.2477  0.2624
  150SAPE  H13Y16674   1.487   3.205   8.810 -0.6230 -1.7815 -0.2199
  150SAPE  C31416675   1.315   3.106   8.875  0.4436 -0.2203  0.4669
  150SAPE  H14X16676   1.255   3.105   8.968  0.1508  1.1069  0.3143
  150SAPE  H14Y16677   1.333   3.001   8.843 -0.3608 -0.0608 -0.5724
  150SAPE  C31516678   1.232   3.183   8.768  0.3872  0.1377  0.1585
  150SAPE  H15X16679   1.242   3.291   8.793  2.1121 -0.0063  0.2263
  150SAPE  H15Y16680   1.124   3.158   8.777  0.5359 -0.4382  0.4353
  150SAPE  C31616681   1.282   3.173   8.627 -0.5476  0.3208  1.1785
  150SAPE  H16X16682   1.378   3.229   8.626  0.5466 -1.4487 -0.3456
  150SAPE  H16Y16683   1.208   3.229   8.566  0.5016 -0.6014 -1.0499
  150SAPE  C31716684   1.312   3.033   8.562 -0.0189 -0.0582 -0.7879
  150SAPE  H17X16685   1.227   2.966   8.589  0.6489  0.5219  3.5193
  150SAPE  H17Y16686   1.405   2.998   8.611 -0.8605 -1.1030  0.1169
  150SAPE  C31816687   1.345   3.024   8.415 -0.0765 -0.7945 -0.0415
  150SAPE  H18X16688   1.289   3.092   8.347 -0.0107 -2.0723 -1.4232
  150SAPE  H18Y16689   1.317   2.923   8.379  0.8161 -0.7934 -0.7692
  150SAPE  H18Z16690   1.453   3.046   8.403 -0.0795 -0.4495  0.5145
  151SAPE     N16691   5.091   0.200  10.739  1.0440 -0.4005 -0.2996
  151SAPE   HN116692   4.990   0.216  10.719  0.7951  0.1979  1.2745
  151SAPE   HN216693   5.142   0.173  10.652  0.2679 -2.1455 -0.2578
  151SAPE   HN316694   5.100   0.120  10.804  0.9701 -1.1673 -1.2113
  151SAPE   C1216695   5.142   0.326  10.806  0.2904 -0.7398 -0.4616
  151SAPE  H12A16696   5.247   0.302  10.831  1.1382 -0.0704 -3.1112
  151SAPE  H12B16697   5.079   0.341  10.896  0.7030 -0.7110 -0.1774
  151SAPE   C1116698   5.135   0.438  10.710  0.2691 -0.2681  0.0222
  151SAPE  H11A16699   5.038   0.439  10.656 -0.4217  0.7963  1.2258
  151SAPE  H11B16700   5.208   0.423  10.627  0.2626  2.6183 -0.6125
  151SAPE     P16701   5.030   0.647  10.828  0.0349 -0.1075 -0.0117
  151SAPE   O1316702   4.928   0.548  10.876  0.1899  0.5222 -0.0351
  151SAPE   O1416703   5.070   0.758  10.915 -0.4403  0.6741 -0.2744
  151SAPE   O1216704   5.159   0.560  10.775 -0.5652 -0.2362  0.2724
  151SAPE   O1116705   4.981   0.719  10.703 -0.5837 -0.1316  0.3006
  151SAPE    C116706   5.064   0.778  10.612 -0.4463 -0.0736  0.2864
  151SAPE    HA16707   5.097   0.879  10.643  0.6895  0.4642 -2.4569
  151SAPE    HB16708   5.154   0.714  10.600 -1.2075 -1.9514  3.2742
  151SAPE    C216709   4.999   0.783  10.470 -0.5336 -0.0374 -0.4136
  151SAPE    HS16710   4.898   0.827  10.482  0.7843  3.3861 -0.7671
  151SAPE   O2116711   5.007   0.657  10.412 -0.0436 -0.6371  0.0612
  151SAPE   C2116712   4.902   0.588  10.390  0.6345  0.8727 -0.5465
  151SAPE   O2216713   4.788   0.631  10.405 -0.2167 -0.3935  0.1652
  151SAPE   C2216714   4.939   0.440  10.343 -0.3125 -0.7747  0.5267
  151SAPE   H2R16715   5.045   0.444  10.310  0.1866 -1.6318  1.9171
  151SAPE   H2S16716   4.933   0.362  10.422  1.0920 -0.9987  0.4399
  151SAPE    C316717   5.085   0.879  10.382 -0.1619 -0.0926  0.1453
  151SAPE    HX16718   5.189   0.890  10.419 -0.9465  3.6840  1.7303
  151SAPE    HY16719   5.037   0.978  10.395  2.4457  1.2696  0.1295
  151SAPE   O3116720   5.087   0.836  10.246 -0.9878  0.2810 -0.9287
  151SAPE   C3116721   4.989   0.869  10.161 -0.9020  0.2645 -0.8549
  151SAPE   O3216722   4.891   0.931  10.193  0.8606 -0.8135 -0.3750
  151SAPE   C3216723   5.017   0.832  10.019  0.3866 -0.1487  0.2317
  151SAPE   H2X16724   4.960   0.738  10.005  0.3451 -0.1349  0.3105
  151SAPE   H2Y16725   5.128   0.822  10.013  0.6255  2.4748 -1.2374
  151SAPE   C2316726   4.864   0.388  10.218 -0.5663 -0.6714  0.1776
  151SAPE   H3R16727   4.756   0.368  10.236 -0.9420 -1.5821 -2.5508
  151SAPE   H3S16728   4.899   0.285  10.195 -1.5581 -0.6430 -1.6572
  151SAPE   C2416729   4.901   0.468  10.088 -0.2128  0.5920  0.0981
  151SAPE   H4R16730   4.885   0.573  10.119 -0.6162  0.9067 -1.1243
  151SAPE   H4S16731   4.816   0.452  10.018  0.1305  2.2961 -0.7503
  151SAPE   C2516732   5.038   0.462  10.029  0.2830 -0.5328 -0.2203
  151SAPE   H5R16733   5.113   0.511  10.092 -1.1771  2.3907 -0.5741
  151SAPE   C2616734   5.070   0.407   9.909  0.0587 -0.2617  0.3460
  151SAPE   H6R16735   5.174   0.421   9.878  1.3650  0.8599  4.4953
  151SAPE   C2716736   4.974   0.354   9.811 -0.2091 -0.1869 -1.1133
  151SAPE   H7R16737   4.991   0.405   9.714  1.7573 -1.2392 -1.3743
  151SAPE   H7S16738   4.873   0.386   9.844  0.3663  0.8786 -0.3433
  151SAPE   C2816739   4.966   0.211   9.788  0.2341  1.4356  0.8997
  151SAPE   H8R16740   5.023   0.152   9.862 -1.1354 -0.2173  0.7087
  151SAPE   C2916741   4.896   0.144   9.694  0.5922 -0.1565 -1.2503
  151SAPE   H9R16742   4.905   0.035   9.696  0.7514 -0.1326  0.5351
  151SAPE  C21016743   4.808   0.205   9.584  0.3074  0.3517  0.4623
  151SAPE  H10R16744   4.771   0.306   9.610  0.3407  0.5447 -0.2316
  151SAPE  H10S16745   4.720   0.138   9.571  1.1235 -0.4913 -1.0385
  151SAPE  C21116746   4.888   0.211   9.457  0.2562  0.2516  0.3800
  151SAPE  H11R16747   4.972   0.282   9.457  1.3838 -1.0375  0.8095
  151SAPE  C21216748   4.868   0.147   9.336 -0.8509  0.8694 -0.5140
  151SAPE  H12R16749   4.938   0.179   9.258 -1.4168  1.8186 -0.6368
  151SAPE  C21316750   4.753   0.057   9.308 -0.3305 -0.0882  0.1946
  151SAPE  H13R16751   4.730   0.008   9.405 -0.2617  0.9256  0.7420
  151SAPE  H13S16752   4.796  -0.025   9.248  0.8654 -1.1980  2.4256
  151SAPE  C21416753   4.630   0.126   9.249 -0.3135  0.1905 -0.3659
  151SAPE  H14R16754   4.630   0.235   9.262  2.1402 -0.0071  2.2846
  151SAPE  C21516755   4.548   0.066   9.164  0.2615  0.5811  0.1238
  151SAPE  H15R16756   4.462   0.120   9.121 -0.4741 -1.6664 -1.4271
  151SAPE  C21616757   4.549  -0.079   9.132 -0.8513 -0.0794  0.0528
  151SAPE  H16R16758   4.595  -0.143   9.210 -1.4379 -1.5823 -0.7908
  151SAPE  H16S16759   4.605  -0.105   9.040 -2.8077 -1.8539 -0.7283
  151SAPE  C21716760   4.400  -0.108   9.122 -0.4307 -0.1232 -0.2113
  151SAPE  H17R16761   4.352  -0.060   9.034  0.5025  0.0422 -0.6470
  151SAPE  H17S16762   4.348  -0.091   9.219 -2.0915  1.3427 -1.2969
  151SAPE  C21816763   4.382  -0.255   9.103  0.2572  0.0962  0.3238
  151SAPE  H18R16764   4.444  -0.303   9.182  1.4714  3.4303  1.5692
  151SAPE  H18S16765   4.427  -0.282   9.005 -1.6681  0.2999 -0.6730
  151SAPE  C21916766   4.243  -0.321   9.105  0.4820  0.2802  0.2390
  151SAPE  H19R16767   4.192  -0.321   9.204  0.1412 -0.5802  0.0725
  151SAPE  H19S16768   4.249  -0.429   9.080 -2.1834  0.1227  0.0566
  151SAPE  C22016769   4.142  -0.260   9.014  0.8768  0.0837  0.0170
  151SAPE  H20R16770   4.192  -0.274   8.916  2.8199 -0.0219  0.9811
  151SAPE  H20S16771   4.136  -0.151   9.032  1.0059 -0.1563  1.6607
  151SAPE  H20T16772   4.040  -0.303   9.027 -0.0862  2.1413 -0.3324
  151SAPE   C3316773   4.961   0.944   9.931 -0.8544 -0.7080 -0.1823
  151SAPE   H3X16774   4.972   1.045   9.976 -3.7161  0.7025 -2.2940
  151SAPE   H3Y16775   4.851   0.942   9.948 -1.1512  2.5514 -1.1644
  151SAPE   C3416776   5.018   0.941   9.787 -0.6708  0.0626  1.0943
  151SAPE   H4X16777   5.112   0.999   9.796  1.2670 -2.9251  1.5305
  151SAPE   H4Y16778   4.955   0.993   9.711  1.4674  1.3884  0.1409
  151SAPE   C3516779   5.047   0.803   9.734 -0.6041 -0.7071  0.3157
  151SAPE   H5X16780   4.967   0.734   9.769 -0.3533 -0.3296  1.7014
  151SAPE   H5Y16781   5.143   0.765   9.775  0.0579  0.3765 -0.1659
  151SAPE   C3616782   5.047   0.804   9.575 -0.0930 -0.1217 -0.1373
  151SAPE   H6X16783   4.954   0.841   9.527  0.9402  3.3264  0.2587
  151SAPE   H6Y16784   5.077   0.704   9.539  2.5004  0.4529  0.2359
  151SAPE   C3716785   5.163   0.885   9.519  0.1698  0.2639  0.3655
  151SAPE   H7X16786   5.257   0.849   9.566 -0.4288 -1.3721  0.3540
  151SAPE   H7Y16787   5.141   0.987   9.559  0.7791  0.2133  0.8361
  151SAPE   C3816788   5.179   0.887   9.366  0.5917  0.3641 -0.0316
  151SAPE   H8X16789   5.210   0.791   9.319 -0.4296 -0.2860  0.5911
  151SAPE   H8Y16790   5.264   0.955   9.343  0.4889 -0.2693 -2.5119
  151SAPE   C3916791   5.054   0.936   9.287  0.7182 -0.1310 -0.3276
  151SAPE   H9X16792   5.021   1.040   9.307 -1.7907 -1.2575  2.0565
  151SAPE   H9Y16793   4.970   0.863   9.290 -1.0258  1.7157 -1.7544
  151SAPE  C31016794   5.073   0.937   9.136  0.3474  0.2626  0.4805
  151SAPE  H10X16795   5.095   0.836   9.095 -0.2206  0.8370 -1.3410
  151SAPE  H10Y16796   5.165   0.996   9.114 -0.1615  1.5353  1.6246
  151SAPE  C31116797   4.941   0.977   9.072 -0.1814 -0.2641 -0.3337
  151SAPE  H11X16798   4.903   1.078   9.101 -2.5212 -1.0281 -0.5266
  151SAPE  H11Y16799   4.859   0.909   9.103 -1.6350  1.4886 -0.1200
  151SAPE  C31216800   4.953   0.980   8.921 -0.4384  1.1283 -0.3925
  151SAPE  H12X16801   4.983   0.883   8.876  0.5641  0.9853  0.5710
  151SAPE  H12Y16802   5.031   1.056   8.899  0.7344 -0.4353 -1.8485
  151SAPE  C31316803   4.820   1.023   8.854 -0.1082 -0.0278  0.2597
  151SAPE  H13X16804   4.755   1.074   8.928 -3.8905 -3.2046 -0.5394
  151SAPE  H13Y16805   4.762   0.931   8.829 -1.2688  1.2205 -2.0715
  151SAPE  C31416806   4.842   1.112   8.727 -0.5143 -0.0640 -0.3999
  151SAPE  H14X16807   4.909   1.062   8.654  0.4775 -2.3050  1.8577
  151SAPE  H14Y16808   4.894   1.208   8.750 -2.7600  0.7662  1.6915
  151SAPE  C31516809   4.702   1.141   8.664 -0.3085 -0.4694  0.1199
  151SAPE  H15X16810   4.628   1.161   8.744  0.8388  1.1385  0.8249
  151SAPE  H15Y16811   4.671   1.040   8.628  1.8960 -0.6658 -1.3930
  151SAPE  C31616812   4.685   1.235   8.547  0.1887  0.1729 -0.1241
  151SAPE  H16X16813   4.752   1.199   8.466  0.7554  1.1506 -0.0982
  151SAPE  H16Y16814   4.695   1.340   8.582 -0.7154 -0.2680  1.5466
  151SAPE  C31716815   4.547   1.216   8.479  0.1363  0.3076  0.1435
  151SAPE  H17X16816   4.519   1.108   8.473 -0.8437  0.3928  2.2703
  151SAPE  H17Y16817   4.557   1.259   8.377 -2.2316 -1.1624 -0.8134
  151SAPE  C31816818   4.438   1.285   8.558 -0.3393 -0.0567  1.2411
  151SAPE  H18X16819   4.445   1.278   8.669  4.6486 -0.5271  1.1052
  151SAPE  H18Y16820   4.347   1.258   8.500  0.6585 -0.4413 -0.1714
  151SAPE  H18Z16821   4.455   1.392   8.532 -0.1710 -0.5753 -0.9263
  152SAPE     N16822   5.678   4.447  10.923 -0.5319 -0.8827 -0.2493
  152SAPE   HN116823   5.770   4.475  10.883 -1.6087  2.0659 -0.9017
  152SAPE   HN216824   5.659   4.345  10.915 -0.5261 -0.7936 -1.6423
  152SAPE   HN316825   5.603   4.494  10.868 -0.9985 -0.7185  0.5187
  152SAPE   C1216826   5.662   4.483  11.065  0.0956  0.7610  0.1432
  152SAPE  H12A16827   5.760   4.471  11.117 -0.8723 -0.8373  1.7367
  152SAPE  H12B16828   5.586   4.416  11.112 -0.1507  1.8267  1.3040
  152SAPE   C1116829   5.614   4.629  11.082  0.1173  0.4198 -0.3912
  152SAPE  H11A16830   5.616   4.650  11.191 -0.9444  3.1644 -0.8110
  152SAPE  H11B16831   5.505   4.636  11.063 -0.0350  1.0333  0.6433
  152SAPE     P16832   5.789   4.825  11.052  0.4848  0.0859 -0.0218
  152SAPE   O1316833   5.724   4.917  11.147 -0.5979  0.1460  0.0681
  152SAPE   O1416834   5.907   4.748  11.096  0.2450 -0.0350 -0.3084
  152SAPE   O1216835   5.684   4.725  11.006 -0.0776  0.1735  0.1876
  152SAPE   O1116836   5.824   4.900  10.912  0.1680  0.0125  0.1512
  152SAPE    C116837   5.950   4.964  10.905 -0.1680 -0.6327  0.4130
  152SAPE    HA16838   5.943   5.071  10.936  1.2755 -0.4505  0.1827
  152SAPE    HB16839   6.021   4.925  10.982 -0.1558  0.7020  1.1102
  152SAPE    C216840   6.018   4.967  10.754 -0.0413  0.2708  0.4703
  152SAPE    HS16841   6.102   5.041  10.756  1.1327 -1.0440  1.2534
  152SAPE   O2116842   5.932   5.014  10.649  0.5464  0.0864 -0.0125
  152SAPE   C2116843   5.892   5.142  10.655 -0.3594 -0.9218  0.0923
  152SAPE   O2216844   5.920   5.224  10.740  0.2998 -0.0782 -0.7051
  152SAPE   C2216845   5.794   5.171  10.549 -0.1051  0.3743  0.0856
  152SAPE   H2R16846   5.837   5.156  10.448 -1.1754 -0.8073 -0.2261
  152SAPE   H2S16847   5.711   5.098  10.564  0.6513 -0.3162  0.9552
  152SAPE    C316848   6.065   4.823  10.721  0.3446 -0.2260  0.7048
  152SAPE    HX16849   5.975   4.758  10.726  0.3973 -0.2319  1.8809
  152SAPE    HY16850   6.140   4.795  10.798 -0.8859 -0.3864  1.8928
  152SAPE   O3116851   6.128   4.815  10.594 -0.2156 -0.1657 -0.2956
  152SAPE   C3116852   6.075   4.734  10.500  0.2451 -0.1186  0.2487
  152SAPE   O3216853   5.989   4.653  10.523 -0.4461 -0.0694  0.7253
  152SAPE   C3216854   6.145   4.750  10.365  0.0216 -0.8874  0.1827
  152SAPE   H2X16855   6.164   4.647  10.328 -1.7986 -1.7183  1.3933
  152SAPE   H2Y16856   6.238   4.808  10.382 -1.0676  0.7704  0.7848
  152SAPE   C2316857   5.726   5.311  10.555  1.0420 -0.6977 -0.2978
  152SAPE   H3R16858   5.789   5.399  10.579 -0.4251  0.2228  0.2653
  152SAPE   H3S16859   5.646   5.315  10.632 -2.0188 -0.7966 -3.2490
  152SAPE   C2416860   5.644   5.334  10.428  0.3818 -0.0788 -0.1914
  152SAPE   H4R16861   5.571   5.250  10.433 -0.9692  1.1026  0.6792
  152SAPE   H4S16862   5.704   5.314  10.336  1.6990 -0.1097  0.6489
  152SAPE   C2516863   5.572   5.464  10.414 -0.1046  0.0394  0.0277
  152SAPE   H5R16864   5.504   5.489  10.497  0.2797  0.8539  0.0975
  152SAPE   C2616865   5.560   5.549  10.307 -0.6360 -0.6481 -0.3363
  152SAPE   H6R16866   5.491   5.635  10.312  1.1443  0.7872  1.1037
  152SAPE   C2716867   5.610   5.537  10.160  0.0800  0.2029 -0.2724
  152SAPE   H7R16868   5.523   5.524  10.093 -0.1675 -1.8613  0.3580
  152SAPE   H7S16869   5.690   5.459  10.152  0.5065  0.6034  0.0239
  152SAPE   C2816870   5.681   5.672  10.118  0.0918 -0.0929 -0.1714
  152SAPE   H8R16871   5.685   5.758  10.186  1.2488  0.4075 -0.8540
  152SAPE   C2916872   5.743   5.690  10.001 -1.0269 -0.2471 -0.3569
  152SAPE   H9R16873   5.804   5.780   9.981  0.1106 -0.8116  0.4625
  152SAPE  C21016874   5.750   5.601   9.884 -0.6319 -0.2425  0.1679
  152SAPE  H10R16875   5.782   5.499   9.912  0.7736 -0.1371 -0.9420
  152SAPE  H10S16876   5.845   5.629   9.833  0.3634 -0.8152  1.6611
  152SAPE  C21116877   5.616   5.601   9.802  0.2099 -0.5021  0.4146
  152SAPE  H11R16878   5.522   5.616   9.856  1.0208  2.8665  1.1661
  152SAPE  C21216879   5.614   5.573   9.670 -0.2986 -0.8215  0.4088
  152SAPE  H12R16880   5.519   5.557   9.618 -0.0568  0.4288 -0.4727
  152SAPE  C21316881   5.737   5.543   9.581  0.2132  0.0568 -0.2863
  152SAPE  H13R16882   5.713   5.451   9.523  1.1681 -1.1752  1.2098
  152SAPE  H13S16883   5.827   5.515   9.639 -1.5715 -1.3709  1.9557
  152SAPE  C21416884   5.747   5.672   9.501  0.1217  0.6877  0.0466
  152SAPE  H14R16885   5.744   5.758   9.569  0.2820  0.0856  0.8248
  152SAPE  C21516886   5.773   5.681   9.368 -0.4425 -0.0999 -0.3979
  152SAPE  H15R16887   5.780   5.776   9.315 -0.1890 -0.2914 -0.7090
  152SAPE  C21616888   5.786   5.564   9.275 -0.2422  0.3383 -0.2233
  152SAPE  H16R16889   5.697   5.498   9.279 -1.1607  1.5757  0.5177
  152SAPE  H16S16890   5.873   5.509   9.315  0.5944  0.9987 -1.0716
  152SAPE  C21716891   5.809   5.587   9.118 -0.0614  0.8591 -0.1177
  152SAPE  H17R16892   5.732   5.662   9.089 -0.4473  1.3525  2.0510
  152SAPE  H17S16893   5.796   5.491   9.063 -0.2881  0.7009  0.2071
  152SAPE  C21816894   5.941   5.637   9.075 -0.0235 -0.2885  0.0146
  152SAPE  H18R16895   6.023   5.582   9.125  0.2553  1.2846  1.3762
  152SAPE  H18S16896   5.956   5.740   9.114 -1.3056 -0.3074  0.6050
  152SAPE  C21916897   5.963   5.663   8.926 -0.5809 -0.3932 -0.1561
  152SAPE  H19R16898   5.879   5.727   8.892  0.1551  1.6453  1.6384
  152SAPE  H19S16899   5.965   5.575   8.858 -0.4674  1.2741 -2.4082
  152SAPE  C22016900   6.095   5.747   8.907 -0.0791  0.1902 -0.3684
  152SAPE  H20R16901   6.102   5.780   8.801  0.0751  0.5679 -0.2415
  152SAPE  H20S16902   6.184   5.681   8.912 -0.3574 -0.3067 -1.5527
  152SAPE  H20T16903   6.111   5.838   8.968  2.6793  1.3845 -2.6384
  152SAPE   C3316904   6.051   4.809  10.252 -0.3162  0.5959  0.2971
  152SAPE   H3X16905   6.028   4.917  10.264  0.7334  0.9582 -0.8185
  152SAPE   H3Y16906   5.955   4.755  10.266  0.7876 -0.9592  2.5126
  152SAPE   C3416907   6.105   4.786  10.112  0.5885 -0.5413  0.2599
  152SAPE   H4X16908   6.131   4.681  10.089  0.4158 -0.1887 -1.8027
  152SAPE   H4Y16909   6.203   4.839  10.102  0.2138  0.4937  1.7238
  152SAPE   C3516910   6.006   4.824  10.004  0.3874  0.4394 -0.2384
  152SAPE   H5X16911   5.982   4.931  10.025  2.3554  0.4955  2.2546
  152SAPE   H5Y16912   5.911   4.766  10.003  0.5485  0.1735 -1.4506
  152SAPE   C3616913   6.072   4.805   9.865  0.8435 -0.3873  0.2261
  152SAPE   H6X16914   6.120   4.705   9.862  0.3630 -0.5963 -0.8025
  152SAPE   H6Y16915   6.155   4.879   9.852  0.1384  0.4818  0.5853
  152SAPE   C3716916   5.983   4.821   9.741  0.0855 -0.1688 -0.5737
  152SAPE   H7X16917   5.917   4.909   9.751  0.4285  0.1727 -1.2607
  152SAPE   H7Y16918   5.924   4.727   9.736  2.0166 -1.4728 -0.0112
  152SAPE   C3816919   6.071   4.831   9.615  0.5206 -0.2666  0.0956
  152SAPE   H8X16920   6.132   4.738   9.611  1.2541  0.2506 -2.7977
  152SAPE   H8Y16921   6.132   4.923   9.613  0.4079 -0.0659  2.6900
  152SAPE   C3916922   5.978   4.840   9.493  0.3950 -0.0774  0.1446
  152SAPE   H9X16923   5.898   4.915   9.511  0.9423  0.6418 -0.3456
  152SAPE   H9Y16924   5.939   4.737   9.476  0.3768  0.0209 -0.4398
  152SAPE  C31016925   6.058   4.880   9.374  0.0171  0.1974  0.3951
  152SAPE  H10X16926   6.142   4.951   9.390  0.1909 -0.0252  0.4893
  152SAPE  H10Y16927   5.996   4.938   9.304 -0.3386  0.2578  0.7599
  152SAPE  C31116928   6.106   4.765   9.287 -0.4405  0.1933 -0.1355
  152SAPE  H11X16929   6.024   4.708   9.238 -1.7355  0.8961  1.1355
  152SAPE  H11Y16930   6.159   4.696   9.356  0.7318  1.5296  0.3509
  152SAPE  C31216931   6.198   4.813   9.175  0.1994 -1.1505 -0.1677
  152SAPE  H12X16932   6.283   4.742   9.165  0.5330 -0.5775 -1.7760
  152SAPE  H12Y16933   6.247   4.910   9.197  2.7569 -2.2565 -0.5668
  152SAPE  C31316934   6.130   4.820   9.041 -0.1778 -0.6753  0.0362
  152SAPE  H13X16935   6.044   4.751   9.030 -3.4219  3.1381 -1.0438
  152SAPE  H13Y16936   6.209   4.819   8.963 -1.4792 -0.0074 -1.3451
  152SAPE  C31416937   6.071   4.956   9.013  0.3409  0.3238  0.4634
  152SAPE  H14X16938   6.155   5.029   9.014  0.3965  0.2557  0.8256
  152SAPE  H14Y16939   6.009   4.990   9.098  0.2930  1.6721 -0.0779
  152SAPE  C31516940   5.994   4.959   8.880  0.6346 -0.4661  0.6196
  152SAPE  H15X16941   5.922   4.874   8.883  0.7569 -0.5448  1.6799
  152SAPE  H15Y16942   6.068   4.937   8.800 -1.9323  1.5140 -2.5903
  152SAPE  C31616943   5.929   5.097   8.859  0.1744 -0.2708  0.2564
  152SAPE  H16X16944   6.007   5.175   8.859 -1.2233  1.1889  0.7155
  152SAPE  H16Y16945   5.869   5.128   8.948  1.9882  2.0338  0.7616
  152SAPE  C31716946   5.848   5.112   8.730  0.0053  0.3727 -0.0415
  152SAPE  H17X16947   5.784   5.021   8.738  3.1795 -2.1563 -1.1473
  152SAPE  H17Y16948   5.911   5.113   8.639 -0.6191 -0.8867 -0.5218
  152SAPE  C31816949   5.758   5.230   8.724  0.8943 -0.3569  0.5927
  152SAPE  H18X16950   5.806   5.329   8.732 -2.8290  1.6206  0.8788
  152SAPE  H18Y16951   5.672   5.219   8.794  0.8154  0.4160  0.6246
  152SAPE  H18Z16952   5.711   5.229   8.623  0.5960  0.2071  0.7215
  153SAPE     N16953   0.002   0.853  10.814 -0.0972 -0.1558  0.3833
  153SAPE   HN116954   0.041   0.873  10.719 -3.2425  0.4966 -0.8838
  153SAPE   HN216955   0.008   0.941  10.870 -0.4168 -0.6469  1.2067
  153SAPE   HN316956   0.069   0.793  10.866  0.0852  0.1587  0.5116
  153SAPE   C1216957  -0.133   0.788  10.802 -0.1566 -0.8367 -0.0931
  153SAPE  H12A16958  -0.207   0.871  10.809  0.0449 -0.4235 -2.1587
  153SAPE  H12B16959  -0.134   0.723  10.892 -0.7164 -0.6049  0.0731
  153SAPE   C1116960  -0.155   0.701  10.678  0.6232 -0.4322 -0.4084
  153SAPE  H11A16961  -0.182   0.755  10.585 -0.2896 -0.8572 -0.4100
  153SAPE  H11B16962  -0.249   0.645  10.698 -0.0383  0.6815 -0.3209
  153SAPE     P16963  -0.044   0.470  10.634  0.2076  0.2239 -0.0914
  153SAPE   O1316964   0.097   0.416  10.631  0.4722 -0.1584  0.6216
  153SAPE   O1416965  -0.130   0.422  10.736  0.0142 -0.0135 -0.0138
  153SAPE   O1216966  -0.033   0.626  10.654  0.6559 -0.4829  0.0192
  153SAPE   O1116967  -0.103   0.441  10.489  0.3906 -0.5850  0.4108
  153SAPE    C116968  -0.074   0.529  10.384 -0.0885  0.3204  0.0786
  153SAPE    HA16969  -0.114   0.632  10.398  0.7073  0.9906 -2.2809
  153SAPE    HB16970   0.035   0.541  10.372 -0.2090 -0.0344 -1.5922
  153SAPE    C216971  -0.126   0.467  10.248 -0.8840 -0.4609  0.1960
  153SAPE    HS16972  -0.071   0.526  10.172 -2.1475  1.4331  0.6871
  153SAPE   O2116973  -0.268   0.488  10.230  0.0126  0.2725 -0.2421
  153SAPE   C2116974  -0.308   0.605  10.199  0.3421 -0.2196  0.0412
  153SAPE   O2216975  -0.233   0.702  10.177 -0.2219 -0.7446  0.3431
  153SAPE   C2216976  -0.463   0.613  10.192 -0.1666  0.0617 -0.6657
  153SAPE   H2R16977  -0.493   0.656  10.290  3.5057 -0.2764  0.8135
  153SAPE   H2S16978  -0.487   0.685  10.111 -0.4849  1.3318  0.5179
  153SAPE    C316979  -0.096   0.316  10.251 -0.0894  0.0236  0.9262
  153SAPE    HX16980  -0.161   0.258  10.321 -1.1395 -0.9623 -0.7651
  153SAPE    HY16981   0.004   0.302  10.295  0.7314  1.0539 -0.5360
  153SAPE   O3116982  -0.102   0.259  10.121 -0.0729  0.5834  0.0540
  153SAPE   C3116983  -0.056   0.131  10.111  1.1429  0.5121 -0.2335
  153SAPE   O3216984  -0.013   0.065  10.201  0.1372  0.4244  0.4168
  153SAPE   C3216985  -0.089   0.074   9.974 -0.2678 -0.0343  0.3735
  153SAPE   H2X16986  -0.196   0.098   9.956  0.0351  1.6149  0.6753
  153SAPE   H2Y16987  -0.059  -0.031   9.993  1.8021  0.0140 -2.0579
  153SAPE   C2316988  -0.540   0.483  10.170  0.3729  0.7535 -0.4677
  153SAPE   H3R16989  -0.648   0.509  10.178  0.2586  0.9656 -2.2205
  153SAPE   H3S16990  -0.522   0.407  10.249  0.1735 -0.4101 -1.5024
  153SAPE   C2416991  -0.536   0.414  10.027 -0.6408 -0.0585  0.0841
  153SAPE   H4R16992  -0.577   0.493   9.961 -0.9001  0.4279  0.8043
  153SAPE   H4S16993  -0.618   0.339  10.035 -1.5885  1.0637  1.4323
  153SAPE   C2516994  -0.406   0.345   9.985  0.4828 -0.9762 -0.1199
  153SAPE   H5R16995  -0.349   0.295  10.065 -1.6730 -1.5988  1.1110
  153SAPE   C2616996  -0.354   0.351   9.862  0.1661  0.0538 -0.9206
  153SAPE   H6R16997  -0.255   0.306   9.850  0.4656  0.7151 -1.0093
  153SAPE   C2716998  -0.408   0.428   9.749  0.2179  0.3139  1.0700
  153SAPE   H7R16999  -0.467   0.515   9.782 -0.5953  0.5110 -0.7539
  153SAPE   H7S17000  -0.477   0.366   9.688  1.8901  1.3133 -2.0922
  153SAPE   C2817001  -0.292   0.478   9.663 -0.0673  0.1316 -0.4101
  153SAPE   H8R17002  -0.253   0.580   9.677 -0.7670  0.4432 -0.7062
  153SAPE   C2917003  -0.254   0.406   9.556  0.2210 -0.3573 -0.5363
  153SAPE   H9R17004  -0.166   0.443   9.502  0.0540  1.0307  0.0996
  153SAPE  C21017005  -0.308   0.272   9.523  0.2591  0.1802 -0.6429
  153SAPE  H10R17006  -0.419   0.270   9.523  0.1869 -1.9656  1.6325
  153SAPE  H10S17007  -0.270   0.202   9.602  1.7331 -2.0672 -3.1754
  153SAPE  C21117008  -0.246   0.222   9.399 -0.0331  0.0812  0.0625
  153SAPE  H11R17009  -0.152   0.273   9.372  0.1019  0.3457  1.0034
  153SAPE  C21217010  -0.296   0.128   9.320  0.1737  0.3521  0.1325
  153SAPE  H12R17011  -0.242   0.097   9.229  1.7851  1.6301  0.6045
  153SAPE  C21317012  -0.435   0.075   9.334  0.5118  0.2749 -0.1355
  153SAPE  H13R17013  -0.506   0.152   9.371  2.4596  0.9491  2.4773
  153SAPE  H13S17014  -0.424   0.009   9.423  1.7926  0.5436 -0.0783
  153SAPE  C21417015  -0.490  -0.010   9.218 -0.4529  0.3122  0.2508
  153SAPE  H14R17016  -0.505  -0.117   9.240 -1.4998  0.4169  0.0790
  153SAPE  C21517017  -0.509   0.025   9.089  0.6727 -0.4824 -0.4492
  153SAPE  H15R17018  -0.550  -0.041   9.011 -0.5246  0.1453 -0.3696
  153SAPE  C21617019  -0.473   0.160   9.040 -0.1064 -0.1926 -0.1988
  153SAPE  H16R17020  -0.460   0.232   9.124  1.9535  1.0126 -1.4589
  153SAPE  H16S17021  -0.564   0.194   8.987  0.9527 -1.5295 -3.0764
  153SAPE  C21717022  -0.355   0.173   8.947  0.5532  0.5454  0.3245
  153SAPE  H17R17023  -0.269   0.132   9.005 -1.5842  1.0227  4.1811
  153SAPE  H17S17024  -0.341   0.280   8.922  0.6843  0.1861 -1.2101
  153SAPE  C21817025  -0.381   0.099   8.814 -0.0021 -0.7956 -0.5514
  153SAPE  H18R17026  -0.486   0.101   8.778  0.3631 -0.5837 -1.6493
  153SAPE  H18S17027  -0.346  -0.006   8.827  2.6768 -0.3293 -2.9954
  153SAPE  C21917028  -0.306   0.163   8.697  0.3606  0.5316  0.3402
  153SAPE  H19R17029  -0.204   0.187   8.734 -0.0949  2.3199  0.5209
  153SAPE  H19S17030  -0.342   0.265   8.673  1.3309  0.9073  0.4443
  153SAPE  C22017031  -0.297   0.074   8.567 -0.2384 -0.0184 -0.3476
  153SAPE  H20R17032  -0.251  -0.019   8.607 -2.2348 -1.9845 -2.3439
  153SAPE  H20S17033  -0.227   0.118   8.493 -0.3351  1.5904  0.4746
  153SAPE  H20T17034  -0.400   0.051   8.533 -1.5181  3.3311  0.8712
  153SAPE   C3317035   0.004   0.132   9.864  0.4586 -0.2728 -0.1928
  153SAPE   H3X17036   0.105   0.141   9.909  0.5355 -0.5734 -0.3036
  153SAPE   H3Y17037  -0.029   0.233   9.832 -0.9497 -1.0791 -1.4782
  153SAPE   C3417038   0.034   0.041   9.752  0.3742  0.5623  0.4080
  153SAPE   H4X17039  -0.065  -0.004   9.726  0.0851 -0.3210  2.7893
  153SAPE   H4Y17040   0.112  -0.030   9.786  1.4901  1.9683  0.8595
  153SAPE   C3517041   0.101   0.110   9.630  0.2950 -0.4180 -0.0122
  153SAPE   H5X17042   0.168   0.196   9.654  0.4123 -0.1205 -1.3362
  153SAPE   H5Y17043   0.022   0.162   9.571  0.0182 -0.8561 -0.0299
  153SAPE   C3617044   0.181   0.010   9.540  0.3370 -0.0116  0.3815
  153SAPE   H6X17045   0.113  -0.075   9.521 -0.9530  0.8320  1.0501
  153SAPE   H6Y17046   0.264  -0.030   9.603  1.4161 -1.9760 -2.1342
  153SAPE   C3717047   0.226   0.088   9.422 -0.0736 -0.6614 -0.2558
  153SAPE   H7X17048   0.300   0.032   9.360  0.3208 -1.3351  0.8024
  153SAPE   H7Y17049   0.268   0.185   9.455 -0.5793  0.0366 -1.5732
  153SAPE   C3817050   0.114   0.119   9.313  0.4259  0.3625  0.1713
  153SAPE   H8X17051   0.034   0.179   9.362  1.4014  1.1521  0.8486
  153SAPE   H8Y17052   0.075   0.020   9.283 -0.2723 -0.5406  3.5615
  153SAPE   C3917053   0.170   0.197   9.189  0.0949  0.4041  0.2401
  153SAPE   H9X17054   0.255   0.151   9.135  0.4152  2.1128 -0.7702
  153SAPE   H9Y17055   0.215   0.295   9.214  2.1990  0.0429 -1.8102
  153SAPE  C31017056   0.050   0.219   9.081  0.2335 -0.3206  0.6060
  153SAPE  H10X17057  -0.033   0.275   9.129 -1.1628 -0.5221 -1.4622
  153SAPE  H10Y17058   0.008   0.121   9.051 -1.2727  0.5485 -0.2270
  153SAPE  C31117059   0.109   0.302   8.969 -0.3129 -0.3444 -0.3058
  153SAPE  H11X17060   0.186   0.240   8.918 -1.4277  0.2009 -2.7769
  153SAPE  H11Y17061   0.154   0.395   9.009  1.9399 -1.6120  0.3693
  153SAPE  C31217062   0.013   0.370   8.871  0.1409 -0.2900  0.1437
  153SAPE  H12X17063  -0.031   0.454   8.929  1.8165  1.0834 -0.5103
  153SAPE  H12Y17064  -0.064   0.292   8.850  0.5214 -0.3699 -0.9709
  153SAPE  C31317065   0.076   0.434   8.746 -0.6605  0.0458  0.3267
  153SAPE  H13X17066   0.112   0.349   8.684 -4.0221 -3.2068  2.3745
  153SAPE  H13Y17067   0.163   0.495   8.778  0.0399 -0.8584  0.2083
  153SAPE  C31417068  -0.027   0.522   8.671 -0.1388  0.1286  0.2006
  153SAPE  H14X17069   0.020   0.559   8.577  0.6164 -0.4395  0.3475
  153SAPE  H14Y17070  -0.063   0.618   8.715 -1.7027 -0.4401  0.2347
  153SAPE  C31517071  -0.159   0.445   8.639 -0.4610  0.3807 -0.1600
  153SAPE  H15X17072  -0.213   0.421   8.733 -0.1342  1.0145  0.1976
  153SAPE  H15Y17073  -0.119   0.353   8.590 -0.3506  0.7470 -0.7697
  153SAPE  C31617074  -0.231   0.514   8.520  0.6950 -0.4286 -1.0325
  153SAPE  H16X17075  -0.297   0.437   8.473 -0.5490  1.4350 -2.4762
  153SAPE  H16Y17076  -0.156   0.552   8.447  2.4331  0.2826  0.9972
  153SAPE  C31717077  -0.329   0.634   8.555  0.0746  0.2850  0.4881
  153SAPE  H17X17078  -0.392   0.661   8.467  2.1778 -1.1374 -1.5830
  153SAPE  H17Y17079  -0.259   0.718   8.574  1.3783 -0.6655  0.0286
  153SAPE  C31817080  -0.402   0.611   8.686 -0.4629 -0.0964  0.4434
  153SAPE  H18X17081  -0.460   0.704   8.701 -1.7883 -0.5568 -1.3708
  153SAPE  H18Y17082  -0.333   0.593   8.771 -0.7137 -2.6584  0.2022
  153SAPE  H18Z17083  -0.474   0.527   8.677 -0.0241 -0.4326 -0.0393
  154SAPE     N17084   1.221   6.621  11.262 -0.0651 -0.6109  0.4400
  154SAPE   HN117085   1.270   6.626  11.353  0.0108  1.0282  0.3325
  154SAPE   HN217086   1.120   6.643  11.270  0.5474  3.3219 -0.6505
  154SAPE   HN317087   1.241   6.525  11.229 -1.0821 -1.3227  1.8119
  154SAPE   C1217088   1.279   6.718  11.172 -0.4131  0.1148 -0.1387
  154SAPE  H12A17089   1.266   6.819  11.216  1.5393 -0.3262  1.6147
  154SAPE  H12B17090   1.226   6.728  11.075 -2.7304 -1.0495  0.9238
  154SAPE   C1117091   1.427   6.681  11.135  0.0778 -0.0100  0.1383
  154SAPE  H11A17092   1.495   6.714  11.216 -0.8216  1.8791  0.1601
  154SAPE  H11B17093   1.443   6.746  11.046 -1.9487  0.5857  0.1667
  154SAPE     P17094   1.548   6.486  11.006  0.3274 -0.1109  0.0724
  154SAPE   O1317095   1.674   6.567  11.027  0.2207 -0.1312 -0.3674
  154SAPE   O1417096   1.568   6.334  11.017 -0.4208 -0.3706 -0.0260
  154SAPE   O1217097   1.455   6.538  11.122 -0.1447 -0.0239  0.4049
  154SAPE   O1117098   1.487   6.525  10.863 -0.4524  0.1744  0.0122
  154SAPE    C117099   1.346   6.543  10.847 -0.6230  0.5697 -0.0616
  154SAPE    HA17100   1.286   6.494  10.927  0.4560 -1.0904 -0.2180
  154SAPE    HB17101   1.314   6.648  10.858  0.1300  0.9684 -1.4230
  154SAPE    C217102   1.307   6.491  10.707 -0.1062  0.2900 -0.0020
  154SAPE    HS17103   1.330   6.383  10.701  2.6168  0.8521 -1.4197
  154SAPE   O2117104   1.393   6.568  10.617  0.3830  0.0610 -0.0480
  154SAPE   C2117105   1.414   6.505  10.499 -0.3026 -0.2222  0.0549
  154SAPE   O2217106   1.394   6.389  10.470 -0.3911  0.1340  0.4760
  154SAPE   C2217107   1.477   6.603  10.406 -0.4897  0.2620 -0.3761
  154SAPE   H2R17108   1.433   6.703  10.428  0.9787  0.7685  0.3578
  154SAPE   H2S17109   1.585   6.611  10.428 -1.1395  0.3016  3.4665
  154SAPE    C317110   1.156   6.518  10.673  0.0537 -0.4428 -0.9508
  154SAPE    HX17111   1.155   6.624  10.639 -0.9572  0.5378  1.8677
  154SAPE    HY17112   1.101   6.537  10.768  3.0910  0.6003  0.7226
  154SAPE   O3117113   1.097   6.451  10.559 -0.3116  0.2524 -0.7281
  154SAPE   C3117114   1.082   6.323  10.571  0.5463  0.4660  0.3465
  154SAPE   O3217115   1.115   6.250  10.663  0.4673  0.5137  0.1665
  154SAPE   C3217116   1.004   6.274  10.448  0.0824 -0.0097  0.2720
  154SAPE   H2X17117   1.069   6.198  10.400 -0.6537 -0.4659 -0.0317
  154SAPE   H2Y17118   0.994   6.364  10.384  0.8139 -1.4390 -1.9750
  154SAPE   C2317119   1.452   6.575  10.253  0.2029 -0.0298  0.2043
  154SAPE   H3R17120   1.343   6.567  10.234  0.2843 -0.5234 -0.0778
  154SAPE   H3S17121   1.491   6.471  10.247 -1.3076 -0.7698  2.1682
  154SAPE   C2417122   1.522   6.673  10.155 -0.0672  0.4763 -0.0501
  154SAPE   H4R17123   1.519   6.628  10.054  0.1034  2.1968 -0.8697
  154SAPE   H4S17124   1.632   6.681  10.173 -0.1424  0.8667  0.2591
  154SAPE   C2517125   1.441   6.804  10.167 -0.1387 -0.0015 -0.1433
  154SAPE   H5R17126   1.428   6.838  10.271  2.2359 -0.8678  0.5151
  154SAPE   C2617127   1.389   6.878  10.068  0.1777 -0.1643 -0.0451
  154SAPE   H6R17128   1.334   6.970  10.092 -0.0172 -1.1555  3.9934
  154SAPE   C2717129   1.395   6.855   9.920  0.0652  1.0018  0.2415
  154SAPE   H7R17130   1.292   6.868   9.879  0.7701  0.2643 -1.8743
  154SAPE   H7S17131   1.426   6.755   9.881  1.9775  2.2325 -1.5600
  154SAPE   C2817132   1.468   6.969   9.857 -0.2132  0.8806 -0.4446
  154SAPE   H8R17133   1.431   7.071   9.876  1.5253  1.7088 -1.2463
  154SAPE   C2917134   1.566   6.950   9.770 -0.6952 -0.1204 -0.0400
  154SAPE   H9R17135   1.616   7.040   9.731 -0.2963  0.1131  0.9854
  154SAPE  C21017136   1.630   6.818   9.736 -0.2288  0.1773  0.2369
  154SAPE  H10R17137   1.616   6.734   9.807 -0.1176 -1.2495 -1.3518
  154SAPE  H10S17138   1.740   6.835   9.740 -0.5953  2.7039  2.0246
  154SAPE  C21117139   1.578   6.760   9.606  0.0759 -0.1667 -0.0395
  154SAPE  H11R17140   1.475   6.724   9.615  0.0434  0.1478  0.9428
  154SAPE  C21217141   1.645   6.752   9.490 -0.2635 -0.3196  0.4159
  154SAPE  H12R17142   1.586   6.715   9.405 -0.6543  2.7178 -0.7943
  154SAPE  C21317143   1.790   6.798   9.469  0.5221  0.4867 -0.2173
  154SAPE  H13R17144   1.835   6.740   9.385  1.6440  0.9521  0.0364
  154SAPE  H13S17145   1.851   6.766   9.557  0.1176 -1.2631 -0.5306
  154SAPE  C21417146   1.807   6.945   9.448  0.1407  0.2623  0.8737
  154SAPE  H14R17147   1.749   7.019   9.505  1.6904  1.8188  0.5213
  154SAPE  C21517148   1.904   6.992   9.365  0.0002 -0.3211 -0.0155
  154SAPE  H15R17149   1.921   7.101   9.360  1.2592 -0.5519 -2.2008
  154SAPE  C21617150   2.004   6.914   9.281  0.8984  0.7955  0.0561
  154SAPE  H16R17151   1.988   6.804   9.287  0.4988  0.8450 -0.0921
  154SAPE  H16S17152   2.111   6.919   9.311  0.1271  0.6939  3.1351
  154SAPE  C21717153   1.984   6.929   9.130  0.6049 -0.6208  0.8188
  154SAPE  H17R17154   1.874   6.933   9.116  0.4909 -0.6323  1.6592
  154SAPE  H17S17155   2.042   6.852   9.075 -0.0006 -0.1411 -0.5486
  154SAPE  C21817156   2.042   7.061   9.076 -0.0024 -0.3342 -0.1597
  154SAPE  H18R17157   2.109   7.104   9.154 -1.0579  0.4199  0.3486
  154SAPE  H18S17158   1.963   7.138   9.065  0.8877  0.5202 -0.6875
  154SAPE  C21917159   2.113   7.034   8.947 -0.0163  0.6031  0.2567
  154SAPE  H19R17160   2.043   6.991   8.873 -0.7527  1.1292  0.6324
  154SAPE  H19S17161   2.193   6.960   8.966 -0.4561  0.0773  0.0965
  154SAPE  C22017162   2.180   7.158   8.877  0.1393 -0.4805  0.0843
  154SAPE  H20R17163   2.240   7.121   8.791  0.3583 -0.1362  0.0897
  154SAPE  H20S17164   2.240   7.220   8.947 -0.2805 -1.5397  1.4163
  154SAPE  H20T17165   2.114   7.240   8.840 -0.0582 -0.3515  0.7107
  154SAPE   C3317166   0.862   6.219  10.479 -0.3625  0.1100  0.0866
  154SAPE   H3X17167   0.789   6.291  10.520 -1.2400 -0.2716 -0.7763
  154SAPE   H3Y17168   0.866   6.136  10.553 -1.1703 -1.4003 -1.4866
  154SAPE   C3417169   0.789   6.153  10.360  0.2214  0.1282 -0.8845
  154SAPE   H4X17170   0.703   6.093  10.394 -1.1495  2.2688 -0.3579
  154SAPE   H4Y17171   0.865   6.094  10.303  0.4914  0.3282 -0.7365
  154SAPE   C3517172   0.724   6.262  10.279  0.2008  0.3197 -0.3506
  154SAPE   H5X17173   0.784   6.353  10.261 -0.6358  0.9077 -0.2041
  154SAPE   H5Y17174   0.632   6.294  10.334  0.5864  3.2733 -1.2906
  154SAPE   C3617175   0.681   6.213  10.142 -0.0204  0.6279 -0.8494
  154SAPE   H6X17176   0.615   6.289  10.096 -2.6530 -0.6976  0.5555
  154SAPE   H6Y17177   0.625   6.118  10.154  0.6837  0.2961 -0.1285
  154SAPE   C3717178   0.789   6.161  10.042 -0.3758  0.4882 -0.8154
  154SAPE   H7X17179   0.727   6.140   9.953  1.9435 -0.8515 -2.2268
  154SAPE   H7Y17180   0.837   6.073  10.090  2.0475  1.1444 -1.8567
  154SAPE   C3817181   0.897   6.268  10.004  0.1486 -0.1347 -0.3911
  154SAPE   H8X17182   0.955   6.288  10.097 -1.0374 -0.4807  0.4558
  154SAPE   H8Y17183   0.853   6.364   9.971  1.3120  0.0850 -1.3794
  154SAPE   C3917184   1.001   6.208   9.918 -0.2602  0.2855  0.9576
  154SAPE   H9X17185   1.050   6.117   9.959  0.5615 -0.2588 -1.1068
  154SAPE   H9Y17186   1.080   6.282   9.893 -1.1569  0.5865 -1.2117
  154SAPE  C31017187   0.943   6.162   9.777  0.1545  0.4127 -0.4430
  154SAPE  H10X17188   0.867   6.081   9.784  1.0901 -0.7905 -3.0342
  154SAPE  H10Y17189   1.031   6.112   9.731 -0.6960 -0.1181 -1.5324
  154SAPE  C31117190   0.886   6.272   9.696  0.3323 -0.5407 -0.4187
  154SAPE  H11X17191   0.959   6.353   9.717  0.5996 -0.8398 -0.1735
  154SAPE  H11Y17192   0.791   6.311   9.737  0.6441 -1.1802  0.9940
  154SAPE  C31217193   0.881   6.255   9.539 -0.1135 -0.2468 -0.3226
  154SAPE  H12X17194   0.788   6.198   9.516  0.8155 -1.0608 -2.2721
  154SAPE  H12Y17195   0.978   6.210   9.510 -0.4567 -0.9604 -0.3740
  154SAPE  C31317196   0.870   6.386   9.463 -0.1862  0.7039 -0.6467
  154SAPE  H13X17197   0.971   6.433   9.465 -0.0039  0.4269  3.0301
  154SAPE  H13Y17198   0.810   6.462   9.518  0.6793  0.8651  0.1147
  154SAPE  C31417199   0.824   6.362   9.321  0.2397  0.2943  0.5865
  154SAPE  H14X17200   0.809   6.458   9.268  0.5635  0.1680  0.2559
  154SAPE  H14Y17201   0.724   6.315   9.322  0.3962 -0.2567 -1.9676
  154SAPE  C31517202   0.922   6.278   9.234 -0.1492 -0.6765 -0.3305
  154SAPE  H15X17203   0.925   6.179   9.285  2.3604 -0.3090  0.3423
  154SAPE  H15Y17204   1.023   6.324   9.239 -0.2697 -0.4834  0.5232
  154SAPE  C31617205   0.894   6.274   9.086  0.3043  0.5048  0.1007
  154SAPE  H16X17206   0.957   6.198   9.035  0.2430  1.0505 -0.8133
  154SAPE  H16Y17207   0.919   6.372   9.042 -0.1259  1.8550  2.6931
  154SAPE  C31717208   0.747   6.257   9.041 -0.4576 -0.8834  0.8157
  154SAPE  H17X17209   0.696   6.352   9.069 -0.9359 -1.1464  0.8462
  154SAPE  H17Y17210   0.691   6.178   9.093 -0.3429 -0.8355  1.0153
  154SAPE  C31817211   0.741   6.231   8.889 -0.7387  0.2166 -0.8316
  154SAPE  H18X17212   0.635   6.206   8.865 -0.6567 -0.0067 -0.9514
  154SAPE  H18Y17213   0.798   6.137   8.878 -0.4942  0.1892  0.4998
  154SAPE  H18Z17214   0.792   6.305   8.823  0.3166  0.2537  0.0150
  155SAPE     N17215   6.746   0.083  10.658  0.0824 -0.3665  0.1929
  155SAPE   HN117216   6.717   0.043  10.750 -0.8187  0.9228  0.4815
  155SAPE   HN217217   6.681   0.161  10.639  1.5004  0.6116 -0.8475
  155SAPE   HN317218   6.745   0.014  10.580  1.6878  2.1912 -2.2850
  155SAPE   C1217219   6.892   0.124  10.652  0.3342  0.5558 -0.4265
  155SAPE  H12A17220   6.899   0.211  10.721 -1.6590  0.2555  0.2018
  155SAPE  H12B17221   6.921   0.152  10.548 -2.1072 -0.4158 -1.4285
  155SAPE   C1117222   6.979   0.009  10.699 -0.3346  0.0506 -0.2755
  155SAPE  H11A17223   7.074   0.059  10.729 -0.2368 -0.8987  1.0800
  155SAPE  H11B17224   6.993  -0.058  10.612  1.9665 -0.7934  0.6613
  155SAPE     P17225   6.982  -0.167  10.897 -0.1250  0.1264  0.3796
  155SAPE   O1317226   7.114  -0.116  10.945  0.2195  0.3666  0.0506
  155SAPE   O1417227   6.884  -0.209  11.003 -0.7964  0.5376  0.7711
  155SAPE   O1217228   6.915  -0.062  10.802 -0.3015  0.0539 -0.6168
  155SAPE   O1117229   7.010  -0.295  10.807  0.0796 -0.6086 -0.0289
  155SAPE    C117230   7.142  -0.351  10.774  0.2179 -0.3163  0.0024
  155SAPE    HA17231   7.220  -0.273  10.786 -1.4558  1.5979 -0.9892
  155SAPE    HB17232   7.158  -0.442  10.836  1.1491 -1.8477 -2.3426
  155SAPE    C217233   7.151  -0.382  10.624 -0.3346 -0.3409  0.6574
  155SAPE    HS17234   7.246  -0.437  10.609 -0.3682 -0.0328 -0.8355
  155SAPE   O2117235   7.164  -0.254  10.554 -0.2018  0.8603  0.2611
  155SAPE   C2117236   7.275  -0.189  10.553  0.0141 -0.4386 -0.6343
  155SAPE   O2217237   7.376  -0.213  10.625  0.0968  0.1636  0.9471
  155SAPE   C2217238   7.271  -0.075  10.448 -0.3477  0.8358 -0.6477
  155SAPE   H2R17239   7.210  -0.105  10.360 -0.1172 -0.9153 -0.2581
  155SAPE   H2S17240   7.207   0.009  10.484  0.7560  0.6564  1.9534
  155SAPE    C317241   7.032  -0.456  10.568  0.0233  0.3052 -0.5696
  155SAPE    HX17242   6.944  -0.399  10.602  0.5177 -0.2440  1.8513
  155SAPE    HY17243   7.024  -0.559  10.609  1.5100  0.1030 -0.7192
  155SAPE   O3117244   7.050  -0.469  10.426  0.5258  0.4391  0.3713
  155SAPE   C3117245   7.013  -0.381  10.341 -0.0589  0.0716 -0.9163
  155SAPE   O3217246   6.946  -0.278  10.362 -0.1006  0.1841 -0.3145
  155SAPE   C3217247   7.080  -0.414  10.208 -0.3838  0.8284 -0.4380
  155SAPE   H2X17248   7.083  -0.525  10.200  0.6807  0.7864  0.4198
  155SAPE   H2Y17249   7.183  -0.379  10.227  0.6556 -1.3610 -1.6692
  155SAPE   C2317250   7.405  -0.015  10.412 -0.5703  0.5810 -0.6147
  155SAPE   H3R17251   7.450   0.015  10.509 -1.3088 -1.3074  0.3704
  155SAPE   H3S17252   7.397   0.073  10.345  1.4947 -0.1099 -1.8887
  155SAPE   C2417253   7.513  -0.118  10.365 -0.5608  0.6254  0.5276
  155SAPE   H4R17254   7.484  -0.155  10.264  2.4147 -0.5873  0.0125
  155SAPE   H4S17255   7.517  -0.218  10.414 -0.4266  0.0236 -0.6689
  155SAPE   C2517256   7.653  -0.073  10.357  0.5387 -0.1429 -0.6082
  155SAPE   H5R17257   7.689  -0.026  10.451 -1.1119 -1.6018  0.8203
  155SAPE   C2617258   7.734  -0.076  10.254  0.0853  0.3650 -1.0782
  155SAPE   H6R17259   7.831  -0.025  10.259 -0.5294  1.4580  0.8839
  155SAPE   C2717260   7.700  -0.119  10.120 -0.2030 -0.4802 -0.2799
  155SAPE   H7R17261   7.641  -0.035  10.076  2.0007  1.5315  0.3713
  155SAPE   H7S17262   7.636  -0.209  10.118 -0.4576 -0.3458  0.8251
  155SAPE   C2817263   7.824  -0.139  10.031 -0.0728  0.0644 -0.7672
  155SAPE   H8R17264   7.910  -0.182  10.085 -0.4714  0.0956 -0.1006
  155SAPE   C2917265   7.843  -0.114   9.901 -0.2119 -0.2336  0.1849
  155SAPE   H9R17266   7.940  -0.121   9.849 -0.7240 -0.5616 -0.7280
  155SAPE  C21017267   7.749  -0.059   9.797 -0.4776 -0.3503 -0.4335
  155SAPE  H10R17268   7.652  -0.047   9.849  1.3694  0.4811  3.1771
  155SAPE  H10S17269   7.731  -0.131   9.714 -0.7948  0.8087 -1.3908
  155SAPE  C21117270   7.788   0.076   9.745 -0.8757 -0.1157  0.2611
  155SAPE  H11R17271   7.782   0.166   9.808  3.3970  2.0866 -1.9925
  155SAPE  C21217272   7.832   0.105   9.626  0.4772 -0.0680 -1.1716
  155SAPE  H12R17273   7.862   0.210   9.610 -0.3395  0.3963  0.2543
  155SAPE  C21317274   7.847   0.010   9.511 -0.1891 -0.2598 -0.1468
  155SAPE  H13R17275   7.763  -0.062   9.500  0.2416 -1.1256  1.7172
  155SAPE  H13S17276   7.934  -0.053   9.540  0.8090  0.0053 -2.3397
  155SAPE  C21417277   7.863   0.089   9.381  0.8821  0.5415  0.5764
  155SAPE  H14R17278   7.870   0.198   9.394  1.9436  0.5660 -0.0677
  155SAPE  C21517279   7.879   0.033   9.257  0.7455  0.0078  0.0766
  155SAPE  H15R17280   7.886   0.093   9.166  0.6750 -0.9091 -0.5519
  155SAPE  C21617281   7.880  -0.114   9.228 -0.0333 -0.2535  0.1436
  155SAPE  H16R17282   7.787  -0.160   9.266  1.9031 -1.5284  3.9757
  155SAPE  H16S17283   7.968  -0.158   9.280  0.9216 -0.1063 -1.2801
  155SAPE  C21717284   7.918  -0.136   9.082 -0.2139  0.3815  0.3441
  155SAPE  H17R17285   7.936  -0.246   9.086 -2.1561  0.0054 -0.0148
  155SAPE  H17S17286   8.014  -0.088   9.053 -0.2182  2.3217  3.1992
  155SAPE  C21817287   7.817  -0.105   8.975  0.4988 -0.5196 -0.3679
  155SAPE  H18R17288   7.805   0.005   8.975 -1.2625 -0.6687  0.5687
  155SAPE  H18S17289   7.716  -0.145   8.999 -0.8785  1.1462 -2.9799
  155SAPE  C21917290   7.854  -0.151   8.835  0.2056 -0.3161  0.0274
  155SAPE  H19R17291   7.853  -0.262   8.829 -0.4676 -0.3082 -0.1210
  155SAPE  H19S17292   7.957  -0.118   8.810 -0.2094  2.2068  1.3296
  155SAPE  C22017293   7.765  -0.086   8.727  0.1570  0.3160  0.0356
  155SAPE  H20R17294   7.661  -0.077   8.763 -0.1808 -0.1094 -0.8077
  155SAPE  H20S17295   7.779  -0.147   8.635 -0.1453  1.4536 -0.7879
  155SAPE  H20T17296   7.795   0.018   8.703  2.2840 -0.4549 -0.9155
  155SAPE   C3317297   7.018  -0.351  10.081  0.1120 -0.2309 -0.3006
  155SAPE   H3X17298   7.015  -0.242  10.102  4.0107  0.0758 -0.5608
  155SAPE   H3Y17299   6.918  -0.397  10.077  0.8568 -1.8238 -1.5986
  155SAPE   C3417300   7.104  -0.383   9.957 -0.3869 -0.6229  0.0909
  155SAPE   H4X17301   7.126  -0.492   9.957  0.4904 -0.4830  2.3411
  155SAPE   H4Y17302   7.202  -0.330   9.960 -0.2191 -0.9349  0.1410
  155SAPE   C3517303   7.039  -0.340   9.824  0.8365  0.1773  0.1602
  155SAPE   H5X17304   7.044  -0.231   9.806  0.3521 -0.0880 -1.8885
  155SAPE   H5Y17305   6.932  -0.369   9.820  0.4178  1.7564 -1.1244
  155SAPE   C3617306   7.094  -0.415   9.697  0.1718  0.3498  0.1399
  155SAPE   H6X17307   7.073  -0.524   9.709 -0.8287  0.5529  0.3332
  155SAPE   H6Y17308   7.203  -0.401   9.690  0.1832 -0.3461 -1.4682
  155SAPE   C3717309   7.035  -0.351   9.566  0.0438  0.9078 -1.0252
  155SAPE   H7X17310   7.072  -0.247   9.581  1.3991  0.3015  0.1394
  155SAPE   H7Y17311   6.925  -0.366   9.565  0.0232  1.0061 -0.5447
  155SAPE   C3817312   7.104  -0.395   9.435  0.4834 -0.3237 -0.5121
  155SAPE   H8X17313   7.112  -0.504   9.417  2.8222 -0.0604 -1.4181
  155SAPE   H8Y17314   7.211  -0.367   9.448  0.0304  1.3538 -0.0850
  155SAPE   C3917315   7.039  -0.319   9.321  0.4456  0.7101 -0.1043
  155SAPE   H9X17316   7.019  -0.216   9.356  1.4751  0.3524  1.6491
  155SAPE   H9Y17317   6.936  -0.358   9.302 -0.0433  1.4170  1.0406
  155SAPE  C31017318   7.113  -0.323   9.191  0.3755  0.5307  0.9425
  155SAPE  H10X17319   7.081  -0.408   9.127 -2.1911  2.3690 -0.4373
  155SAPE  H10Y17320   7.221  -0.334   9.211  0.6329  0.8241 -0.1767
  155SAPE  C31117321   7.107  -0.194   9.110  0.1749 -0.4890 -0.4391
  155SAPE  H11X17322   7.141  -0.101   9.159  0.7775  0.1545 -2.0149
  155SAPE  H11Y17323   6.999  -0.172   9.097 -0.4376 -1.2382  2.6329
  155SAPE  C31217324   7.189  -0.196   8.980 -0.5291 -0.1705  0.2500
  155SAPE  H12X17325   7.297  -0.217   8.998 -0.0984 -0.7342 -2.5329
  155SAPE  H12Y17326   7.168  -0.096   8.938 -0.6290 -1.0757 -1.9585
  155SAPE  C31317327   7.143  -0.312   8.891 -0.5318  0.6079  0.4325
  155SAPE  H13X17328   7.034  -0.324   8.908 -0.4170 -3.3201 -0.5976
  155SAPE  H13Y17329   7.192  -0.409   8.918 -0.9908  0.2518  0.0128
  155SAPE  C31417330   7.166  -0.268   8.746 -0.1243  0.0750  0.1371
  155SAPE  H14X17331   7.274  -0.243   8.736  0.0526 -0.9582 -0.6949
  155SAPE  H14Y17332   7.117  -0.172   8.719  1.5236  0.7781 -0.4942
  155SAPE  C31517333   7.140  -0.368   8.630  0.7550  0.8246  0.3760
  155SAPE  H15X17334   7.030  -0.375   8.613  1.1606  0.4670 -2.5308
  155SAPE  H15Y17335   7.170  -0.471   8.659 -0.8126  0.5886  1.3254
  155SAPE  C31617336   7.220  -0.330   8.502 -0.6731  0.3798 -0.0083
  155SAPE  H16X17337   7.217  -0.219   8.499  1.6317  0.4840 -2.7703
  155SAPE  H16Y17338   7.172  -0.364   8.407  0.7425  0.5553 -0.8032
  155SAPE  C31717339   7.362  -0.371   8.502  0.4430 -0.2664 -0.1948
  155SAPE  H17X17340   7.427  -0.352   8.591  0.3233  0.7957 -0.3229
  155SAPE  H17Y17341   7.417  -0.324   8.418  1.2794 -0.7192  0.0760
  155SAPE  C31817342   7.382  -0.523   8.484 -0.2822 -0.0459 -0.1621
  155SAPE  H18X17343   7.376  -0.543   8.375 -3.4019  4.2125 -1.0319
  155SAPE  H18Y17344   7.299  -0.588   8.521  0.4894 -0.8132  0.2469
  155SAPE  H18Z17345   7.470  -0.563   8.538 -0.7373 -2.3329 -0.9844
  156SAPE     N17346   4.059   5.259  11.178 -0.3940 -0.2221  0.6144
  156SAPE   HN117347   4.075   5.157  11.170  0.8088 -0.0093  0.1286
  156SAPE   HN217348   4.132   5.301  11.240  2.2237 -1.4583 -1.4454
  156SAPE   HN317349   3.961   5.265  11.214 -1.0668  0.1275 -1.1680
  156SAPE   C1217350   4.063   5.317  11.037 -0.6372 -0.0006  1.0173
  156SAPE  H12A17351   3.972   5.274  10.989 -0.5969 -0.9551  1.7793
  156SAPE  H12B17352   4.150   5.275  10.982 -1.7370  0.0694 -0.8842
  156SAPE   C1117353   4.050   5.469  11.023 -0.4115  0.3542 -0.1214
  156SAPE  H11A17354   3.952   5.499  11.065 -0.1570 -0.5430  1.1871
  156SAPE  H11B17355   4.068   5.496  10.917  1.7094  2.4780  0.6709
  156SAPE     P17356   4.295   5.531  11.109 -0.1692 -0.4918 -0.0663
  156SAPE   O1317357   4.351   5.644  11.192 -0.2436 -0.1128 -0.9805
  156SAPE   O1417358   4.341   5.394  11.146 -0.0699 -0.3973 -0.0418
  156SAPE   O1217359   4.143   5.531  11.111 -0.1433 -0.4836  0.4113
  156SAPE   O1117360   4.321   5.541  10.958 -0.6713 -0.3559  0.3115
  156SAPE    C117361   4.442   5.502  10.895 -0.0153 -0.2832 -0.5077
  156SAPE    HA17362   4.530   5.551  10.943  0.8541 -1.4045 -0.9279
  156SAPE    HB17363   4.453   5.395  10.923 -2.3834 -0.0382  1.7544
  156SAPE    C217364   4.445   5.529  10.747 -0.1041 -0.0548  0.1277
  156SAPE    HS17365   4.536   5.486  10.700 -1.6011 -1.2873 -1.7526
  156SAPE   O2117366   4.433   5.669  10.722  0.2687 -0.2945 -0.0309
  156SAPE   C2117367   4.534   5.753  10.749 -0.4046  0.6941 -0.1561
  156SAPE   O2217368   4.649   5.712  10.775  0.8066 -0.2995 -0.2745
  156SAPE   C2217369   4.494   5.901  10.751 -0.5065 -0.1429  0.1517
  156SAPE   H2R17370   4.394   5.923  10.707 -0.8224  0.5940  1.1865
  156SAPE   H2S17371   4.486   5.931  10.858 -1.9922  0.9106 -0.2060
  156SAPE    C317372   4.318   5.468  10.680  0.6785 -0.5792  0.0125
  156SAPE    HX17373   4.248   5.553  10.694  2.7396  1.0603  0.9309
  156SAPE    HY17374   4.294   5.376  10.737  1.4553  0.2819  1.7863
  156SAPE   O3117375   4.343   5.450  10.538  0.6697 -0.2331 -0.1564
  156SAPE   C3117376   4.423   5.346  10.511 -0.2649  0.6909  0.5646
  156SAPE   O3217377   4.483   5.285  10.593 -0.0798  0.1626 -0.0243
  156SAPE   C3217378   4.437   5.324  10.361 -1.2001 -0.1384 -0.0158
  156SAPE   H2X17379   4.422   5.419  10.304  0.6726 -0.0122 -0.3698
  156SAPE   H2Y17380   4.358   5.251  10.333 -2.2384  1.1791 -0.6627
  156SAPE   C2317381   4.608   5.978  10.690 -0.2661  0.2511 -0.0813
  156SAPE   H3R17382   4.698   5.960  10.753 -0.0063 -0.0991 -0.5434
  156SAPE   H3S17383   4.574   6.083  10.705 -3.5879 -0.6778 -0.3210
  156SAPE   C2417384   4.654   5.944  10.542  0.5952  1.2515 -0.5791
  156SAPE   H4R17385   4.688   5.838  10.548 -0.6476  0.8800  0.2617
  156SAPE   H4S17386   4.744   6.006  10.523  0.5628  1.6769  0.5765
  156SAPE   C2517387   4.530   5.966  10.462  0.0343  0.4265 -0.9660
  156SAPE   H5R17388   4.485   6.057  10.503  0.2492  0.4739 -0.8344
  156SAPE   C2617389   4.459   5.885  10.379  0.2088 -0.0772  0.1860
  156SAPE   H6R17390   4.371   5.935  10.336  0.4362  2.9575  2.8594
  156SAPE   C2717391   4.489   5.749  10.322 -0.6776 -0.2897  0.0736
  156SAPE   H7R17392   4.409   5.673  10.333  0.1723 -1.1621  0.3629
  156SAPE   H7S17393   4.585   5.717  10.367 -0.3996 -0.6907 -0.7791
  156SAPE   C2817394   4.523   5.757  10.173 -0.6076 -1.3109 -0.2789
  156SAPE   H8R17395   4.614   5.814  10.150 -1.0053  0.2142  1.6249
  156SAPE   C2917396   4.461   5.697  10.071  0.5086  0.8404  0.2103
  156SAPE   H9R17397   4.502   5.716   9.971  2.7636 -0.3772  0.8232
  156SAPE  C21017398   4.343   5.605  10.086  0.2202 -0.0573 -0.1115
  156SAPE  H10R17399   4.253   5.653  10.041  0.4282 -1.6990 -2.4478
  156SAPE  H10S17400   4.325   5.574  10.191  1.5075 -0.3286  0.0374
  156SAPE  C21117401   4.373   5.481  10.011  0.1508 -0.0495  0.4920
  156SAPE  H11R17402   4.478   5.451  10.016  0.7655  1.6516 -1.0552
  156SAPE  C21217403   4.288   5.406   9.950 -1.0138  0.5342  0.4225
  156SAPE  H12R17404   4.336   5.325   9.892  1.9936  1.3844  1.5420
  156SAPE  C21317405   4.137   5.396   9.948 -0.3163 -0.1505 -0.0380
  156SAPE  H13R17406   4.105   5.447   9.854 -0.5860 -1.3311 -0.6051
  156SAPE  H13S17407   4.100   5.450  10.038  1.8784 -1.0085  1.4637
  156SAPE  C21417408   4.086   5.253   9.952  0.4399  0.6449  0.2885
  156SAPE  H14R17409   4.082   5.205  10.051 -0.4124  0.3208  0.1065
  156SAPE  C21517410   4.058   5.171   9.847 -0.2871 -0.3487  0.1690
  156SAPE  H15R17411   4.020   5.069   9.864 -1.8300  0.1203 -0.2694
  156SAPE  C21617412   4.047   5.220   9.707  0.0031  0.4784  0.0437
  156SAPE  H16R17413   4.089   5.320   9.684 -0.8956  0.7052 -0.6582
  156SAPE  H16S17414   3.940   5.218   9.677  0.7353 -0.5225 -2.7426
  156SAPE  C21717415   4.117   5.121   9.607 -0.5716 -0.0001 -0.1645
  156SAPE  H17R17416   4.098   5.014   9.631  2.7715 -0.8326 -0.6204
  156SAPE  H17S17417   4.227   5.133   9.622 -0.5974  0.3425 -0.2528
  156SAPE  C21817418   4.067   5.131   9.461 -0.0024 -0.4496 -0.1519
  156SAPE  H18R17419   4.087   5.234   9.427  2.2968 -0.6120  0.5411
  156SAPE  H18S17420   3.960   5.103   9.452 -0.3912  1.1417 -0.7096
  156SAPE  C21917421   4.144   5.036   9.374  0.0828  0.7364  0.4860
  156SAPE  H19R17422   4.120   4.930   9.393  0.9700  0.7850  2.0359
  156SAPE  H19S17423   4.254   5.039   9.387  0.5098 -5.1682  0.5258
  156SAPE  C22017424   4.120   5.066   9.231 -0.0843 -0.3013 -0.5916
  156SAPE  H20R17425   4.013   5.041   9.211  0.3311 -2.4706 -0.3063
  156SAPE  H20S17426   4.169   4.993   9.163 -1.1472 -0.6182 -1.0432
  156SAPE  H20T17427   4.142   5.173   9.209  1.7871 -0.7076 -0.8630
  156SAPE   C3317428   4.581   5.272  10.329  0.2927 -0.3538 -0.7738
  156SAPE   H3X17429   4.608   5.183  10.389 -2.0219 -0.3364  0.4021
  156SAPE   H3Y17430   4.642   5.355  10.369 -1.1064 -0.6648  2.2309
  156SAPE   C3417431   4.606   5.253  10.181 -0.1500  0.0820  0.1223
  156SAPE   H4X17432   4.570   5.348  10.135 -0.3141  1.2048  2.3963
  156SAPE   H4Y17433   4.547   5.169  10.140 -0.7936  2.1658 -3.6170
  156SAPE   C3517434   4.746   5.221  10.146 -0.4639 -0.9029  0.4326
  156SAPE   H5X17435   4.772   5.125  10.196  1.1591 -0.4783  0.4775
  156SAPE   H5Y17436   4.807   5.306  10.183 -1.2416 -0.1980  0.1180
  156SAPE   C3617437   4.764   5.203   9.993 -0.2269 -0.1925 -0.9509
  156SAPE   H6X17438   4.692   5.124   9.963 -2.1732  0.0272  2.5984
  156SAPE   H6Y17439   4.864   5.168   9.960  0.1528  2.2173 -2.5744
  156SAPE   C3717440   4.744   5.330   9.910 -0.4300 -0.7670  0.1568
  156SAPE   H7X17441   4.817   5.407   9.945  0.6315 -1.1261 -1.2017
  156SAPE   H7Y17442   4.647   5.376   9.938  0.1409  0.9882 -0.6173
  156SAPE   C3817443   4.764   5.309   9.757  0.2017 -0.0180 -0.1232
  156SAPE   H8X17444   4.683   5.240   9.723  0.0182  0.7086 -1.2210
  156SAPE   H8Y17445   4.860   5.256   9.743 -0.5130 -1.5549  0.5603
  156SAPE   C3917446   4.745   5.444   9.678  0.3689 -0.1580  0.3857
  156SAPE   H9X17447   4.829   5.517   9.684  0.6837 -0.3903 -0.8992
  156SAPE   H9Y17448   4.652   5.495   9.713 -0.7685 -1.9952  0.1925
  156SAPE  C31017449   4.737   5.411   9.527 -0.4163 -0.4088 -0.0826
  156SAPE  H10X17450   4.636   5.369   9.506  0.9244 -4.2448  0.5115
  156SAPE  H10Y17451   4.818   5.338   9.510  1.0828  1.3003 -0.6270
  156SAPE  C31117452   4.764   5.527   9.432  0.2797 -0.1866  0.9114
  156SAPE  H11X17453   4.864   5.574   9.447 -0.6113  1.4853  2.0448
  156SAPE  H11Y17454   4.684   5.605   9.435 -0.2771 -0.6871 -0.4346
  156SAPE  C31217455   4.760   5.480   9.285 -0.4844  0.2163  0.8577
  156SAPE  H12X17456   4.663   5.433   9.261 -0.9537  1.8231 -0.6207
  156SAPE  H12Y17457   4.845   5.410   9.269 -0.6641 -0.3456  2.2244
  156SAPE  C31317458   4.780   5.593   9.178  0.4658 -0.1703  1.0239
  156SAPE  H13X17459   4.862   5.655   9.221 -1.1817  1.9495  1.2694
  156SAPE  H13Y17460   4.685   5.647   9.159  0.3920 -0.3742  0.8163
  156SAPE  C31417461   4.842   5.541   9.041  0.2567 -0.1933 -0.3513
  156SAPE  H14X17462   4.915   5.460   9.061 -0.3611 -0.2655  1.9323
  156SAPE  H14Y17463   4.895   5.624   8.990  0.0638  0.5606  0.6212
  156SAPE  C31517464   4.731   5.485   8.946  0.6103 -0.6659  0.0794
  156SAPE  H15X17465   4.656   5.436   9.011  0.1821 -0.5737 -0.3318
  156SAPE  H15Y17466   4.774   5.418   8.868  0.0031  1.2450 -2.0076
  156SAPE  C31617467   4.655   5.590   8.858  0.2041 -0.2871  0.1764
  156SAPE  H16X17468   4.588   5.648   8.926 -0.5139 -1.0890  0.1668
  156SAPE  H16Y17469   4.579   5.548   8.789 -0.7874  3.6020 -1.3659
  156SAPE  C31717470   4.749   5.682   8.775  0.1797 -0.4322  0.5245
  156SAPE  H17X17471   4.831   5.728   8.835 -1.3801  1.6275  1.2013
  156SAPE  H17Y17472   4.686   5.766   8.741  0.8225  0.4158  1.3673
  156SAPE  C31817473   4.810   5.617   8.645  0.1366  0.1603  0.2343
  156SAPE  H18X17474   4.855   5.708   8.600 -0.3311 -0.6017 -1.9293
  156SAPE  H18Y17475   4.741   5.563   8.577  0.1703  0.1716  0.1904
  156SAPE  H18Z17476   4.888   5.546   8.680 -0.9924  0.0182  2.6347
  157SAPE     N17477   5.925   6.546  10.817  0.0956  0.2491 -0.5663
  157SAPE   HN117478   5.883   6.501  10.901  0.7594  3.7048  1.8242
  157SAPE   HN217479   6.023   6.561  10.847 -0.3860 -0.3026  1.4410
  157SAPE   HN317480   5.887   6.640  10.795 -0.9189 -0.4738 -2.0944
  157SAPE   C1217481   5.926   6.463  10.690  0.3320  0.3397  0.2924
  157SAPE  H12A17482   5.994   6.379  10.719 -0.3394 -0.8567 -1.4303
  157SAPE  H12B17483   5.980   6.517  10.609  1.0186  0.3379  0.7324
  157SAPE   C1117484   5.791   6.403  10.640  0.0302  0.0578 -0.0281
  157SAPE  H11A17485   5.757   6.344  10.727  0.6254 -0.0077  0.1649
  157SAPE  H11B17486   5.822   6.330  10.563  0.9155  0.3165  0.0769
  157SAPE     P17487   5.552   6.502  10.608 -0.4011  0.4742 -0.5534
  157SAPE   O1317488   5.519   6.485  10.747  0.7680 -0.9300 -0.5140
  157SAPE   O1417489   5.505   6.630  10.545 -0.0098 -0.0528  0.8985
  157SAPE   O1217490   5.706   6.503  10.598 -0.6965 -0.0274 -0.1064
  157SAPE   O1117491   5.505   6.389  10.524 -0.2906 -0.0006  0.0754
  157SAPE    C117492   5.566   6.332  10.405  0.4395  0.2480 -0.3306
  157SAPE    HA17493   5.677   6.335  10.410  0.3783  2.7088  1.9118
  157SAPE    HB17494   5.532   6.227  10.395 -0.7112  0.4391  1.1771
  157SAPE    C217495   5.528   6.408  10.276  0.3197 -0.0392 -0.4768
  157SAPE    HS17496   5.556   6.512  10.304  0.2700  0.3878 -1.9203
  157SAPE   O2117497   5.391   6.376  10.261 -0.7227 -0.0447  0.0772
  157SAPE   C2117498   5.326   6.473  10.208  0.5383 -0.3140 -0.8455
  157SAPE   O2217499   5.375   6.581  10.183 -0.5312  0.2481  0.3110
  157SAPE   C2217500   5.185   6.428  10.188 -0.0541 -0.3117  0.5896
  157SAPE   H2R17501   5.186   6.318  10.172  0.0515 -0.2058 -0.2002
  157SAPE   H2S17502   5.132   6.463  10.279 -0.4708  0.5728  0.0201
  157SAPE    C317503   5.619   6.367  10.164 -0.4526 -0.1187  0.8117
  157SAPE    HX17504   5.608   6.261  10.132 -0.5804  0.6624 -2.0284
  157SAPE    HY17505   5.726   6.376  10.191 -0.6772  1.1952  1.3017
  157SAPE   O3117506   5.599   6.445  10.044  0.4011  0.0279 -0.2105
  157SAPE   C3117507   5.650   6.571  10.034 -0.1851 -0.2706  0.4913
  157SAPE   O3217508   5.725   6.615  10.117  0.3618 -0.0214  0.0368
  157SAPE   C3217509   5.602   6.647   9.900 -0.5040  0.2347 -0.1868
  157SAPE   H2X17510   5.687   6.649   9.828  1.1878  1.9628  1.7262
  157SAPE   H2Y17511   5.586   6.753   9.930  0.0096  0.2321  0.0909
  157SAPE   C2317512   5.114   6.497  10.073 -0.3838 -0.4922  0.0088
  157SAPE   H3R17513   5.144   6.454   9.975 -1.6618  1.3885 -1.2858
  157SAPE   H3S17514   5.138   6.604  10.056 -1.4201 -0.5751 -2.3933
  157SAPE   C2417515   4.963   6.490  10.083  0.0163  0.0073 -0.3854
  157SAPE   H4R17516   4.921   6.540   9.993  0.9258 -1.5696 -1.7364
  157SAPE   H4S17517   4.936   6.550  10.174  1.8692 -0.8108  0.7575
  157SAPE   C2517518   4.904   6.354  10.087  0.1048  0.2627 -0.6717
  157SAPE   H5R17519   4.920   6.305  10.185  0.4115  0.4402 -0.6331
  157SAPE   C2617520   4.851   6.284   9.989 -0.2290  0.3425  0.0142
  157SAPE   H6R17521   4.808   6.185  10.008 -1.7540  0.3899 -2.6414
  157SAPE   C2717522   4.835   6.335   9.846 -0.2809 -0.2211 -0.5041
  157SAPE   H7R17523   4.815   6.444   9.845  0.4994 -0.0572 -2.2902
  157SAPE   H7S17524   4.750   6.279   9.800  0.3187 -0.5865 -1.2085
  157SAPE   C2817525   4.965   6.323   9.762  0.5640 -0.5848 -0.4905
  157SAPE   H8R17526   5.053   6.336   9.827  0.7243  0.2563 -0.8736
  157SAPE   C2917527   4.989   6.325   9.630  0.5536 -0.0436  0.5409
  157SAPE   H9R17528   5.093   6.312   9.596  0.3663  1.4902 -0.7232
  157SAPE  C21017529   4.889   6.326   9.535  0.5950 -0.9673  0.4717
  157SAPE  H10R17530   4.797   6.291   9.587  0.1270  0.0789  0.3583
  157SAPE  H10S17531   4.905   6.246   9.459 -2.2376 -1.3042  0.0914
  157SAPE  C21117532   4.873   6.458   9.463  0.4900  0.3178  0.6250
  157SAPE  H11R17533   4.785   6.517   9.495 -0.0854  1.1429 -2.1947
  157SAPE  C21217534   4.941   6.499   9.351 -0.1320 -0.4635 -0.3638
  157SAPE  H12R17535   4.930   6.603   9.317 -0.3239 -0.8925 -1.6720
  157SAPE  C21317536   5.050   6.418   9.293  1.2420 -0.4515  0.2621
  157SAPE  H13R17537   5.047   6.309   9.315  0.3933 -0.5007 -0.0812
  157SAPE  H13S17538   5.141   6.465   9.336  0.0955  2.5223 -0.2770
  157SAPE  C21417539   5.064   6.423   9.146 -0.2254  0.2572 -0.3542
  157SAPE  H14R17540   4.992   6.359   9.091 -0.3630 -2.1857  2.4347
  157SAPE  C21517541   5.149   6.507   9.077 -0.2892 -0.7997 -0.8549
  157SAPE  H15R17542   5.141   6.508   8.968 -2.8960 -2.1031 -0.7532
  157SAPE  C21617543   5.249   6.603   9.136 -0.2478  0.2381  0.0634
  157SAPE  H16R17544   5.352   6.588   9.098 -0.0321 -2.4993  1.4454
  157SAPE  H16S17545   5.255   6.581   9.244 -0.0836 -1.7582 -0.3159
  157SAPE  C21717546   5.204   6.745   9.106  0.5212  0.5826  0.3596
  157SAPE  H17R17547   5.282   6.810   9.151  0.0615  2.4179 -1.3351
  157SAPE  H17S17548   5.106   6.769   9.152  0.1646  0.2836 -0.2397
  157SAPE  C21817549   5.198   6.779   8.961 -0.0681 -0.1314  0.2770
  157SAPE  H18R17550   5.130   6.711   8.905  2.1021 -1.5156 -0.7862
  157SAPE  H18S17551   5.295   6.777   8.908  0.0556 -0.8371  0.5216
  157SAPE  C21917552   5.151   6.923   8.942 -0.3072 -0.6123 -0.4389
  157SAPE  H19R17553   5.204   6.994   9.009 -3.7094 -0.7949  2.7108
  157SAPE  H19S17554   5.045   6.934   8.973 -0.2259  0.2242 -0.4211
  157SAPE  C22017555   5.143   6.962   8.798 -0.8867 -0.1360 -0.0719
  157SAPE  H20R17556   5.057   6.904   8.759 -0.5786  0.5529 -1.8659
  157SAPE  H20S17557   5.228   6.930   8.733 -0.9255 -1.1871  0.3634
  157SAPE  H20T17558   5.116   7.069   8.791  0.7682  0.5834  2.7955
  157SAPE   C3317559   5.482   6.586   9.821  0.0553 -0.2032  0.3802
  157SAPE   H3X17560   5.395   6.561   9.885  2.4935  0.6876  4.3457
  157SAPE   H3Y17561   5.507   6.489   9.773 -1.5924 -1.1629  1.3519
  157SAPE   C3417562   5.429   6.690   9.727 -0.3063 -0.2906  0.4154
  157SAPE   H4X17563   5.402   6.780   9.786 -0.4303  1.2333 -1.8321
  157SAPE   H4Y17564   5.337   6.665   9.670 -1.6573  0.3129  2.2594
  157SAPE   C3517565   5.531   6.744   9.623 -0.4687 -0.8141 -0.3182
  157SAPE   H5X17566   5.575   6.654   9.575  0.9165 -1.5675  2.1868
  157SAPE   H5Y17567   5.602   6.822   9.658 -0.8007 -0.1998 -0.9937
  157SAPE   C3617568   5.462   6.824   9.513 -0.8141 -0.8565  0.3205
  157SAPE   H6X17569   5.383   6.752   9.480 -0.0681 -1.3353 -0.4676
  157SAPE   H6Y17570   5.526   6.858   9.429  0.4882  1.1841  2.0419
  157SAPE   C3717571   5.379   6.940   9.562 -0.0909 -0.1663 -0.1334
  157SAPE   H7X17572   5.421   7.015   9.632 -3.0248  0.9162  0.6060
  157SAPE   H7Y17573   5.296   6.903   9.626  0.6990 -0.7224  0.5996
  157SAPE   C3817574   5.313   7.019   9.450  0.3292 -0.6444 -0.3246
  157SAPE   H8X17575   5.225   7.075   9.490 -0.2387 -1.2325 -0.7480
  157SAPE   H8Y17576   5.267   6.955   9.372  0.9362 -1.4061 -0.0675
  157SAPE   C3917577   5.406   7.135   9.386 -0.5479  0.1040 -0.3907
  157SAPE   H9X17578   5.504   7.100   9.346  0.8516  0.2330  2.6540
  157SAPE   H9Y17579   5.424   7.212   9.463 -0.9562 -0.4845  0.3170
  157SAPE  C31017580   5.324   7.211   9.280 -0.4391 -0.5357  0.1852
  157SAPE  H10X17581   5.223   7.246   9.311  0.1681  2.8020 -1.1686
  157SAPE  H10Y17582   5.306   7.141   9.195 -0.7605 -0.6860  0.3742
  157SAPE  C31117583   5.394   7.339   9.224 -0.2260  0.3150  0.7232
  157SAPE  H11X17584   5.500   7.327   9.195 -1.2651 -0.5000 -3.3407
  157SAPE  H11Y17585   5.392   7.412   9.308 -0.5312 -0.8072  1.7320
  157SAPE  C31217586   5.331   7.394   9.095  1.0599 -0.7188  0.2426
  157SAPE  H12X17587   5.233   7.443   9.113  1.4783  0.0478  0.4601
  157SAPE  H12Y17588   5.306   7.307   9.030  1.6917 -1.1032  0.5086
  157SAPE  C31317589   5.434   7.490   9.026 -0.4564  0.6900 -0.1764
  157SAPE  H13X17590   5.525   7.433   8.996 -0.6492  0.3213 -0.0662
  157SAPE  H13Y17591   5.470   7.561   9.103  0.8174  0.2730 -0.3593
  157SAPE  C31417592   5.390   7.566   8.904  0.0632  0.1527  0.0685
  157SAPE  H14X17593   5.295   7.621   8.922  0.4643  0.4833  1.3109
  157SAPE  H14Y17594   5.373   7.499   8.817  0.6282  1.4571 -1.0954
  157SAPE  C31517595   5.492   7.669   8.859  0.4495 -0.8866  0.3635
  157SAPE  H15X17596   5.577   7.608   8.820  1.7260  0.8218  0.3479
  157SAPE  H15Y17597   5.522   7.720   8.954  1.5109  0.6085 -0.7312
  157SAPE  C31617598   5.449   7.777   8.753  0.0833 -0.5923  0.1073
  157SAPE  H16X17599   5.400   7.722   8.669  0.2064 -1.0052  0.3006
  157SAPE  H16Y17600   5.539   7.829   8.713 -0.4682 -0.0761 -0.4766
  157SAPE  C31717601   5.351   7.888   8.794 -0.4679 -0.3524 -0.5507
  157SAPE  H17X17602   5.379   7.905   8.900  2.9853  1.1756 -1.5607
  157SAPE  H17Y17603   5.248   7.849   8.782 -0.2962 -0.1574 -3.1370
  157SAPE  C31817604   5.373   8.009   8.708 -0.0773  0.5041 -0.4433
  157SAPE  H18X17605   5.296   8.088   8.721 -0.3923  0.0367  0.6316
  157SAPE  H18Y17606   5.379   7.981   8.601  0.9947 -1.0178 -0.0229
  157SAPE  H18Z17607   5.476   8.049   8.714  0.4833 -1.0670  1.2085
  158SAPE     N17608   0.008   6.297  11.011  0.6166 -0.0421  0.5003
  158SAPE   HN117609   0.025   6.265  11.109 -0.5054  0.2776  0.8197
  158SAPE   HN217610   0.072   6.247  10.947 -0.7567  2.1709 -2.8860
  158SAPE   HN317611   0.040   6.396  10.999 -0.8193  0.3340 -0.6429
  158SAPE   C1217612  -0.134   6.276  10.975  0.2920  0.2245 -0.2649
  158SAPE  H12A17613  -0.159   6.173  11.007 -1.5211  1.1352  1.4774
  158SAPE  H12B17614  -0.137   6.301  10.867  1.1223  1.4731 -0.0209
  158SAPE   C1117615  -0.226   6.366  11.060 -0.0355 -0.3202 -0.4970
  158SAPE  H11A17616  -0.178   6.466  11.059  2.3749 -1.3691  0.4291
  158SAPE  H11B17617  -0.226   6.340  11.168 -1.6022  0.4854 -0.2794
  158SAPE     P17618  -0.435   6.464  10.917 -0.1317  0.2396 -0.1037
  158SAPE   O1317619  -0.576   6.436  10.897  0.0661  0.0941  0.1202
  158SAPE   O1417620  -0.394   6.603  10.957  0.5402 -0.1808  0.2557
  158SAPE   O1217621  -0.357   6.359  11.009  0.0862  0.3881  0.1304
  158SAPE   O1117622  -0.349   6.433  10.780  0.3452 -0.2391 -0.2316
  158SAPE    C117623  -0.392   6.323  10.702 -0.0137 -0.3693  0.5988
  158SAPE    HA17624  -0.340   6.230  10.733  1.6504 -0.2097 -1.4963
  158SAPE    HB17625  -0.503   6.313  10.698 -0.0124 -0.1534 -0.1414
  158SAPE    C217626  -0.351   6.373  10.559  0.3192  0.2809  0.1185
  158SAPE    HS17627  -0.250   6.420  10.565  0.1130  0.8149 -0.5367
  158SAPE   O2117628  -0.448   6.468  10.510 -0.0207 -0.0158 -0.2462
  158SAPE   C2117629  -0.389   6.563  10.439  0.1083  0.2130  0.4642
  158SAPE   O2217630  -0.269   6.565  10.405  0.5127 -0.6844  0.6208
  158SAPE   C2217631  -0.498   6.669  10.407 -0.0695 -0.3654 -0.0664
  158SAPE   H2R17632  -0.593   6.614  10.392 -0.8821  1.2126 -1.0011
  158SAPE   H2S17633  -0.499   6.724  10.504  2.8723 -2.1599  1.1259
  158SAPE    C317634  -0.342   6.242  10.467  0.1301  0.0937 -0.0335
  158SAPE    HX17635  -0.445   6.201  10.459 -0.7632  1.7756  1.9612
  158SAPE    HY17636  -0.279   6.178  10.533 -1.0790  0.7935  1.8883
  158SAPE   O3117637  -0.265   6.261  10.346  0.0464 -0.3871  0.5380
  158SAPE   C3117638  -0.339   6.257  10.234  0.4036 -0.5089  0.1016
  158SAPE   O3217639  -0.463   6.266  10.227 -0.0826 -0.8764 -0.2578
  158SAPE   C3217640  -0.244   6.247  10.114 -0.2283 -0.7236 -0.0639
  158SAPE   H2X17641  -0.267   6.148  10.070 -1.8701 -0.6208  0.4870
  158SAPE   H2Y17642  -0.142   6.259  10.155 -0.7503  1.9516  0.6565
  158SAPE   C2317643  -0.447   6.758  10.289  0.2071 -0.1765 -0.0497
  158SAPE   H3R17644  -0.350   6.809  10.308 -0.1229  1.0258 -1.4300
  158SAPE   H3S17645  -0.518   6.844  10.292  2.3671  1.7569 -1.1434
  158SAPE   C2417646  -0.438   6.709  10.145  0.0790 -0.2698  0.2647
  158SAPE   H4R17647  -0.367   6.623  10.141 -0.3320 -0.5854 -0.5857
  158SAPE   H4S17648  -0.420   6.779  10.061 -1.2518 -0.2463 -0.0231
  158SAPE   C2517649  -0.582   6.669  10.120  0.3723 -0.2610 -0.4363
  158SAPE   H5R17650  -0.659   6.704  10.191  1.5915  2.5381 -0.3291
  158SAPE   C2617651  -0.617   6.607  10.006  0.5811 -0.0579 -0.1881
  158SAPE   H6R17652  -0.722   6.573   9.999  0.7636 -0.2582 -2.4110
  158SAPE   C2717653  -0.534   6.580   9.886  0.0262 -0.4727  0.0377
  158SAPE   H7R17654  -0.582   6.492   9.838 -0.8689 -1.2601  2.2835
  158SAPE   H7S17655  -0.434   6.541   9.914 -0.1969 -1.3388 -0.3312
  158SAPE   C2817656  -0.522   6.711   9.812  0.2114 -0.3381  0.5677
  158SAPE   H8R17657  -0.478   6.797   9.864  0.4251  0.3875 -0.7534
  158SAPE   C2917658  -0.567   6.733   9.685  0.1177  0.4226  0.6952
  158SAPE   H9R17659  -0.561   6.837   9.651  2.9100 -0.1448 -0.9050
  158SAPE  C21017660  -0.634   6.629   9.596 -0.0430 -0.6020 -0.5619
  158SAPE  H10R17661  -0.592   6.530   9.622  2.7052  1.1513  2.5139
  158SAPE  H10S17662  -0.606   6.644   9.489 -1.2303  2.4557 -0.5572
  158SAPE  C21117663  -0.779   6.650   9.609 -0.7056 -0.7264 -0.0909
  158SAPE  H11R17664  -0.822   6.661   9.709 -1.2910  3.3611 -0.6234
  158SAPE  C21217665  -0.869   6.651   9.512  0.0862  0.1592 -0.6770
  158SAPE  H12R17666  -0.970   6.684   9.542 -0.7631 -0.4868 -2.6291
  158SAPE  C21317667  -0.833   6.639   9.362 -0.3729  0.3587 -0.6827
  158SAPE  H13R17668  -0.818   6.531   9.342 -2.4992 -0.2420  0.6508
  158SAPE  H13S17669  -0.741   6.698   9.343 -0.3749  0.1104 -1.5323
  158SAPE  C21417670  -0.943   6.704   9.285  0.1508 -0.9435  0.9301
  158SAPE  H14R17671  -0.983   6.799   9.324 -1.7793 -0.8582 -1.0450
  158SAPE  C21517672  -1.001   6.658   9.167 -0.2725 -0.2971  0.1460
  158SAPE  H15R17673  -1.063   6.711   9.092  0.9278  0.3193 -0.4492
  158SAPE  C21617674  -0.971   6.518   9.106  0.5306 -0.4275 -0.6690
  158SAPE  H16R17675  -1.052   6.485   9.037  0.4231  1.5395 -1.5612
  158SAPE  H16S17676  -0.958   6.452   9.194  0.8471 -0.5780 -0.8293
  158SAPE  C21717677  -0.839   6.509   9.028  0.6838  0.3321  0.1231
  158SAPE  H17R17678  -0.812   6.401   9.026  1.1605  0.4108  1.2386
  158SAPE  H17S17679  -0.753   6.565   9.073  1.0226  0.9304 -1.2076
  158SAPE  C21817680  -0.851   6.568   8.893  0.5120 -0.2883 -0.2136
  158SAPE  H18R17681  -0.846   6.679   8.881  3.3090 -0.3603 -0.4345
  158SAPE  H18S17682  -0.952   6.537   8.859  1.2860 -1.7310 -1.3118
  158SAPE  C21917683  -0.747   6.510   8.807  0.6307 -0.0444  0.3251
  158SAPE  H19R17684  -0.730   6.400   8.808  1.1483  0.0367  0.6728
  158SAPE  H19S17685  -0.645   6.541   8.839  1.7836 -0.9814 -2.1866
  158SAPE  C22017686  -0.755   6.555   8.656 -0.2841 -0.2877  0.0478
  158SAPE  H20R17687  -0.759   6.666   8.661 -3.2899 -0.3355  0.3801
  158SAPE  H20S17688  -0.853   6.529   8.612 -0.5780  0.3705  0.3092
  158SAPE  H20T17689  -0.673   6.534   8.583 -0.8702 -0.8979 -0.4422
  158SAPE   C3317690  -0.273   6.347  10.011 -0.1394 -0.2556 -0.1243
  158SAPE   H3X17691  -0.255   6.450  10.050 -1.1834 -1.1634  2.9858
  158SAPE   H3Y17692  -0.382   6.335   9.993 -0.7009 -2.3711  3.6290
  158SAPE   C3417693  -0.171   6.314   9.902  0.0929  0.2628 -0.0414
  158SAPE   H4X17694  -0.175   6.215   9.852 -0.5439  0.3057 -0.0838
  158SAPE   H4Y17695  -0.070   6.334   9.945  0.1098 -1.6516  0.9040
  158SAPE   C3517696  -0.196   6.408   9.780  0.1329  0.6888  0.9265
  158SAPE   H5X17697  -0.155   6.510   9.797 -2.2164  1.9190 -0.3760
  158SAPE   H5Y17698  -0.306   6.421   9.779 -0.0334 -0.4986  1.8691
  158SAPE   C3617699  -0.137   6.357   9.646  0.5787  0.1566  0.6768
  158SAPE   H6X17700  -0.196   6.277   9.596  0.5729  1.3012 -1.2991
  158SAPE   H6Y17701  -0.033   6.321   9.649  0.3478 -0.4456  1.9438
  158SAPE   C3717702  -0.143   6.474   9.550 -0.1823 -0.4918  0.7981
  158SAPE   H7X17703  -0.054   6.537   9.574 -1.0006  0.5348  1.1815
  158SAPE   H7Y17704  -0.229   6.541   9.569  1.1825  1.3567  0.7016
  158SAPE   C3817705  -0.116   6.426   9.405  0.6520  0.0924 -0.1765
  158SAPE   H8X17706  -0.180   6.335   9.394  1.1542 -0.4073  0.9140
  158SAPE   H8Y17707  -0.011   6.390   9.409  1.2317  1.7645  0.1332
  158SAPE   C3917708  -0.144   6.529   9.302 -0.1909  0.2917 -0.4274
  158SAPE   H9X17709  -0.078   6.616   9.324 -0.6065  0.6709 -0.6749
  158SAPE   H9Y17710  -0.251   6.559   9.309 -0.7074 -1.6264  0.3756
  158SAPE  C31017711  -0.108   6.470   9.170  0.4918 -0.0399  0.8709
  158SAPE  H10X17712  -0.177   6.385   9.155  0.9876 -0.6613  2.0375
  158SAPE  H10Y17713  -0.006   6.426   9.177  0.2198 -0.7889  0.2539
  158SAPE  C31117714  -0.129   6.563   9.050  0.2590  0.0365 -0.1698
  158SAPE  H11X17715  -0.071   6.658   9.058 -0.5826  0.5831 -0.4496
  158SAPE  H11Y17716  -0.236   6.591   9.039  0.4910  1.0174 -0.0536
  158SAPE  C31217717  -0.063   6.507   8.926 -0.1698 -0.1718  0.3283
  158SAPE  H12X17718  -0.116   6.422   8.879  1.7120 -0.1580 -1.9615
  158SAPE  H12Y17719   0.040   6.470   8.943 -0.4813 -0.4953  1.6487
  158SAPE  C31317720  -0.048   6.617   8.824 -0.0487  0.4466  0.4633
  158SAPE  H13X17721   0.024   6.698   8.847 -0.6030  1.7387 -2.0125
  158SAPE  H13Y17722  -0.148   6.661   8.805  0.3028  1.1492  0.2208
  158SAPE  C31417723  -0.001   6.562   8.686 -0.7729 -0.7612 -0.0897
  158SAPE  H14X17724  -0.093   6.521   8.638 -1.9631  1.2544  0.3905
  158SAPE  H14Y17725   0.082   6.489   8.702 -0.4229 -0.1355  1.0200
  158SAPE  C31517726   0.041   6.666   8.582  0.1490 -0.4832 -0.7586
  158SAPE  H15X17727   0.129   6.715   8.629 -0.9255  1.0590 -0.2709
  158SAPE  H15Y17728  -0.030   6.749   8.562 -0.9641 -1.1920  0.1346
  158SAPE  C31617729   0.087   6.595   8.458 -0.4690 -0.3157 -0.1676
  158SAPE  H16X17730   0.002   6.528   8.434 -0.3856 -0.0064 -1.3603
  158SAPE  H16Y17731   0.173   6.528   8.477 -0.4900  0.3667  2.9383
  158SAPE  C31717732   0.132   6.685   8.349 -0.3082 -0.6346  0.1801
  158SAPE  H17X17733   0.051   6.749   8.308 -1.0031 -0.9634  1.0125
  158SAPE  H17Y17734   0.154   6.619   8.263 -0.9434 -1.7096  0.8236
  158SAPE  C31817735   0.258   6.772   8.373  0.1372  0.0325  0.6571
  158SAPE  H18X17736   0.334   6.707   8.423 -1.4598 -2.8957 -0.4743
  158SAPE  H18Y17737   0.236   6.861   8.434  1.3898  0.6485  0.2504
  158SAPE  H18Z17738   0.288   6.805   8.271 -1.3316 -0.4074  0.0533
  159SAPE     N17739   2.608   3.257   5.967  0.3966 -0.2349 -1.1417
  159SAPE   HN117740   2.577   3.352   5.996  0.5307  0.9101 -4.3113
  159SAPE   HN217741   2.628   3.250   5.865  1.7537  0.3069 -0.9370
  159SAPE   HN317742   2.529   3.193   5.989 -0.8310  1.5381 -0.1859
  159SAPE   C1217743   2.724   3.210   6.058  0.4387 -0.4814 -0.1619
  159SAPE  H12A17744   2.787   3.163   5.980 -0.9288  1.1524 -2.3440
  159SAPE  H12B17745   2.680   3.138   6.131  0.6932 -0.2574  0.2191
  159SAPE   C1117746   2.789   3.334   6.122 -0.0398  0.0071 -0.1921
  159SAPE  H11A17747   2.874   3.287   6.175 -1.3285 -2.7959 -0.4043
  159SAPE  H11B17748   2.715   3.379   6.192  0.5396 -0.8625  1.0141
  159SAPE     P17749   2.922   3.553   6.060 -0.0299  0.1670 -0.5405
  159SAPE   O1317750   3.062   3.506   6.056 -0.1587 -0.4187  0.0675
  159SAPE   O1417751   2.891   3.671   5.979  0.1321  0.1651  0.1409
  159SAPE   O1217752   2.832   3.420   6.017  0.0428 -0.0884  0.3933
  159SAPE   O1117753   2.868   3.571   6.204  0.3833 -0.4527 -0.1866
  159SAPE    C117754   2.922   3.685   6.281  0.1360 -0.2777 -0.3862
  159SAPE    HA17755   2.941   3.781   6.227  2.6907  0.1720  1.1452
  159SAPE    HB17756   2.850   3.704   6.363  0.6270  3.0539 -0.5812
  159SAPE    C217757   3.051   3.648   6.357  0.2534  0.1290  0.1260
  159SAPE    HS17758   3.108   3.580   6.290 -1.6781 -0.8671 -0.5836
  159SAPE   O2117759   3.019   3.576   6.481 -0.1586 -0.3398  0.6139
  159SAPE   C2117760   3.123   3.505   6.527  0.1717 -0.2102 -0.3166
  159SAPE   O2217761   3.236   3.504   6.477 -0.1897 -0.3683 -0.2446
  159SAPE   C2217762   3.091   3.437   6.657 -0.4672  0.3465 -0.4277
  159SAPE   H2R17763   3.070   3.513   6.735 -1.0844  1.0525 -1.2547
  159SAPE   H2S17764   3.000   3.374   6.642 -0.4664  0.7325 -2.2791
  159SAPE    C317765   3.141   3.772   6.379 -0.2448 -0.6016 -0.0751
  159SAPE    HX17766   3.140   3.820   6.278 -1.6834 -2.0709 -0.8025
  159SAPE    HY17767   3.245   3.749   6.411 -0.6134  0.8021  2.3365
  159SAPE   O3117768   3.079   3.863   6.467 -0.4301 -0.0374  0.0561
  159SAPE   C3117769   3.161   3.965   6.509  0.8535  0.0811 -0.6040
  159SAPE   O3217770   3.271   3.983   6.471  0.8868 -0.8325  0.7654
  159SAPE   C3217771   3.074   4.048   6.602 -0.4928 -0.7055  0.1264
  159SAPE   H2X17772   2.992   4.093   6.542  0.5326  0.1511 -0.6666
  159SAPE   H2Y17773   3.141   4.127   6.641  0.4436 -1.5900  0.3356
  159SAPE   C2317774   3.209   3.350   6.714 -0.6862 -0.2842 -0.2611
  159SAPE   H3R17775   3.294   3.406   6.670 -1.6467  0.4569 -1.2326
  159SAPE   H3S17776   3.202   3.250   6.665 -0.3323 -0.6452  0.4163
  159SAPE   C2417777   3.203   3.351   6.867 -0.0846 -0.5644  0.7140
  159SAPE   H4R17778   3.210   3.454   6.909 -1.9619  0.7616 -1.8815
  159SAPE   H4S17779   3.288   3.288   6.901  0.4358  0.4896  1.4366
  159SAPE   C2517780   3.080   3.279   6.902  0.3808 -0.1388 -0.6665
  159SAPE   H5R17781   3.081   3.170   6.882  1.0780 -0.4663  0.9773
  159SAPE   C2617782   2.977   3.326   6.977  0.2376  0.1139  0.2200
  159SAPE   H6R17783   2.900   3.252   7.004 -1.0135  1.4582  0.4929
  159SAPE   C2717784   2.974   3.462   7.044 -0.4129  0.1702 -0.0895
  159SAPE   H7R17785   2.948   3.546   6.976  1.5969 -0.0788 -1.2375
  159SAPE   H7S17786   3.074   3.490   7.083 -1.0815  1.8790  0.4972
  159SAPE   C2817787   2.877   3.478   7.161  0.3286 -0.6719  0.0412
  159SAPE   H8R17788   2.768   3.496   7.154  0.0851 -1.9966  0.1636
  159SAPE   C2917789   2.909   3.473   7.290  0.0644 -0.4433 -0.1246
  159SAPE   H9R17790   2.830   3.495   7.363  0.9901 -0.7022  0.9861
  159SAPE  C21017791   3.053   3.464   7.342  0.0018  0.0743 -0.0962
  159SAPE  H10R17792   3.124   3.412   7.274 -1.4679 -1.6348 -0.3898
  159SAPE  H10S17793   3.047   3.406   7.436  1.4764  1.0910  0.6678
  159SAPE  C21117794   3.102   3.609   7.372  0.8979 -0.0585  0.3674
  159SAPE  H11R17795   3.122   3.663   7.278  2.3282 -0.0496  0.6496
  159SAPE  C21217796   3.104   3.678   7.491  0.0987 -0.3658  0.1217
  159SAPE  H12R17797   3.127   3.786   7.485 -2.5093  0.1698 -1.6081
  159SAPE  C21317798   3.066   3.632   7.624 -0.0718  0.5457 -0.4297
  159SAPE  H13R17799   3.090   3.701   7.708 -2.8936  0.6095  0.4582
  159SAPE  H13S17800   3.137   3.551   7.652  1.2759  2.2784  1.4132
  159SAPE  C21417801   2.916   3.590   7.642 -0.5780 -0.4459  0.1579
  159SAPE  H14R17802   2.861   3.584   7.547 -0.1900  3.7576 -0.5458
  159SAPE  C21517803   2.858   3.565   7.760  0.5049 -0.5134  0.3271
  159SAPE  H15R17804   2.753   3.532   7.764  0.6172 -0.7259  1.9162
  159SAPE  C21617805   2.929   3.567   7.893 -0.0829  0.2257  0.0965
  159SAPE  H16R17806   2.916   3.668   7.938  2.5202  0.8928 -0.5202
  159SAPE  H16S17807   3.038   3.552   7.886 -0.1630  0.1347 -1.0750
  159SAPE  C21717808   2.873   3.464   7.994  0.0240 -1.1505 -0.2665
  159SAPE  H17R17809   2.865   3.360   7.953  0.5854 -0.2511 -2.8441
  159SAPE  H17S17810   2.766   3.487   8.015  0.4662 -0.6190  1.5296
  159SAPE  C21817811   2.962   3.459   8.113  0.1619  0.0382  0.3327
  159SAPE  H18R17812   2.943   3.550   8.174 -0.5546  0.4498 -0.4881
  159SAPE  H18S17813   3.070   3.450   8.086 -0.3218 -0.5319 -1.5559
  159SAPE  C21917814   2.926   3.341   8.208  0.6150  0.3974  0.6443
  159SAPE  H19R17815   2.816   3.343   8.222  0.6652  0.5075  1.0423
  159SAPE  H19S17816   2.969   3.367   8.308 -1.7895 -1.3553  2.2529
  159SAPE  C22017817   2.981   3.207   8.157 -0.3051  0.4878  0.6317
  159SAPE  H20R17818   3.092   3.218   8.163 -0.4164  2.4673  0.0346
  159SAPE  H20S17819   2.959   3.198   8.049 -1.2731  0.0654  0.8564
  159SAPE  H20T17820   2.937   3.120   8.210 -1.0307  0.7444  0.4546
  159SAPE   C3317821   3.004   3.971   6.723  0.0144 -0.7661 -0.4725
  159SAPE   H3X17822   2.958   3.874   6.698 -1.5715 -0.9251  2.6164
  159SAPE   H3Y17823   2.922   4.032   6.766 -1.2975 -1.4056 -1.9604
  159SAPE   C3417824   3.108   3.959   6.832  0.0134 -0.1668  0.3197
  159SAPE   H4X17825   3.166   4.053   6.844  0.4017 -0.4664  0.8726
  159SAPE   H4Y17826   3.184   3.895   6.781  1.0778  2.3793 -1.5129
  159SAPE   C3517827   3.052   3.921   6.963  0.7225  0.1016  0.1967
  159SAPE   H5X17828   2.996   3.825   6.961  0.5017  0.2327 -2.0089
  159SAPE   H5Y17829   2.980   3.996   7.002  0.2034 -0.2502 -0.0694
  159SAPE   C3617830   3.179   3.920   7.055  0.0385  0.1819 -0.5637
  159SAPE   H6X17831   3.264   3.871   7.003  1.0497 -1.2841  2.2845
  159SAPE   H6Y17832   3.144   3.850   7.134 -3.5452  1.9891 -0.3558
  159SAPE   C3717833   3.215   4.051   7.125 -0.8846  0.6282 -0.3372
  159SAPE   H7X17834   3.127   4.067   7.192 -1.2707 -1.1376 -0.3730
  159SAPE   H7Y17835   3.232   4.147   7.074  1.6093  0.0121 -0.7807
  159SAPE   C3817836   3.334   4.021   7.222  0.2230 -0.8685 -0.3847
  159SAPE   H8X17837   3.433   4.027   7.172  1.4097 -0.4266  1.8685
  159SAPE   H8Y17838   3.315   3.917   7.258 -4.0740  0.2518  1.2254
  159SAPE   C3917839   3.332   4.116   7.346 -0.4502  0.5866  1.1192
  159SAPE   H9X17840   3.227   4.111   7.379 -0.8675  0.8297 -0.1169
  159SAPE   H9Y17841   3.352   4.223   7.322 -3.6821  1.3876  1.5253
  159SAPE  C31017842   3.430   4.068   7.453 -0.9033 -0.7561 -0.9736
  159SAPE  H10X17843   3.427   4.125   7.549  1.0182  0.0303 -1.3387
  159SAPE  H10Y17844   3.534   4.076   7.416 -1.1118 -2.1180 -1.9118
  159SAPE  C31117845   3.405   3.918   7.503 -0.2830 -0.6793 -0.0849
  159SAPE  H11X17846   3.400   3.849   7.416 -2.5829  0.7642 -1.2003
  159SAPE  H11Y17847   3.305   3.915   7.552 -0.1112  1.6644  0.5537
  159SAPE  C31217848   3.506   3.872   7.608 -0.4528  0.0507 -0.7316
  159SAPE  H12X17849   3.488   3.928   7.702 -2.1920 -4.7825  2.1803
  159SAPE  H12Y17850   3.605   3.889   7.561 -1.0850  0.8094 -1.8421
  159SAPE  C31317851   3.484   3.727   7.654  0.9392  0.2358  0.0825
  159SAPE  H13X17852   3.577   3.667   7.661  1.8497  1.3725 -1.6696
  159SAPE  H13Y17853   3.413   3.681   7.582 -2.0961  2.4243  1.4419
  159SAPE  C31417854   3.416   3.736   7.796 -0.0391  0.2235  0.5104
  159SAPE  H14X17855   3.324   3.797   7.781  0.5798  1.1849  0.4646
  159SAPE  H14Y17856   3.491   3.773   7.870 -1.4915  0.2466  2.0526
  159SAPE  C31517857   3.379   3.590   7.831 -0.3138 -0.5407 -0.0793
  159SAPE  H15X17858   3.374   3.536   7.734  1.3275 -0.9716  0.0333
  159SAPE  H15Y17859   3.274   3.588   7.865 -1.3965 -0.0275 -3.0902
  159SAPE  C31617860   3.484   3.526   7.925 -0.2673 -0.0909  0.0592
  159SAPE  H16X17861   3.538   3.608   7.976  3.4779 -1.6345 -1.1168
  159SAPE  H16Y17862   3.553   3.468   7.859 -2.0260  0.4424 -2.3985
  159SAPE  C31717863   3.440   3.428   8.042  0.0820  0.0887 -0.1753
  159SAPE  H17X17864   3.531   3.387   8.092  0.7489  0.1049 -1.3510
  159SAPE  H17Y17865   3.385   3.343   7.997  2.2313 -2.5195  1.8036
  159SAPE  C31817866   3.348   3.496   8.140 -0.1467 -0.5200 -0.1755
  159SAPE  H18X17867   3.406   3.576   8.192  1.0630 -1.2901 -0.3120
  159SAPE  H18Y17868   3.315   3.420   8.214  0.2084 -0.1033  0.4279
  159SAPE  H18Z17869   3.257   3.546   8.101  0.2704  0.7788  0.4456
  160SAPE     N17870   2.569   5.063   6.572  0.0746  0.4765  0.1137
  160SAPE   HN117871   2.511   5.127   6.514  1.5652  0.6524 -1.2711
  160SAPE   HN217872   2.517   5.065   6.662 -2.4341 -2.1981 -1.1246
  160SAPE   HN317873   2.662   5.110   6.579 -0.4434  1.5244  0.0485
  160SAPE   C1217874   2.583   4.919   6.529  0.5610 -0.5792 -0.0230
  160SAPE  H12A17875   2.653   4.860   6.593  1.6206 -0.3629 -0.9665
  160SAPE  H12B17876   2.638   4.924   6.433 -0.6524  3.0857 -0.6497
  160SAPE   C1117877   2.451   4.849   6.490 -0.0634 -0.1067 -0.5920
  160SAPE  H11A17878   2.408   4.837   6.592  1.4954 -1.5304 -0.0423
  160SAPE  H11B17879   2.458   4.748   6.444 -0.6722 -1.2595  1.6977
  160SAPE     P17880   2.233   4.895   6.382 -0.1611 -0.1369 -0.2075
  160SAPE   O1317881   2.160   5.009   6.440 -0.9761  1.0410  0.4699
  160SAPE   O1417882   2.200   4.866   6.241  0.4568 -0.1824  0.3506
  160SAPE   O1217883   2.387   4.929   6.398  0.4838 -0.7831  0.4177
  160SAPE   O1117884   2.202   4.766   6.475  1.1849  0.9118  0.0461
  160SAPE    C117885   2.091   4.754   6.564  0.3838 -0.7060 -0.5033
  160SAPE    HA17886   2.030   4.846   6.571 -1.7410 -2.1355  1.2699
  160SAPE    HB17887   2.022   4.677   6.524 -3.2139  1.9826  0.0317
  160SAPE    C217888   2.154   4.714   6.706 -0.3005  0.3876 -0.3691
  160SAPE    HS17889   2.194   4.806   6.755 -0.4912  0.8423 -1.0488
  160SAPE   O2117890   2.256   4.615   6.685  0.3252 -0.6393 -0.6091
  160SAPE   C2117891   2.367   4.636   6.746  0.2731  0.2667  0.3986
  160SAPE   O2217892   2.390   4.727   6.827 -0.3501 -0.2746 -0.0462
  160SAPE   C2217893   2.463   4.523   6.708 -0.4830  0.5456  0.1816
  160SAPE   H2R17894   2.417   4.442   6.647  1.8728 -0.5763 -0.2257
  160SAPE   H2S17895   2.553   4.561   6.655 -1.5777  0.2673 -1.9683
  160SAPE    C317896   2.043   4.644   6.787 -0.1862 -0.0263 -0.5233
  160SAPE    HX17897   2.034   4.550   6.729 -0.3526  0.6279 -1.5706
  160SAPE    HY17898   1.943   4.692   6.783  0.0127  0.6763  1.5479
  160SAPE   O3117899   2.092   4.627   6.925  0.2090 -0.5313 -0.6567
  160SAPE   C3117900   2.075   4.730   7.013 -0.2349 -0.2542 -0.0482
  160SAPE   O3217901   2.017   4.834   6.990  0.1696 -0.1786 -0.5951
  160SAPE   C3217902   2.141   4.697   7.145  0.0293  0.1467  0.3263
  160SAPE   H2X17903   2.240   4.652   7.123 -0.9635 -3.1950  1.9482
  160SAPE   H2Y17904   2.091   4.608   7.189  2.4450 -1.1786  0.5383
  160SAPE   C2317905   2.523   4.456   6.837 -0.5133  0.1862  0.1407
  160SAPE   H3R17906   2.444   4.439   6.913  1.0242 -0.9723  1.5711
  160SAPE   H3S17907   2.590   4.532   6.882  0.4192  0.4698 -1.6445
  160SAPE   C2417908   2.591   4.315   6.820  0.0609 -0.8570 -0.4612
  160SAPE   H4R17909   2.517   4.253   6.764 -0.3255 -2.0432  1.2769
  160SAPE   H4S17910   2.593   4.275   6.924  0.1906  1.9314  0.7185
  160SAPE   C2517911   2.718   4.347   6.743 -0.2799  0.4520 -0.6329
  160SAPE   H5R17912   2.693   4.385   6.643 -0.9406 -1.1774 -1.1267
  160SAPE   C2617913   2.836   4.358   6.802 -0.6541 -0.0108 -0.2428
  160SAPE   H6R17914   2.923   4.377   6.738  0.0684  1.8547  1.2046
  160SAPE   C2717915   2.869   4.306   6.942  0.1050 -0.4173 -0.5468
  160SAPE   H7R17916   2.978   4.287   6.956  0.2545  0.7268 -0.0857
  160SAPE   H7S17917   2.816   4.209   6.959 -0.6994  0.2505  0.9444
  160SAPE   C2817918   2.813   4.380   7.053  0.1820  0.2891 -0.4285
  160SAPE   H8R17919   2.732   4.449   7.024 -0.4736 -0.3022 -0.0330
  160SAPE   C2917920   2.861   4.384   7.181  0.0328 -0.3865  0.8442
  160SAPE   H9R17921   2.807   4.454   7.247  0.2237 -1.6757  2.4123
  160SAPE  C21017922   2.971   4.298   7.229  0.4905 -0.4449  0.6168
  160SAPE  H10R17923   3.048   4.280   7.152  0.4888  1.7324  0.0630
  160SAPE  H10S17924   2.921   4.204   7.260 -1.2005 -0.2903 -1.4268
  160SAPE  C21117925   3.046   4.381   7.332  0.3520  0.0456  0.5312
  160SAPE  H11R17926   3.109   4.460   7.288  0.0450 -0.0569 -0.0930
  160SAPE  C21217927   3.051   4.355   7.461  0.6763 -0.3444 -0.4726
  160SAPE  H12R17928   3.126   4.411   7.519 -1.2738  1.9925 -0.0579
  160SAPE  C21317929   2.977   4.257   7.543  0.5934 -0.9976  0.3408
  160SAPE  H13R17930   2.906   4.194   7.485  2.0222 -1.8131 -0.5800
  160SAPE  H13S17931   2.918   4.306   7.624  1.2210  0.0841  0.1505
  160SAPE  C21417932   3.079   4.151   7.592 -0.4974 -0.6575  0.2252
  160SAPE  H14R17933   3.089   4.074   7.514 -0.0763 -0.4870  0.1068
  160SAPE  C21517934   3.169   4.159   7.698 -0.0777  0.5793  0.1477
  160SAPE  H15R17935   3.238   4.074   7.705 -1.4737 -0.6436 -0.4803
  160SAPE  C21617936   3.183   4.273   7.790  0.4862  0.0227 -0.3540
  160SAPE  H16R17937   3.166   4.369   7.737 -0.4247 -0.1776 -0.4525
  160SAPE  H16S17938   3.289   4.268   7.822  0.3043 -0.2293  0.2073
  160SAPE  C21717939   3.091   4.274   7.916 -0.2355 -0.4767  0.7171
  160SAPE  H17R17940   3.088   4.171   7.958 -0.1679 -0.9214 -0.3459
  160SAPE  H17S17941   2.984   4.296   7.896  0.2568  0.8556 -0.6594
  160SAPE  C21817942   3.129   4.376   8.018 -0.6780 -0.1104  0.0683
  160SAPE  H18R17943   3.102   4.477   7.981  1.4951  2.0532  3.8069
  160SAPE  H18S17944   3.238   4.374   8.034 -0.7469  1.2219  0.8111
  160SAPE  C21917945   3.065   4.360   8.152  0.0834  0.1544 -0.0610
  160SAPE  H19R17946   3.113   4.439   8.214 -2.0267 -0.3852  2.4566
  160SAPE  H19S17947   3.089   4.258   8.188 -0.7853 -0.4459 -1.1293
  160SAPE  C22017948   2.913   4.384   8.160  0.5892  0.4364 -0.5311
  160SAPE  H20R17949   2.869   4.345   8.254  0.0213 -0.4760 -1.1585
  160SAPE  H20S17950   2.880   4.315   8.080 -0.1187 -0.2818  0.3632
  160SAPE  H20T17951   2.872   4.486   8.144 -1.5657 -0.2307  0.4660
  160SAPE   C3317952   2.150   4.817   7.241  0.6335  0.0516  0.1118
  160SAPE   H3X17953   2.050   4.865   7.251  0.2271 -0.9888  1.2698
  160SAPE   H3Y17954   2.234   4.888   7.227  2.3711 -1.9618 -0.1240
  160SAPE   C3417955   2.170   4.754   7.387 -0.3231 -0.5478  0.5565
  160SAPE   H4X17956   2.244   4.672   7.381 -0.2038 -0.4021  0.0014
  160SAPE   H4Y17957   2.076   4.704   7.418 -0.0821 -0.7005  1.0467
  160SAPE   C3517958   2.198   4.858   7.493 -0.1453 -0.1655  0.2778
  160SAPE   H5X17959   2.113   4.930   7.492 -0.1448 -0.1154  1.8411
  160SAPE   H5Y17960   2.282   4.926   7.467 -1.0600  0.3281 -1.5147
  160SAPE   C3617961   2.222   4.800   7.633 -0.3596 -0.4652 -0.3613
  160SAPE   H6X17962   2.307   4.731   7.619 -0.8509 -0.7038 -2.5059
  160SAPE   H6Y17963   2.129   4.743   7.657  0.0008 -1.2477 -0.8001
  160SAPE   C3717964   2.260   4.909   7.739 -0.7722  0.1691 -0.5532
  160SAPE   H7X17965   2.196   4.999   7.750  1.0127  1.3853  0.4050
  160SAPE   H7Y17966   2.353   4.959   7.704 -1.1304 -0.3807 -2.4560
  160SAPE   C3817967   2.288   4.840   7.874 -0.3650  0.2250  0.7186
  160SAPE   H8X17968   2.384   4.785   7.866 -1.6270 -2.3532  2.1125
  160SAPE   H8Y17969   2.205   4.769   7.895 -0.4253  0.0756 -0.0142
  160SAPE   C3917970   2.304   4.941   7.991  0.5763  0.5887 -0.6046
  160SAPE   H9X17971   2.206   4.979   8.024  1.5019  1.3410  1.4330
  160SAPE   H9Y17972   2.370   5.025   7.963 -1.0929  1.3742 -2.3767
  160SAPE  C31017973   2.360   4.872   8.119  0.4003 -0.2453  0.1067
  160SAPE  H10X17974   2.468   4.859   8.100  0.4830 -1.3519  1.2139
  160SAPE  H10Y17975   2.307   4.777   8.142 -0.6884  0.4619  0.6069
  160SAPE  C31117976   2.339   4.961   8.247 -0.5630  0.3067  0.0668
  160SAPE  H11X17977   2.231   4.982   8.260 -0.9840 -2.4272  1.8188
  160SAPE  H11Y17978   2.398   5.055   8.241  1.7776 -1.0882  0.0097
  160SAPE  C31217979   2.385   4.883   8.367 -0.1392 -0.3000  0.2469
  160SAPE  H12X17980   2.474   4.827   8.332 -0.6440 -0.3381 -1.0202
  160SAPE  H12Y17981   2.303   4.809   8.382 -1.9289  1.2325 -1.4110
  160SAPE  C31317982   2.416   4.974   8.478  0.3180  0.0876 -0.3081
  160SAPE  H13X17983   2.322   5.020   8.517  1.0144 -0.0791  1.6819
  160SAPE  H13Y17984   2.501   5.042   8.458  1.4364 -1.5412 -1.2968
  160SAPE  C31417985   2.456   4.883   8.592  0.0392 -0.2946 -0.3120
  160SAPE  H14X17986   2.559   4.845   8.576  0.5040  1.5289 -2.0138
  160SAPE  H14Y17987   2.384   4.798   8.601  2.1462 -1.9131  3.0340
  160SAPE  C31517988   2.452   4.948   8.734 -0.0947  0.1411 -0.7029
  160SAPE  H15X17989   2.511   5.043   8.729 -0.9422  0.6069 -2.7683
  160SAPE  H15Y17990   2.485   4.866   8.801 -0.5336  0.9054  0.4975
  160SAPE  C31617991   2.307   4.996   8.771  0.4557  0.0033  0.3191
  160SAPE  H16X17992   2.245   4.905   8.756 -0.0405  0.5643 -1.1726
  160SAPE  H16Y17993   2.277   5.077   8.700 -0.2150 -0.3757  0.1609
  160SAPE  C31717994   2.290   5.049   8.919 -0.8560 -0.1035  0.1135
  160SAPE  H17X17995   2.307   5.159   8.920  0.9660 -0.3327  2.8897
  160SAPE  H17Y17996   2.359   5.011   8.996  0.9919  1.3954 -0.7331
  160SAPE  C31817997   2.141   5.033   8.956 -0.4886 -0.5216  0.0124
  160SAPE  H18X17998   2.117   4.924   8.965  0.8493 -0.7719  0.9198
  160SAPE  H18Y17999   2.072   5.081   8.884  0.3174  1.0714  0.2758
  160SAPE  H18Z18000   2.126   5.077   9.057 -2.7994 -2.0685  0.4472
  161SAPE     N18001   4.214   0.721   5.925 -0.3558 -0.0661 -0.3036
  161SAPE   HN118002   4.280   0.673   5.860 -0.6910 -1.1625  0.1261
  161SAPE   HN218003   4.155   0.639   5.952 -0.9835  0.0738 -1.2166
  161SAPE   HN318004   4.154   0.787   5.872 -0.3581 -1.4055 -2.0537
  161SAPE   C1218005   4.278   0.791   6.038 -0.8996 -0.4219  0.0193
  161SAPE  H12A18006   4.206   0.792   6.122 -1.8493 -1.5338 -0.7574
  161SAPE  H12B18007   4.288   0.896   6.003  1.3245 -0.5764  0.0343
  161SAPE   C1118008   4.420   0.744   6.058 -0.6298  0.1352  0.3916
  161SAPE  H11A18009   4.466   0.814   6.132 -0.8810  1.4640 -0.6614
  161SAPE  H11B18010   4.471   0.752   5.960 -0.8565  1.3322  0.3591
  161SAPE     P18011   4.480   0.562   6.242 -0.4256 -0.2560 -0.1190
  161SAPE   O1318012   4.402   0.441   6.276 -0.6984  0.2125  0.3213
  161SAPE   O1418013   4.627   0.547   6.231  0.4643 -0.2800  0.1312
  161SAPE   O1218014   4.419   0.607   6.106 -0.1355 -0.4187  0.2971
  161SAPE   O1118015   4.443   0.679   6.339 -0.0171  0.5611 -0.3936
  161SAPE    C118016   4.551   0.759   6.389  0.4865 -0.1868 -0.6554
  161SAPE    HA18017   4.619   0.800   6.311  0.1164 -0.2983 -1.0454
  161SAPE    HB18018   4.504   0.849   6.433  0.5699 -0.6018  0.2978
  161SAPE    C218019   4.643   0.690   6.497 -0.4946  0.1117 -0.1469
  161SAPE    HS18020   4.658   0.582   6.476  2.8666  0.1505  1.3901
  161SAPE   O2118021   4.606   0.719   6.635 -0.7114 -0.0649 -0.2217
  161SAPE   C2118022   4.509   0.638   6.669 -0.2501  0.2187 -0.3132
  161SAPE   O2218023   4.476   0.533   6.619  0.2984 -0.0243  0.5519
  161SAPE   C2218024   4.437   0.707   6.785  0.5348 -0.5743 -1.0092
  161SAPE   H2R18025   4.513   0.756   6.850  0.4893 -0.5923 -0.9427
  161SAPE   H2S18026   4.368   0.781   6.742  0.0545 -0.8386 -0.6975
  161SAPE    C318027   4.790   0.740   6.473 -0.1655  0.2646  0.0315
  161SAPE    HX18028   4.789   0.850   6.458  1.3910  0.0429 -2.2419
  161SAPE    HY18029   4.819   0.701   6.372  2.6924  1.1361  0.4222
  161SAPE   O3118030   4.877   0.709   6.580 -0.8385 -0.4354  0.4887
  161SAPE   C3118031   4.934   0.598   6.576 -0.0442  0.5193 -0.0705
  161SAPE   O3218032   4.938   0.511   6.491  0.1058 -0.4347 -0.1368
  161SAPE   C3218033   4.997   0.578   6.716 -0.6351 -0.2524  0.3527
  161SAPE   H2X18034   4.939   0.646   6.782 -3.2600 -0.2870 -1.7147
  161SAPE   H2Y18035   5.101   0.617   6.719  0.2882 -2.5961  2.0587
  161SAPE   C2318036   4.354   0.612   6.868 -0.1080 -0.3451  0.1235
  161SAPE   H3R18037   4.279   0.562   6.804  0.7638  0.5661 -1.7019
  161SAPE   H3S18038   4.283   0.674   6.928 -1.6121 -0.6863 -1.2235
  161SAPE   C2418039   4.435   0.520   6.957  0.0740 -0.4957 -0.2307
  161SAPE   H4R18040   4.506   0.469   6.888 -2.0084 -0.4320 -2.5547
  161SAPE   H4S18041   4.372   0.441   7.002  0.7551 -1.1452 -0.4068
  161SAPE   C2518042   4.501   0.600   7.069 -0.7082 -0.2021  0.3319
  161SAPE   H5R18043   4.590   0.655   7.035  0.6622 -2.1202  0.6306
  161SAPE   C2618044   4.466   0.609   7.203 -0.9157 -0.5782  0.3040
  161SAPE   H6R18045   4.514   0.688   7.262 -2.0054 -0.0130  0.4682
  161SAPE   C2718046   4.357   0.528   7.274  0.2947 -0.8899 -0.5508
  161SAPE   H7R18047   4.305   0.455   7.209 -0.1988  0.3475 -1.5728
  161SAPE   H7S18048   4.278   0.602   7.298 -0.5896 -1.6842 -0.9873
  161SAPE   C2818049   4.392   0.468   7.402 -0.1461  0.1221  0.1785
  161SAPE   H8R18050   4.496   0.433   7.409  1.0205  3.1782 -0.2324
  161SAPE   C2918051   4.318   0.472   7.515  0.4100 -0.1719 -0.1669
  161SAPE   H9R18052   4.364   0.443   7.610  1.8768 -1.7420 -1.2961
  161SAPE  C21018053   4.173   0.521   7.536  0.2026 -0.3036  0.1205
  161SAPE  H10R18054   4.114   0.429   7.557  1.6962 -0.7907  2.6178
  161SAPE  H10S18055   4.141   0.563   7.438 -1.3562 -1.2728  0.1768
  161SAPE  C21118056   4.157   0.632   7.639  0.3972 -0.0718 -0.4029
  161SAPE  H11R18057   4.133   0.731   7.598  2.2296  0.9891  0.9720
  161SAPE  C21218058   4.187   0.633   7.767 -0.1422  0.6970 -0.8272
  161SAPE  H12R18059   4.164   0.729   7.816 -0.0735  0.0197  0.5736
  161SAPE  C21318060   4.219   0.516   7.867 -0.2276 -0.0863  0.0235
  161SAPE  H13R18061   4.182   0.421   7.823  2.2243  0.0093 -2.5861
  161SAPE  H13S18062   4.157   0.531   7.957  0.3842 -1.3910  0.6968
  161SAPE  C21418063   4.369   0.488   7.896 -0.4696 -0.0697 -0.0540
  161SAPE  H14R18064   4.432   0.444   7.817 -0.9070  0.3340 -0.6361
  161SAPE  C21518065   4.441   0.527   8.003 -0.5839  0.1576 -0.6730
  161SAPE  H15R18066   4.546   0.496   8.016 -0.7300 -0.2009 -0.3102
  161SAPE  C21618067   4.380   0.599   8.122  0.0411  0.0754 -0.5440
  161SAPE  H16R18068   4.342   0.532   8.202  1.7343  0.6040  0.7654
  161SAPE  H16S18069   4.292   0.659   8.091  0.2883  0.8812  0.2972
  161SAPE  C21718070   4.478   0.703   8.185  0.2722  0.2013  0.0027
  161SAPE  H17R18071   4.570   0.660   8.229 -0.3606 -1.0692  0.1479
  161SAPE  H17S18072   4.419   0.755   8.265  0.4435  0.2907  0.0699
  161SAPE  C21818073   4.509   0.820   8.096  0.2354 -0.6633  0.2220
  161SAPE  H18R18074   4.418   0.852   8.040  1.4327  1.3368 -0.6950
  161SAPE  H18S18075   4.578   0.799   8.011 -1.8687 -0.0615 -1.7536
  161SAPE  C21918076   4.578   0.936   8.164 -0.0389 -0.5194 -0.6133
  161SAPE  H19R18077   4.659   0.904   8.233  0.0055 -0.6134 -0.7090
  161SAPE  H19S18078   4.500   0.982   8.228 -0.7361  0.8800 -2.3874
  161SAPE  C22018079   4.630   1.042   8.065 -0.2024  0.4904 -0.3331
  161SAPE  H20R18080   4.670   1.127   8.125  0.3052 -0.4856  0.7540
  161SAPE  H20S18081   4.541   1.083   8.011 -0.1094  0.9883 -0.1061
  161SAPE  H20T18082   4.700   0.998   7.991 -0.6848 -0.7104 -0.1062
  161SAPE   C3318083   4.992   0.432   6.763  0.3017  0.1456 -0.0760
  161SAPE   H3X18084   5.032   0.424   6.867 -1.8166  0.8185  0.8543
  161SAPE   H3Y18085   5.049   0.361   6.699  1.0851  0.5708  0.1371
  161SAPE   C3418086   4.840   0.381   6.779 -0.0316 -0.3966  0.0908
  161SAPE   H4X18087   4.789   0.381   6.680 -0.2456  0.7258  0.1825
  161SAPE   H4Y18088   4.776   0.456   6.828  0.2354 -1.1943  1.7088
  161SAPE   C3518089   4.832   0.245   6.850 -0.2615  0.4822 -0.1311
  161SAPE   H5X18090   4.899   0.178   6.791 -0.7205 -1.7813  1.7853
  161SAPE   H5Y18091   4.725   0.214   6.848  0.3684 -1.9775  0.5565
  161SAPE   C3618092   4.866   0.235   6.995  0.3740  0.0180  0.1030
  161SAPE   H6X18093   4.962   0.288   7.012 -0.5755  1.0509  2.5879
  161SAPE   H6Y18094   4.894   0.130   7.018  3.2406  0.6422 -0.1448
  161SAPE   C3718095   4.756   0.283   7.089 -0.5280  0.2539 -0.1916
  161SAPE   H7X18096   4.663   0.222   7.087 -0.8697  0.7862 -1.0283
  161SAPE   H7Y18097   4.733   0.388   7.058  3.6254  0.8323 -1.8821
  161SAPE   C3818098   4.821   0.283   7.225 -0.7425  0.0459 -0.0430
  161SAPE   H8X18099   4.893   0.368   7.231 -0.7047  0.0904 -1.0052
  161SAPE   H8Y18100   4.875   0.187   7.242 -0.1328  0.2318 -0.8698
  161SAPE   C3918101   4.724   0.281   7.349 -0.1413 -0.0130 -0.0580
  161SAPE   H9X18102   4.652   0.199   7.327  0.1932 -0.6952  1.2316
  161SAPE   H9Y18103   4.683   0.384   7.360  1.9350  0.7640  0.8235
  161SAPE  C31018104   4.787   0.231   7.479 -0.1727  0.8697  0.9504
  161SAPE  H10X18105   4.864   0.309   7.502 -0.6440  1.7069 -0.2111
  161SAPE  H10Y18106   4.823   0.126   7.470  0.1057  0.9324  1.2926
  161SAPE  C31118107   4.693   0.240   7.603  0.2405  0.2279  0.3375
  161SAPE  H11X18108   4.604   0.175   7.590  1.5007 -1.6814  0.8624
  161SAPE  H11Y18109   4.657   0.345   7.608  1.6000  0.6565  1.7798
  161SAPE  C31218110   4.778   0.204   7.725 -0.5252  0.2983 -0.2803
  161SAPE  H12X18111   4.878   0.252   7.715 -0.6844  0.5726 -0.5787
  161SAPE  H12Y18112   4.789   0.094   7.729 -1.3798  0.1511 -1.6775
  161SAPE  C31318113   4.722   0.265   7.858 -0.6966 -0.0345  0.2544
  161SAPE  H13X18114   4.632   0.204   7.884 -1.1788 -0.9567 -3.1439
  161SAPE  H13Y18115   4.693   0.372   7.849  0.1496  0.1365 -0.5973
  161SAPE  C31418116   4.821   0.244   7.976  0.6363 -0.0762  0.1703
  161SAPE  H14X18117   4.914   0.301   7.955  1.0115 -0.6999  0.1239
  161SAPE  H14Y18118   4.853   0.138   7.988 -1.4786 -0.7433  0.3600
  161SAPE  C31518119   4.776   0.297   8.110  0.0234  0.1493  0.0724
  161SAPE  H15X18120   4.765   0.407   8.108 -1.9560 -0.0092 -1.2798
  161SAPE  H15Y18121   4.857   0.262   8.178  1.2347 -3.8054 -3.0248
  161SAPE  C31618122   4.638   0.236   8.149  0.1792  1.2054  0.1786
  161SAPE  H16X18123   4.645   0.126   8.157 -0.6440  0.8746 -2.4106
  161SAPE  H16Y18124   4.551   0.249   8.081 -1.6442 -0.3487  2.0842
  161SAPE  C31718125   4.579   0.299   8.279  0.2489 -0.3307  0.2066
  161SAPE  H17X18126   4.471   0.275   8.290 -0.2000  0.2167 -2.3540
  161SAPE  H17Y18127   4.583   0.409   8.264 -0.8852 -0.3391 -0.2689
  161SAPE  C31818128   4.657   0.266   8.405  0.2623  0.0250  0.4457
  161SAPE  H18X18129   4.596   0.294   8.493 -0.1448 -0.8015  0.4331
  161SAPE  H18Y18130   4.756   0.316   8.407  0.5098 -0.4073 -0.3293
  161SAPE  H18Z18131   4.681   0.157   8.404 -0.8408 -0.2531 -1.5548
  162SAPE     N18132   4.543   2.713   5.823 -0.0166  0.0195 -0.0162
  162SAPE   HN118133   4.540   2.816   5.814 -0.4717  0.3103  2.5916
  162SAPE   HN218134   4.592   2.692   5.912 -1.7053  2.3806  1.5903
  162SAPE   HN318135   4.610   2.683   5.750  0.9759  1.5955  0.2012
  162SAPE   C1218136   4.402   2.657   5.816 -0.4319 -0.1232 -0.3930
  162SAPE  H12A18137   4.376   2.638   5.710 -1.4148 -0.0909 -0.1656
  162SAPE  H12B18138   4.324   2.731   5.845  1.0417  2.0470 -1.6063
  162SAPE   C1118139   4.390   2.530   5.905 -0.4857  0.0224  0.0562
  162SAPE  H11A18140   4.287   2.493   5.888 -1.6030  0.6286  4.4155
  162SAPE  H11B18141   4.415   2.563   6.008  0.7206 -1.1136  0.1568
  162SAPE     P18142   4.483   2.291   5.934 -0.0273  0.2961 -0.4882
  162SAPE   O1318143   4.356   2.239   5.880  0.3934  0.3940  0.2573
  162SAPE   O1418144   4.608   2.219   5.897 -0.6361 -1.2016 -0.3336
  162SAPE   O1218145   4.498   2.437   5.884  0.1035  0.3882 -0.0394
  162SAPE   O1118146   4.466   2.304   6.093  0.4124  1.0821  0.3011
  162SAPE    C118147   4.438   2.188   6.174  1.2414 -0.1378 -0.4022
  162SAPE    HA18148   4.344   2.211   6.230  1.9765  4.7113 -0.7339
  162SAPE    HB18149   4.435   2.100   6.107  0.6353  1.4554 -2.5949
  162SAPE    C218150   4.539   2.176   6.289  0.1147  0.8545  0.4202
  162SAPE    HS18151   4.523   2.083   6.348 -1.7191  0.0703 -1.1936
  162SAPE   O2118152   4.558   2.294   6.364  0.1453 -0.2096 -0.3478
  162SAPE   C2118153   4.459   2.315   6.444 -0.4923  0.7333 -0.0716
  162SAPE   O2218154   4.366   2.239   6.460  0.3563 -0.1145 -0.1074
  162SAPE   C2218155   4.492   2.441   6.520  0.0284  0.8122  0.3760
  162SAPE   H2R18156   4.577   2.488   6.465 -0.3126 -0.3647 -1.2734
  162SAPE   H2S18157   4.409   2.514   6.510 -0.6035  0.0564 -0.0742
  162SAPE    C318158   4.679   2.124   6.238  0.3467 -0.1744 -0.3120
  162SAPE    HX18159   4.720   2.185   6.156  0.7667  0.1116  0.1082
  162SAPE    HY18160   4.658   2.025   6.192 -0.7798  0.3607 -0.9830
  162SAPE   O3118161   4.767   2.108   6.350  0.3274 -0.3799  0.0230
  162SAPE   C3118162   4.867   2.188   6.367  0.1034 -0.0298  0.3216
  162SAPE   O3218163   4.902   2.279   6.292 -0.1188  0.4813 -0.0436
  162SAPE   C3218164   4.923   2.155   6.509  0.1787  0.3747  0.3213
  162SAPE   H2X18165   4.971   2.057   6.495  0.2396  0.2195  1.4829
  162SAPE   H2Y18166   4.837   2.139   6.578  0.1688 -1.8842 -0.1426
  162SAPE   C2318167   4.530   2.431   6.667 -0.0246  0.1984 -0.7358
  162SAPE   H3R18168   4.554   2.537   6.693 -0.4108  1.4077 -4.6533
  162SAPE   H3S18169   4.620   2.367   6.681  1.5971  2.1325 -1.6305
  162SAPE   C2418170   4.416   2.373   6.757 -0.1690  0.0391 -0.1830
  162SAPE   H4R18171   4.487   2.334   6.834  1.5608 -1.9882 -2.6166
  162SAPE   H4S18172   4.365   2.279   6.728 -0.1313 -0.0797  0.1278
  162SAPE   C2518173   4.309   2.475   6.800 -0.1689 -0.3327  0.8752
  162SAPE   H5R18174   4.262   2.530   6.717  0.0321  0.7029  1.4272
  162SAPE   C2618175   4.273   2.499   6.929 -0.0896 -0.6573 -0.4839
  162SAPE   H6R18176   4.210   2.586   6.954 -1.4976 -2.3533  2.3982
  162SAPE   C2718177   4.343   2.436   7.048 -0.6679  0.0631  0.6113
  162SAPE   H7R18178   4.421   2.489   7.105  0.5310 -2.6949  1.7082
  162SAPE   H7S18179   4.404   2.352   7.006 -1.1295 -0.9582  1.9158
  162SAPE   C2818180   4.245   2.376   7.148  0.6319 -0.8374 -0.3195
  162SAPE   H8R18181   4.177   2.300   7.109  0.2623 -1.4517  1.4165
  162SAPE   C2918182   4.217   2.437   7.266 -0.0953 -0.0418  0.0887
  162SAPE   H9R18183   4.143   2.385   7.329 -2.0811  0.7950 -1.4324
  162SAPE  C21018184   4.274   2.563   7.335  0.2313  0.3955  0.1050
  162SAPE  H10R18185   4.325   2.622   7.256  0.0891  0.4773  0.0742
  162SAPE  H10S18186   4.356   2.537   7.406  2.1547 -0.2354 -2.2050
  162SAPE  C21118187   4.171   2.649   7.400  0.1603 -0.3714  0.1774
  162SAPE  H11R18188   4.139   2.731   7.334  1.8852 -0.6405 -1.0616
  162SAPE  C21218189   4.113   2.639   7.523 -0.2460 -0.0634  0.6079
  162SAPE  H12R18190   4.034   2.708   7.556  0.9271  1.4863  0.2741
  162SAPE  C21318191   4.144   2.520   7.611 -0.3276 -0.6299  0.6837
  162SAPE  H13R18192   4.209   2.444   7.561 -1.7655 -2.7698  1.9001
  162SAPE  H13S18193   4.049   2.465   7.626 -1.2970  0.4485 -1.0973
  162SAPE  C21418194   4.223   2.556   7.738 -0.3682 -0.0311  0.2707
  162SAPE  H14R18195   4.329   2.583   7.724 -0.5972  0.4990 -0.5362
  162SAPE  C21518196   4.168   2.573   7.860 -0.2083 -0.9899 -0.2866
  162SAPE  H15R18197   4.230   2.613   7.942 -1.1538 -0.4049  0.1490
  162SAPE  C21618198   4.025   2.539   7.898 -0.8323  0.0796  0.4425
  162SAPE  H16R18199   3.964   2.488   7.821 -3.0332  0.7657  1.6470
  162SAPE  H16S18200   3.972   2.632   7.926 -1.3388 -0.3812  1.0295
  162SAPE  C21718201   4.026   2.443   8.023  0.0110 -0.2459  0.3549
  162SAPE  H17R18202   4.104   2.364   8.015  0.1987 -0.5096  3.5980
  162SAPE  H17S18203   3.935   2.381   8.041 -0.4907  0.4386  0.2235
  162SAPE  C21818204   4.062   2.518   8.156 -1.1221  0.1147 -0.1528
  162SAPE  H18R18205   4.156   2.575   8.142  0.6229 -2.1553  1.5385
  162SAPE  H18S18206   4.081   2.431   8.223 -1.7731 -1.4226 -1.8514
  162SAPE  C21918207   3.939   2.591   8.219 -0.7581 -0.9769  0.4556
  162SAPE  H19R18208   3.848   2.529   8.210 -1.3627 -0.2824  1.5206
  162SAPE  H19S18209   3.931   2.687   8.163  2.1833 -1.1870 -0.4900
  162SAPE  C22018210   3.958   2.631   8.374  0.3191  0.3351 -0.1639
  162SAPE  H20R18211   3.856   2.653   8.413  1.2281  1.4140  1.7401
  162SAPE  H20S18212   4.034   2.710   8.391 -0.9313  1.3355  0.9748
  162SAPE  H20T18213   3.999   2.550   8.438  0.0220  2.3661  2.7971
  162SAPE   C3318214   5.029   2.255   6.565 -0.4257  0.5036  1.1960
  162SAPE   H3X18215   5.077   2.312   6.483 -1.8468  2.9871  1.9919
  162SAPE   H3Y18216   5.102   2.199   6.626 -0.1048 -0.6511 -0.1775
  162SAPE   C3418217   4.969   2.356   6.663 -0.2701 -0.3055  0.3043
  162SAPE   H4X18218   4.874   2.394   6.620 -1.2746 -1.3002  1.5283
  162SAPE   H4Y18219   5.036   2.445   6.671 -2.1067  1.2825 -1.0338
  162SAPE   C3518220   4.941   2.285   6.797  0.0539  1.1455 -0.4773
  162SAPE   H5X18221   5.035   2.249   6.843 -0.3313  1.6848  0.7875
  162SAPE   H5Y18222   4.873   2.199   6.783 -1.4700  2.4508 -1.5395
  162SAPE   C3618223   4.869   2.375   6.898 -0.3673  0.0808 -0.0526
  162SAPE   H6X18224   4.782   2.420   6.846 -1.3897  0.4704  1.8909
  162SAPE   H6Y18225   4.934   2.459   6.929  0.2496  0.5236 -2.3455
  162SAPE   C3718226   4.809   2.309   7.023  0.0557 -0.6352 -0.8772
  162SAPE   H7X18227   4.888   2.249   7.072  4.5433  4.7034 -0.5427
  162SAPE   H7Y18228   4.732   2.240   6.981  0.5069 -0.6574 -1.6921
  162SAPE   C3818229   4.756   2.410   7.128 -0.0286  0.0113 -0.4131
  162SAPE   H8X18230   4.662   2.453   7.086 -0.7447 -1.2927 -0.1947
  162SAPE   H8Y18231   4.834   2.489   7.132  0.8297 -0.8706  0.6337
  162SAPE   C3918232   4.735   2.352   7.267  0.0033 -0.0333 -0.2223
  162SAPE   H9X18233   4.719   2.427   7.347 -0.8405  1.5380 -1.7966
  162SAPE   H9Y18234   4.838   2.318   7.294 -0.4858 -1.7082 -0.3364
  162SAPE  C31018235   4.633   2.238   7.280 -1.2628 -0.3098  0.7513
  162SAPE  H10X18236   4.655   2.168   7.197  0.6511  1.3421 -0.2096
  162SAPE  H10Y18237   4.531   2.280   7.268 -0.3124  2.5004  1.6979
  162SAPE  C31118238   4.634   2.169   7.415 -0.1098  0.6654  0.5787
  162SAPE  H11X18239   4.735   2.166   7.461 -0.1410 -1.7623  0.6055
  162SAPE  H11Y18240   4.595   2.065   7.405 -3.4549  1.8298  0.3144
  162SAPE  C31218241   4.544   2.230   7.520 -0.4099  0.8268 -0.7153
  162SAPE  H12X18242   4.439   2.196   7.503 -0.1372  0.3559 -1.5246
  162SAPE  H12Y18243   4.556   2.340   7.513 -0.1155  0.8985  0.6493
  162SAPE  C31318244   4.578   2.191   7.667  0.6269  0.4691 -0.0349
  162SAPE  H13X18245   4.682   2.221   7.693  0.5344  0.4941  0.3184
  162SAPE  H13Y18246   4.583   2.081   7.684  1.9505  0.6587  0.9684
  162SAPE  C31418247   4.485   2.258   7.772 -0.4988 -0.1573  0.4848
  162SAPE  H14X18248   4.379   2.230   7.757 -0.8700  0.6279  1.5093
  162SAPE  H14Y18249   4.481   2.365   7.742  1.5147 -0.6923 -2.0890
  162SAPE  C31518250   4.521   2.243   7.920  0.0511 -0.0018  0.4984
  162SAPE  H15X18251   4.627   2.278   7.914  0.5196 -1.4159 -0.1091
  162SAPE  H15Y18252   4.513   2.134   7.939 -1.2871  0.3950  2.5427
  162SAPE  C31618253   4.438   2.319   8.017 -0.0347  0.0641 -0.4858
  162SAPE  H16X18254   4.333   2.282   8.025  0.2128 -0.7180 -0.7227
  162SAPE  H16Y18255   4.426   2.428   8.001  3.8019  0.7775  0.6137
  162SAPE  C31718256   4.482   2.294   8.161  0.0101  0.3878  0.4609
  162SAPE  H17X18257   4.592   2.311   8.173 -0.1251  1.0943  0.7740
  162SAPE  H17Y18258   4.455   2.191   8.193 -0.6559  0.7804  1.2031
  162SAPE  C31818259   4.407   2.374   8.270 -0.0651 -0.1470  0.1922
  162SAPE  H18X18260   4.451   2.475   8.286  0.5618 -0.3459 -0.2398
  162SAPE  H18Y18261   4.417   2.321   8.367 -0.0243 -1.0154 -0.2761
  162SAPE  H18Z18262   4.298   2.384   8.251  0.0271 -1.1669 -0.9314
  163SAPE     N18263   1.624   2.474   6.158 -0.1298 -0.0622  0.4702
  163SAPE   HN118264   1.678   2.400   6.109  1.6886  0.1406  2.0193
  163SAPE   HN218265   1.644   2.566   6.115 -0.8358  0.9141  2.1292
  163SAPE   HN318266   1.662   2.470   6.255  0.2753  2.7702  0.5249
  163SAPE   C1218267   1.481   2.428   6.177 -0.1334 -0.6510 -0.3599
  163SAPE  H12A18268   1.424   2.447   6.084 -3.8143 -1.4490  1.5660
  163SAPE  H12B18269   1.439   2.498   6.252 -0.0921 -0.8556 -0.1456
  163SAPE   C1118270   1.477   2.290   6.225 -0.7222 -0.2915  0.1507
  163SAPE  H11A18271   1.491   2.214   6.146 -0.7798  1.4701 -1.6459
  163SAPE  H11B18272   1.372   2.273   6.257 -0.9091  1.4199  0.5524
  163SAPE     P18273   1.629   2.143   6.376 -0.0767  0.4724  0.3246
  163SAPE   O1318274   1.559   2.037   6.308  0.0582  1.0831  0.1406
  163SAPE   O1418275   1.778   2.144   6.366 -0.2148  0.1841  0.4615
  163SAPE   O1218276   1.573   2.279   6.333  0.1289  0.1714  0.2754
  163SAPE   O1118277   1.602   2.134   6.533  0.0408  0.6344 -0.9610
  163SAPE    C118278   1.492   2.199   6.591  1.1144  0.1519 -0.2253
  163SAPE    HA18279   1.405   2.196   6.522  0.1049  0.4731  0.9953
  163SAPE    HB18280   1.454   2.142   6.679 -0.6035 -1.0010 -1.6347
  163SAPE    C218281   1.505   2.351   6.632 -0.8333  0.1520  0.3172
  163SAPE    HS18282   1.547   2.415   6.552 -2.0126 -1.6495 -1.8552
  163SAPE   O2118283   1.581   2.346   6.756  0.1594  0.0723  0.5144
  163SAPE   C2118284   1.693   2.423   6.757  0.2778 -0.1756 -0.4359
  163SAPE   O2218285   1.750   2.466   6.658  0.2293 -0.4407 -0.5372
  163SAPE   C2218286   1.734   2.446   6.904  0.2722 -0.1313 -0.3441
  163SAPE   H2R18287   1.771   2.350   6.948 -0.1642  0.0989  0.5521
  163SAPE   H2S18288   1.820   2.516   6.902  2.5114 -2.7220 -1.2701
  163SAPE    C318289   1.368   2.417   6.665 -0.3812  0.4343 -0.2212
  163SAPE    HX18290   1.344   2.391   6.770  2.1515 -0.0555  0.3116
  163SAPE    HY18291   1.288   2.382   6.597 -0.4862 -1.0840  0.6479
  163SAPE   O3118292   1.382   2.556   6.663 -0.3320  0.0026  0.2969
  163SAPE   C3118293   1.338   2.623   6.556  0.0090 -0.3891  0.0724
  163SAPE   O3218294   1.287   2.572   6.457  0.5333  0.3242  0.4851
  163SAPE   C3218295   1.362   2.767   6.579  0.1798 -0.1274  0.0810
  163SAPE   H2X18296   1.391   2.818   6.485 -0.0619 -0.1296  0.0025
  163SAPE   H2Y18297   1.453   2.779   6.640  1.7903 -1.2771 -1.9537
  163SAPE   C2318298   1.624   2.505   6.994 -0.3833 -0.6031  0.6143
  163SAPE   H3R18299   1.531   2.446   6.978 -0.4998  0.0213 -1.3657
  163SAPE   H3S18300   1.587   2.607   6.969 -2.0715 -1.4717 -0.7229
  163SAPE   C2418301   1.649   2.498   7.145  0.3345 -0.9902 -0.3474
  163SAPE   H4R18302   1.571   2.562   7.193  2.9683  3.2276 -1.0969
  163SAPE   H4S18303   1.745   2.547   7.170  1.1301 -2.6176 -0.1272
  163SAPE   C2518304   1.648   2.361   7.205 -0.0281  0.2834  0.8897
  163SAPE   H5R18305   1.562   2.302   7.169 -0.0547 -1.2357  3.2030
  163SAPE   C2618306   1.737   2.288   7.280  0.2769 -0.0594  0.1399
  163SAPE   H6R18307   1.709   2.182   7.295 -1.5935  0.4578  0.5979
  163SAPE   C2718308   1.860   2.340   7.339  0.4507  0.3000 -0.3103
  163SAPE   H7R18309   1.850   2.450   7.339 -0.6558  0.2473 -2.7260
  163SAPE   H7S18310   1.955   2.327   7.282  0.4498  0.8381 -0.4398
  163SAPE   C2818311   1.870   2.284   7.480  0.8042  0.1277  0.1664
  163SAPE   H8R18312   1.919   2.186   7.491  1.4306  0.4179  0.0025
  163SAPE   C2918313   1.794   2.323   7.589 -0.2092  0.4681 -0.1226
  163SAPE   H9R18314   1.804   2.276   7.688  1.1035  1.8067  0.4236
  163SAPE  C21018315   1.712   2.450   7.606 -0.0349  0.8310  0.1737
  163SAPE  H10R18316   1.603   2.438   7.624 -0.0924 -0.5966 -0.8729
  163SAPE  H10S18317   1.730   2.508   7.513  2.8153 -0.3880 -0.1273
  163SAPE  C21118318   1.775   2.529   7.717  0.3436  0.0450  0.2221
  163SAPE  H11R18319   1.722   2.523   7.813 -0.9127  2.3683 -0.2678
  163SAPE  C21218320   1.873   2.620   7.702 -0.5674 -0.6093  0.1420
  163SAPE  H12R18321   1.905   2.683   7.787 -1.5654 -1.3907  1.1410
  163SAPE  C21318322   1.946   2.645   7.578  0.2014 -0.9378  0.2910
  163SAPE  H13R18323   1.974   2.547   7.535 -3.0264 -1.0885 -1.8368
  163SAPE  H13S18324   2.036   2.705   7.605  0.2033 -0.6898 -0.2647
  163SAPE  C21418325   1.856   2.724   7.477 -0.2792 -0.2917 -0.0402
  163SAPE  H14R18326   1.759   2.764   7.512  0.6844  1.2169  1.0553
  163SAPE  C21518327   1.910   2.791   7.371  0.3726 -0.2564 -0.0834
  163SAPE  H15R18328   1.840   2.841   7.303 -0.5032 -0.8100  0.3916
  163SAPE  C21618329   2.054   2.760   7.329 -0.0847  0.4188  0.1799
  163SAPE  H16R18330   2.098   2.660   7.348 -1.0396 -0.4232 -1.7757
  163SAPE  H16S18331   2.128   2.817   7.390  3.8046 -2.1645 -1.7570
  163SAPE  C21718332   2.084   2.785   7.179  0.1348 -0.3379 -0.3534
  163SAPE  H17R18333   2.194   2.792   7.165  0.3347 -0.3077  1.1508
  163SAPE  H17S18334   2.053   2.884   7.141  1.2794 -0.1768 -0.9008
  163SAPE  C21818335   2.039   2.668   7.086 -0.8661 -0.5317 -0.0450
  163SAPE  H18R18336   1.931   2.688   7.071 -0.9336 -0.7732  0.1126
  163SAPE  H18S18337   2.065   2.574   7.140  0.4651  0.5852  1.3433
  163SAPE  C21918338   2.109   2.671   6.944  0.5144  0.1890 -0.5813
  163SAPE  H19R18339   2.215   2.670   6.975  0.0612 -0.4661  1.0236
  163SAPE  H19S18340   2.098   2.775   6.906 -0.4976  0.3826  0.2009
  163SAPE  C22018341   2.077   2.564   6.840  0.9044 -0.1702 -0.0507
  163SAPE  H20R18342   1.996   2.610   6.780  1.0806  0.3386  0.0876
  163SAPE  H20S18343   2.044   2.466   6.880  0.5323  0.2368  0.6503
  163SAPE  H20T18344   2.165   2.540   6.776  0.7928 -2.5792  0.6168
  163SAPE   C3318345   1.240   2.840   6.645  0.8154  0.5258 -0.9506
  163SAPE   H3X18346   1.157   2.854   6.573  0.7164 -2.5292 -1.5717
  163SAPE   H3Y18347   1.279   2.942   6.666  0.4705  0.5460 -0.3917
  163SAPE   C3418348   1.185   2.777   6.776  0.2960  0.2748 -0.2264
  163SAPE   H4X18349   1.180   2.666   6.776  0.8400  0.2418 -0.8946
  163SAPE   H4Y18350   1.082   2.818   6.782  0.0568 -0.4898  1.5344
  163SAPE   C3518351   1.260   2.825   6.905  0.4180 -0.0234  0.6362
  163SAPE   H5X18352   1.251   2.934   6.925 -2.4473 -0.1828  0.5385
  163SAPE   H5Y18353   1.365   2.803   6.875 -0.7196 -1.7637 -2.4718
  163SAPE   C3618354   1.222   2.735   7.025 -0.1633 -0.4640  0.4343
  163SAPE   H6X18355   1.234   2.625   7.009  0.4130 -0.7914  2.8040
  163SAPE   H6Y18356   1.123   2.767   7.066  0.0172 -0.7291  1.0866
  163SAPE   C3718357   1.311   2.762   7.140 -0.0853 -0.3112  0.0732
  163SAPE   H7X18358   1.415   2.746   7.105  0.4200  2.3269  0.1540
  163SAPE   H7Y18359   1.284   2.694   7.223 -0.3611  0.4508  0.6274
  163SAPE   C3818360   1.317   2.912   7.198  0.6936 -0.0437  0.3824
  163SAPE   H8X18361   1.225   2.938   7.255  2.2282  0.9796  2.5098
  163SAPE   H8Y18362   1.329   2.980   7.111  0.3403  1.0990  1.2055
  163SAPE   C3918363   1.427   2.939   7.295 -0.5264 -0.6159 -0.2168
  163SAPE   H9X18364   1.423   3.049   7.307 -0.1313 -0.6910  0.7084
  163SAPE   H9Y18365   1.533   2.913   7.270 -0.3625  0.5158 -0.7595
  163SAPE  C31018366   1.394   2.880   7.439  0.4703 -0.1177  0.1424
  163SAPE  H10X18367   1.403   2.770   7.445  3.7278  0.0954  1.0235
  163SAPE  H10Y18368   1.289   2.899   7.471 -0.0125  2.3292 -2.5075
  163SAPE  C31118369   1.491   2.951   7.541  0.3809 -0.3858 -0.5846
  163SAPE  H11X18370   1.499   3.061   7.529  0.6159 -0.1940  1.0934
  163SAPE  H11Y18371   1.587   2.896   7.531 -0.3116 -1.7906  0.2172
  163SAPE  C31218372   1.459   2.930   7.690  0.4441  1.0636 -0.5282
  163SAPE  H12X18373   1.373   2.995   7.717  0.6654  1.0932  0.1194
  163SAPE  H12Y18374   1.542   2.967   7.754  0.1030  0.4707  0.2627
  163SAPE  C31318375   1.436   2.786   7.722  0.0531  0.2488  0.2828
  163SAPE  H13X18376   1.526   2.723   7.705  0.3203  0.0595  2.1572
  163SAPE  H13Y18377   1.351   2.731   7.677  0.7570 -0.0488 -0.7162
  163SAPE  C31418378   1.425   2.767   7.875 -0.1665 -0.5549 -0.4023
  163SAPE  H14X18379   1.524   2.788   7.920 -1.2914  3.2861  0.6050
  163SAPE  H14Y18380   1.401   2.661   7.902 -1.0752 -0.1858  0.2938
  163SAPE  C31518381   1.337   2.862   7.948 -0.4615 -0.6521  0.5443
  163SAPE  H15X18382   1.234   2.848   7.907 -0.1964 -0.3227 -0.2434
  163SAPE  H15Y18383   1.349   2.970   7.924 -2.2205 -0.5802 -0.1704
  163SAPE  C31618384   1.333   2.842   8.097  0.0567 -0.0981 -1.1316
  163SAPE  H16X18385   1.255   2.913   8.131  0.0535 -0.0537 -1.2287
  163SAPE  H16Y18386   1.431   2.891   8.120  0.6074 -2.1584  1.3101
  163SAPE  C31718387   1.315   2.706   8.154  0.1802 -0.3609  0.4651
  163SAPE  H17X18388   1.300   2.719   8.263  0.8610 -0.0272  0.5289
  163SAPE  H17Y18389   1.404   2.649   8.122  0.9005  1.0581 -0.1868
  163SAPE  C31818390   1.203   2.627   8.090 -0.3605  0.7341 -0.2043
  163SAPE  H18X18391   1.106   2.666   8.127 -1.4877 -0.5041 -1.7124
  163SAPE  H18Y18392   1.194   2.522   8.126 -3.9392  1.6024  2.0104
  163SAPE  H18Z18393   1.209   2.625   7.979 -0.2358  0.2734 -0.1928
  164SAPE     N18394   0.443   3.452   6.139 -0.0092  0.6043  1.2498
  164SAPE   HN118395   0.428   3.471   6.240 -0.8572  2.0252  0.8728
  164SAPE   HN218396   0.536   3.406   6.138 -0.3121 -0.1021 -0.9377
  164SAPE   HN318397   0.452   3.546   6.096 -1.6187  0.6650  0.9948
  164SAPE   C1218398   0.332   3.370   6.075  0.3088  0.0544  0.2118
  164SAPE  H12A18399   0.348   3.261   6.087 -1.1106 -0.1729  0.2957
  164SAPE  H12B18400   0.327   3.392   5.966 -2.2124  0.6246  0.3631
  164SAPE   C1118401   0.195   3.398   6.142 -0.4424 -0.3638 -0.2384
  164SAPE  H11A18402   0.197   3.359   6.246  1.4964 -0.6396 -0.3458
  164SAPE  H11B18403   0.115   3.352   6.081 -1.3112  1.2751 -0.3898
  164SAPE     P18404   0.047   3.603   6.195  0.2654  0.0291 -0.0637
  164SAPE   O1318405   0.075   3.747   6.189 -0.6130 -0.3033 -0.5945
  164SAPE   O1418406  -0.063   3.555   6.107  0.3730 -0.1998  0.2736
  164SAPE   O1218407   0.183   3.542   6.145 -0.3052 -0.0596  0.3795
  164SAPE   O1118408   0.031   3.554   6.342 -0.6284 -0.0071  0.0217
  164SAPE    C118409   0.133   3.591   6.433 -0.5044  0.0074 -0.6644
  164SAPE    HA18410   0.215   3.516   6.430  0.4919  0.9174  1.5254
  164SAPE    HB18411   0.177   3.690   6.410 -0.7800 -0.2385 -2.3791
  164SAPE    C218412   0.061   3.615   6.570  0.0181 -0.0006  0.7042
  164SAPE    HS18413   0.034   3.517   6.616 -0.5208  0.6747  1.8706
  164SAPE   O2118414  -0.051   3.693   6.544  0.8670 -0.8863  0.9704
  164SAPE   C2118415  -0.171   3.628   6.545 -0.5566 -0.2037 -0.1049
  164SAPE   O2218416  -0.184   3.509   6.554  0.8858 -0.1882 -0.1170
  164SAPE   C2218417  -0.278   3.729   6.535 -0.1127 -0.1654 -0.7392
  164SAPE   H2R18418  -0.240   3.816   6.478  1.5736 -0.6940 -0.4885
  164SAPE   H2S18419  -0.364   3.679   6.487 -0.8261 -1.0860  1.3645
  164SAPE    C318420   0.159   3.686   6.672 -0.4534  0.5203 -0.3615
  164SAPE    HX18421   0.172   3.793   6.647  0.2240  0.8656  1.3090
  164SAPE    HY18422   0.258   3.638   6.658 -0.0221  0.6143  1.9264
  164SAPE   O3118423   0.126   3.672   6.813 -0.3223 -0.4519 -0.5105
  164SAPE   C3118424   0.049   3.766   6.861  0.2431 -0.2878 -0.8734
  164SAPE   O3218425   0.009   3.865   6.799 -0.2010 -0.0061 -0.1976
  164SAPE   C3218426   0.022   3.744   7.006 -0.1321 -0.4035 -0.5843
  164SAPE   H2X18427   0.102   3.791   7.067 -0.0797  0.0247 -0.9764
  164SAPE   H2Y18428   0.039   3.636   7.025  1.3203 -0.0352  0.4152
  164SAPE   C2318429  -0.325   3.774   6.680  0.0493 -0.1022  0.0499
  164SAPE   H3R18430  -0.242   3.833   6.724  0.1562  0.2136 -0.5720
  164SAPE   H3S18431  -0.352   3.695   6.753 -0.9961  1.3527  1.3070
  164SAPE   C2418432  -0.432   3.878   6.674 -0.7713 -0.1936  0.0128
  164SAPE   H4R18433  -0.399   3.962   6.609  2.1985  0.4686  2.1551
  164SAPE   H4S18434  -0.424   3.924   6.774  1.8888  2.7244 -1.3687
  164SAPE   C2518435  -0.574   3.853   6.634 -0.2858  0.4528  0.0836
  164SAPE   H5R18436  -0.590   3.801   6.538 -0.4412 -0.9555  0.8360
  164SAPE   C2618437  -0.679   3.854   6.721 -0.5849 -0.6311 -0.3542
  164SAPE   H6R18438  -0.780   3.835   6.682 -0.3950 -1.7652 -0.3127
  164SAPE   C2718439  -0.679   3.910   6.866 -0.5328  0.3239  0.7899
  164SAPE   H7R18440  -0.785   3.920   6.899 -1.3591 -1.9098 -0.9178
  164SAPE   H7S18441  -0.637   4.013   6.863 -0.7678  0.4298 -2.1367
  164SAPE   C2818442  -0.600   3.824   6.963 -0.6280 -0.2262  0.1596
  164SAPE   H8R18443  -0.547   3.742   6.911 -0.9468 -0.8891  0.8704
  164SAPE   C2918444  -0.609   3.837   7.097 -0.3756  0.2812  0.0508
  164SAPE   H9R18445  -0.548   3.769   7.158 -1.5523 -0.6861  0.1910
  164SAPE  C21018446  -0.688   3.931   7.179  0.0465  0.6698 -0.2881
  164SAPE  H10R18447  -0.791   3.893   7.197  0.0473  1.5768  1.9555
  164SAPE  H10S18448  -0.703   4.018   7.112  1.6875  0.6082 -0.7678
  164SAPE  C21118449  -0.624   3.966   7.308  0.5159 -0.0286  0.2011
  164SAPE  H11R18450  -0.516   3.987   7.301  0.8759 -2.0520 -1.3294
  164SAPE  C21218451  -0.672   3.953   7.426  0.9473 -0.3667 -0.0623
  164SAPE  H12R18452  -0.615   3.990   7.513 -0.8303  0.3863  0.8270
  164SAPE  C21318453  -0.810   3.904   7.456 -0.0171 -0.7048 -0.5069
  164SAPE  H13R18454  -0.827   3.796   7.435 -1.1613 -0.5346 -0.5312
  164SAPE  H13S18455  -0.896   3.942   7.398  1.9448 -1.1887 -4.0377
  164SAPE  C21418456  -0.842   3.913   7.600  0.2430 -0.3059  0.2475
  164SAPE  H14R18457  -0.887   4.010   7.623  0.7104  1.2286 -4.3175
  164SAPE  C21518458  -0.814   3.811   7.690  0.8905  0.3243  0.0387
  164SAPE  H15R18459  -0.852   3.820   7.793  1.1620  0.6124  0.1169
  164SAPE  C21618460  -0.754   3.672   7.663 -0.1359  0.7953  0.2034
  164SAPE  H16R18461  -0.677   3.639   7.736 -0.0099  0.8360  0.0877
  164SAPE  H16S18462  -0.700   3.667   7.566 -0.7152  2.3813 -0.2439
  164SAPE  C21718463  -0.861   3.551   7.665  0.2115 -0.0394  0.3515
  164SAPE  H17R18464  -0.896   3.538   7.770  1.3104 -0.0953  0.7326
  164SAPE  H17S18465  -0.813   3.457   7.632  0.4611 -0.5161  1.9745
  164SAPE  C21818466  -0.982   3.577   7.581 -0.4754 -0.3104  0.5441
  164SAPE  H18R18467  -0.957   3.620   7.482 -1.8409  0.6110  0.5740
  164SAPE  H18S18468  -1.042   3.654   7.633 -1.0148 -1.1957  1.2718
  164SAPE  C21918469  -1.081   3.459   7.567  0.4576 -0.4472 -0.0980
  164SAPE  H19R18470  -1.046   3.373   7.506  0.2530 -0.1013 -0.7079
  164SAPE  H19S18471  -1.165   3.504   7.510  0.6889  1.8797  1.2887
  164SAPE  C22018472  -1.141   3.410   7.705  0.8726  0.2120  0.1719
  164SAPE  H20R18473  -1.227   3.344   7.680 -0.1286  2.1124 -1.8096
  164SAPE  H20S18474  -1.174   3.498   7.765  0.0153  0.3874 -0.5387
  164SAPE  H20T18475  -1.056   3.354   7.750  0.8621 -1.0745 -1.3071
  164SAPE   C3318476  -0.111   3.790   7.048  0.5918  0.1003  0.2935
  164SAPE   H3X18477  -0.198   3.740   6.999  1.6041 -2.7016  1.1540
  164SAPE   H3Y18478  -0.102   3.898   7.026  2.0956  0.0211  0.4319
  164SAPE   C3418479  -0.145   3.780   7.203 -0.4710  0.2869  0.3448
  164SAPE   H4X18480  -0.229   3.847   7.233 -1.7072 -0.5229 -1.1616
  164SAPE   H4Y18481  -0.054   3.806   7.262 -0.4510 -1.5246  1.1627
  164SAPE   C3518482  -0.177   3.633   7.238  0.3983  0.2063  0.4964
  164SAPE   H5X18483  -0.143   3.613   7.342 -0.7983 -0.5085  0.7634
  164SAPE   H5Y18484  -0.126   3.559   7.172 -0.6212 -0.7649  0.7793
  164SAPE   C3618485  -0.330   3.600   7.225 -0.0913  0.2386 -0.2325
  164SAPE   H6X18486  -0.347   3.524   7.146  1.3640  0.0372 -0.3844
  164SAPE   H6Y18487  -0.368   3.692   7.176  1.5950 -0.0466 -2.2046
  164SAPE   C3718488  -0.398   3.598   7.364  0.0174 -0.6606  0.6459
  164SAPE   H7X18489  -0.508   3.609   7.356  0.1405  0.9245  0.8143
  164SAPE   H7Y18490  -0.357   3.680   7.428 -2.3700 -0.6785  2.3258
  164SAPE   C3818491  -0.375   3.470   7.444  0.2187 -0.4734  0.1222
  164SAPE   H8X18492  -0.270   3.442   7.425 -0.1776 -1.4752 -0.6159
  164SAPE   H8Y18493  -0.445   3.385   7.429 -3.1213  1.7662  1.6692
  164SAPE   C3918494  -0.388   3.514   7.598 -0.2358  1.2844 -0.0603
  164SAPE   H9X18495  -0.475   3.582   7.616  0.8328  3.3658 -2.1477
  164SAPE   H9Y18496  -0.296   3.572   7.621 -1.1582  2.1503  1.6535
  164SAPE  C31018497  -0.394   3.387   7.684  0.0364 -0.4234 -0.2630
  164SAPE  H10X18498  -0.299   3.329   7.676  0.5319  0.4601 -0.8917
  164SAPE  H10Y18499  -0.484   3.331   7.650 -0.2892 -1.3584  1.9730
  164SAPE  C31118500  -0.421   3.427   7.827 -0.5320 -0.2889 -0.2498
  164SAPE  H11X18501  -0.529   3.446   7.842 -0.0963  0.9290  1.6233
  164SAPE  H11Y18502  -0.372   3.523   7.851 -0.3357 -0.7448  1.2972
  164SAPE  C31218503  -0.380   3.312   7.922  0.8017 -0.0828  0.4301
  164SAPE  H12X18504  -0.273   3.303   7.949  0.7648 -2.3651 -0.0335
  164SAPE  H12Y18505  -0.414   3.215   7.880 -0.4343 -0.2229  1.6818
  164SAPE  C31318506  -0.449   3.326   8.059 -0.1468 -0.1183  0.4054
  164SAPE  H13X18507  -0.558   3.338   8.041 -0.1109 -0.7440 -0.2764
  164SAPE  H13Y18508  -0.403   3.411   8.113 -1.2746  0.8367 -0.0908
  164SAPE  C31418509  -0.434   3.200   8.147 -0.3754  0.7154  0.1525
  164SAPE  H14X18510  -0.327   3.174   8.167 -0.6095  1.0726  1.9626
  164SAPE  H14Y18511  -0.478   3.116   8.089 -0.7732  1.4609 -0.6374
  164SAPE  C31518512  -0.497   3.218   8.282  0.4439  0.1921  0.4936
  164SAPE  H15X18513  -0.522   3.119   8.327  2.4659 -0.1595  0.9383
  164SAPE  H15Y18514  -0.596   3.258   8.252 -0.3562 -2.3454 -0.5732
  164SAPE  C31618515  -0.409   3.312   8.377  0.0429  0.0520 -1.0115
  164SAPE  H16X18516  -0.407   3.413   8.332 -1.4467  0.6517  0.1993
  164SAPE  H16Y18517  -0.306   3.271   8.374  0.9102  2.1673 -3.0374
  164SAPE  C31718518  -0.469   3.331   8.523  0.0770  0.2438 -0.5873
  164SAPE  H17X18519  -0.414   3.414   8.572  1.5284 -1.6565  1.1825
  164SAPE  H17Y18520  -0.464   3.243   8.590  1.2240  1.3751  0.8682
  164SAPE  C31818521  -0.624   3.367   8.522  0.2329 -0.0632 -0.1582
  164SAPE  H18X18522  -0.678   3.291   8.462  3.6186 -2.1318 -0.8778
  164SAPE  H18Y18523  -0.640   3.456   8.458  0.3567 -0.6331 -0.9919
  164SAPE  H18Z18524  -0.670   3.380   8.622  0.2318  1.0171 -0.2800
  165SAPE     N18525   0.933   1.266   6.257  0.3761  0.7244  0.3145
  165SAPE   HN118526   0.842   1.217   6.246  0.8376  0.2682 -1.8386
  165SAPE   HN218527   0.999   1.233   6.185  0.7033 -0.5969  1.1795
  165SAPE   HN318528   0.971   1.221   6.343  0.4522  0.6566  0.2460
  165SAPE   C1218529   0.892   1.410   6.235  0.4270  0.3674  0.1457
  165SAPE  H12A18530   0.884   1.428   6.126 -0.3487  2.1798  0.4705
  165SAPE  H12B18531   0.976   1.473   6.272  1.0881  0.3278 -1.2186
  165SAPE   C1118532   0.764   1.441   6.311  0.3705 -0.0421 -0.0332
  165SAPE  H11A18533   0.734   1.548   6.300  0.9016  0.2287  1.0714
  165SAPE  H11B18534   0.773   1.421   6.420 -1.9783 -0.3689  0.1644
  165SAPE     P18535   0.496   1.388   6.286 -0.1272 -0.1138 -0.2293
  165SAPE   O1318536   0.430   1.332   6.165  0.2088  0.0901 -0.0575
  165SAPE   O1418537   0.459   1.335   6.417  0.4436 -0.2972 -0.5528
  165SAPE   O1218538   0.654   1.371   6.261  0.1446 -0.1107 -0.1824
  165SAPE   O1118539   0.489   1.547   6.292  0.3758  0.1468  0.3385
  165SAPE    C118540   0.362   1.616   6.307  0.7827  0.3278  0.1326
  165SAPE    HA18541   0.347   1.679   6.216 -0.7737 -0.2934 -0.0705
  165SAPE    HB18542   0.275   1.547   6.299  0.1594  1.1375 -0.2958
  165SAPE    C218543   0.337   1.691   6.437 -0.2130  0.7829  0.1888
  165SAPE    HS18544   0.420   1.765   6.439 -2.7052  3.9905 -2.5329
  165SAPE   O2118545   0.332   1.618   6.553  0.2017  0.2566 -0.1281
  165SAPE   C2118546   0.434   1.567   6.606 -0.0617 -0.6779  0.4573
  165SAPE   O2218547   0.554   1.584   6.578  0.2141  0.3897  0.1967
  165SAPE   C2218548   0.386   1.480   6.727  0.2331 -0.3735 -0.2107
  165SAPE   H2R18549   0.292   1.528   6.762  0.0011 -1.4386  0.6873
  165SAPE   H2S18550   0.372   1.380   6.682  0.2807  0.0690 -1.2259
  165SAPE    C318551   0.212   1.790   6.431 -0.9058  0.0530  0.9895
  165SAPE    HX18552   0.123   1.726   6.414  0.7227 -1.8577 -0.9361
  165SAPE    HY18553   0.220   1.850   6.338  2.3619  0.9550  1.7273
  165SAPE   O3118554   0.207   1.880   6.547  0.6072  0.7003  0.6647
  165SAPE   C3118555   0.088   1.947   6.541 -0.4390 -0.0802  0.0671
  165SAPE   O3218556  -0.005   1.932   6.468 -0.5687  0.4983  0.2914
  165SAPE   C3218557   0.096   2.058   6.643  1.0496 -0.4891  0.1076
  165SAPE   H2X18558   0.039   2.148   6.608  1.2336 -0.4467 -0.0818
  165SAPE   H2Y18559   0.197   2.101   6.660  0.0625  1.7250  0.7935
  165SAPE   C2318560   0.491   1.476   6.842  0.2800  0.6938 -0.3401
  165SAPE   H3R18561   0.585   1.434   6.800 -0.9224 -0.0673 -2.4330
  165SAPE   H3S18562   0.444   1.405   6.913 -2.4278  1.7544 -0.9387
  165SAPE   C2418563   0.510   1.612   6.911 -0.3547  0.7035 -0.2761
  165SAPE   H4R18564   0.418   1.640   6.967  0.7808 -0.0644  2.0727
  165SAPE   H4S18565   0.511   1.697   6.840 -1.4911  1.7327  0.8855
  165SAPE   C2518566   0.627   1.615   7.008  0.3351 -0.0900 -0.0172
  165SAPE   H5R18567   0.710   1.679   6.975  2.0710 -1.8401  0.7162
  165SAPE   C2618568   0.648   1.566   7.133  0.1602  0.0325  0.1427
  165SAPE   H6R18569   0.747   1.588   7.173 -0.0366 -1.1830  1.3606
  165SAPE   C2718570   0.556   1.481   7.218  0.6415 -0.2522  0.5984
  165SAPE   H7R18571   0.609   1.390   7.253  0.5535  0.0956  1.6904
  165SAPE   H7S18572   0.464   1.454   7.161  1.0805 -2.3085  0.7756
  165SAPE   C2818573   0.515   1.546   7.346 -0.5347 -0.1703  0.8633
  165SAPE   H8R18574   0.414   1.588   7.364 -0.4960 -0.5009  1.8981
  165SAPE   C2918575   0.602   1.564   7.454  0.3224  0.2266  0.1319
  165SAPE   H9R18576   0.550   1.606   7.541  0.9823  0.5905  0.3532
  165SAPE  C21018577   0.743   1.520   7.473  0.4414 -0.4393  0.0161
  165SAPE  H10R18578   0.795   1.601   7.529  0.7342 -0.4856 -0.1829
  165SAPE  H10S18579   0.798   1.502   7.379 -0.8754 -1.2273 -0.6367
  165SAPE  C21118580   0.745   1.392   7.553  0.5805  0.1457 -0.2424
  165SAPE  H11R18581   0.659   1.325   7.540  0.4289 -0.6299  3.4369
  165SAPE  C21218582   0.852   1.357   7.627  0.2085 -0.0114  0.3835
  165SAPE  H12R18583   0.843   1.271   7.695 -1.9582  0.4389  0.7492
  165SAPE  C21318584   0.969   1.440   7.661  0.4111  0.0811 -0.1529
  165SAPE  H13R18585   0.974   1.464   7.769 -3.5598 -0.9470  0.4187
  165SAPE  H13S18586   0.960   1.545   7.625 -2.1746 -0.1702 -0.4306
  165SAPE  C21418587   1.102   1.393   7.618 -0.7449 -0.1676 -0.2614
  165SAPE  H14R18588   1.123   1.409   7.511 -1.5167  0.1985 -0.3643
  165SAPE  C21518589   1.184   1.313   7.693  0.1848  0.4134  1.9812
  165SAPE  H15R18590   1.274   1.271   7.645 -0.7419 -1.2605  1.6310
  165SAPE  C21618591   1.169   1.280   7.834 -0.3971  0.5953 -0.3961
  165SAPE  H16R18592   1.200   1.180   7.871 -1.4582 -0.2763 -1.7735
  165SAPE  H16S18593   1.061   1.276   7.860 -0.2033 -1.4256  0.2701
  165SAPE  C21718594   1.231   1.388   7.927 -0.6621 -1.1004  0.4883
  165SAPE  H17R18595   1.195   1.489   7.896  0.5640 -1.1507 -1.3345
  165SAPE  H17S18596   1.342   1.398   7.924 -0.6929 -0.0534  1.8247
  165SAPE  C21818597   1.205   1.369   8.081 -0.3082 -0.7896 -0.8618
  165SAPE  H18R18598   1.268   1.439   8.140 -1.1668 -2.2659  2.0309
  165SAPE  H18S18599   1.241   1.266   8.101 -0.0807 -0.1031  3.1710
  165SAPE  C21918600   1.053   1.390   8.119 -0.2747 -0.0055 -0.1270
  165SAPE  H19R18601   1.008   1.290   8.098 -1.4638  0.3197  0.7598
  165SAPE  H19S18602   1.007   1.470   8.057  0.2548 -0.2844 -0.8915
  165SAPE  C22018603   1.041   1.422   8.270 -0.1169  0.2411  0.1053
  165SAPE  H20R18604   1.091   1.344   8.331  0.9661 -0.4559 -1.5966
  165SAPE  H20S18605   0.932   1.430   8.288 -0.1562  2.3766 -0.8031
  165SAPE  H20T18606   1.083   1.525   8.268  1.1344 -0.2163  1.6481
  165SAPE   C3318607   0.035   2.016   6.774 -0.6538 -0.1684  0.2517
  165SAPE   H3X18608  -0.075   1.997   6.776 -0.7361  0.2926  1.8733
  165SAPE   H3Y18609   0.050   2.104   6.840 -1.5895  0.9601 -0.9907
  165SAPE   C3418610   0.109   1.900   6.839  0.0052  0.1848  0.3426
  165SAPE   H4X18611   0.218   1.925   6.838 -0.0651  0.5437  1.0195
  165SAPE   H4Y18612   0.093   1.803   6.787 -0.8185  0.7477 -0.4733
  165SAPE   C3518613   0.070   1.881   6.989 -0.2643 -0.2820  0.1403
  165SAPE   H5X18614  -0.040   1.862   6.994 -0.3596 -0.1763 -1.3390
  165SAPE   H5Y18615   0.095   1.976   7.042 -1.3587  0.7872 -1.1771
  165SAPE   C3618616   0.145   1.766   7.064  0.4432  0.2491 -0.1271
  165SAPE   H6X18617   0.247   1.807   7.045  1.1655 -1.2387  0.4137
  165SAPE   H6Y18618   0.133   1.672   7.007 -0.6258  0.5666 -0.4448
  165SAPE   C3718619   0.108   1.754   7.218 -0.2597 -0.5403  0.3163
  165SAPE   H7X18620   0.170   1.676   7.269 -0.9151 -0.3723  1.3985
  165SAPE   H7Y18621   0.006   1.711   7.228  0.1373 -1.0539  3.0993
  165SAPE   C3818622   0.106   1.882   7.295 -0.0718  0.1859 -1.1002
  165SAPE   H8X18623   0.003   1.923   7.294  0.1345  0.7363 -0.5054
  165SAPE   H8Y18624   0.180   1.957   7.259  0.1298  0.8531  0.6008
  165SAPE   C3918625   0.144   1.860   7.440 -0.5243 -0.0789  0.2690
  165SAPE   H9X18626   0.242   1.806   7.438 -0.6618 -0.5062  2.6215
  165SAPE   H9Y18627   0.068   1.795   7.489 -0.0858 -0.8063  0.0036
  165SAPE  C31018628   0.154   1.990   7.520 -0.6055  0.5030 -0.4529
  165SAPE  H10X18629   0.064   2.049   7.491 -0.6577  0.1769 -0.9574
  165SAPE  H10Y18630   0.253   2.031   7.491  2.3337 -4.3970  1.3749
  165SAPE  C31118631   0.153   1.957   7.671 -0.0862  1.3854  0.1575
  165SAPE  H11X18632   0.237   1.886   7.687  0.4544  1.9233 -0.2581
  165SAPE  H11Y18633   0.061   1.902   7.701  1.8460 -1.4659  1.3107
  165SAPE  C31218634   0.167   2.083   7.749 -0.3915 -0.2543 -0.0087
  165SAPE  H12X18635   0.075   2.143   7.733  0.5626  0.3393 -4.6599
  165SAPE  H12Y18636   0.255   2.142   7.716 -1.4110  2.0052  1.1300
  165SAPE  C31318637   0.178   2.067   7.901  0.3218 -0.1384  0.6689
  165SAPE  H13X18638   0.167   2.168   7.946 -4.2367 -0.0690 -0.1372
  165SAPE  H13Y18639   0.279   2.025   7.922  1.7795  2.3160 -0.9135
  165SAPE  C31418640   0.072   1.981   7.967 -1.1784 -0.4232 -0.2857
  165SAPE  H14X18641   0.096   1.873   7.963 -0.2425 -0.3960  2.5389
  165SAPE  H14Y18642  -0.014   1.992   7.898 -1.0395  0.5114 -0.3183
  165SAPE  C31518643   0.039   2.031   8.107  0.0958 -0.1027  0.0473
  165SAPE  H15X18644   0.060   2.140   8.107  3.1991 -0.6229 -0.3308
  165SAPE  H15Y18645   0.096   1.976   8.185  2.6436  0.0646 -1.5796
  165SAPE  C31618646  -0.108   2.014   8.138  0.1902 -0.7842  0.2551
  165SAPE  H16X18647  -0.128   1.905   8.136  1.6319 -1.0488 -1.6578
  165SAPE  H16Y18648  -0.165   2.053   8.051  1.9341  2.7815  0.5244
  165SAPE  C31718649  -0.163   2.073   8.269  0.4155 -0.4241  0.3241
  165SAPE  H17X18650  -0.112   2.026   8.356  0.8397 -0.6195 -0.0286
  165SAPE  H17Y18651  -0.272   2.056   8.279  0.4256 -0.4920  0.3172
  165SAPE  C31818652  -0.143   2.224   8.275 -0.5232 -0.0988  0.2286
  165SAPE  H18X18653  -0.205   2.278   8.351  0.0592  1.6277 -0.4768
  165SAPE  H18Y18654  -0.169   2.277   8.181 -0.2858 -0.4323 -0.0259
  165SAPE  H18Z18655  -0.034   2.235   8.294 -0.8019  2.4516  0.7386
  166SAPE     N18656   5.639   5.650   6.020 -0.1359 -0.2680 -0.1425
  166SAPE   HN118657   5.560   5.660   6.087  0.6686 -0.6415  0.8782
  166SAPE   HN218658   5.608   5.677   5.924 -1.5660  1.8341  0.8327
  166SAPE   HN318659   5.653   5.547   6.021  1.4296 -0.1344  3.4367
  166SAPE   C1218660   5.773   5.717   6.053 -0.0701 -0.0998 -0.1674
  166SAPE  H12A18661   5.774   5.732   6.164 -0.4113  1.2337 -0.3308
  166SAPE  H12B18662   5.773   5.819   6.009  3.0963 -0.0082 -0.1913
  166SAPE   C1118663   5.891   5.636   6.002  0.5609 -0.6082 -0.3126
  166SAPE  H11A18664   5.982   5.693   6.032 -0.0143  0.9060 -1.3082
  166SAPE  H11B18665   5.875   5.644   5.893  0.4599  0.8451 -0.2174
  166SAPE     P18666   6.002   5.430   6.103  0.1697  0.3829 -0.4153
  166SAPE   O1318667   5.967   5.294   6.149 -0.2001 -0.4625 -0.1400
  166SAPE   O1418668   6.092   5.427   5.993  0.1595 -0.4205 -0.0308
  166SAPE   O1218669   5.865   5.503   6.062 -0.5038  0.0366  0.1627
  166SAPE   O1118670   6.064   5.520   6.222  0.0422 -0.7783 -0.0667
  166SAPE    C118671   5.974   5.585   6.314  0.5287 -0.0488 -0.5645
  166SAPE    HA18672   5.968   5.694   6.295  1.1476  0.4568  1.7947
  166SAPE    HB18673   5.871   5.545   6.320  0.1922  0.9670  0.7434
  166SAPE    C218674   6.027   5.572   6.461  0.1443 -0.1267 -0.1722
  166SAPE    HS18675   6.134   5.601   6.453  0.9093 -2.9517 -1.4379
  166SAPE   O2118676   6.012   5.429   6.489  0.0085 -0.0990 -0.6777
  166SAPE   C2118677   6.105   5.384   6.573 -0.5850  0.3489  0.3312
  166SAPE   O2218678   6.213   5.436   6.587  0.0690  0.0189 -0.0979
  166SAPE   C2218679   6.053   5.248   6.620 -0.0212  0.0668 -0.1603
  166SAPE   H2R18680   5.980   5.271   6.701 -1.1683 -1.0893 -0.8356
  166SAPE   H2S18681   6.000   5.190   6.541  1.2847 -0.7413 -0.4822
  166SAPE    C318682   5.933   5.646   6.557 -0.1741  0.0157 -0.6324
  166SAPE    HX18683   5.833   5.613   6.521  0.2820  0.1794 -2.1370
  166SAPE    HY18684   5.943   5.754   6.535  2.0285 -0.0864 -0.3196
  166SAPE   O3118685   5.960   5.625   6.697 -0.3067  0.0887  0.4622
  166SAPE   C3118686   5.866   5.665   6.778 -0.7705  0.1678 -0.1738
  166SAPE   O3218687   5.769   5.729   6.742 -0.5103  0.2013  0.5212
  166SAPE   C3218688   5.904   5.637   6.927  0.2022  0.1328  0.2465
  166SAPE   H2X18689   5.989   5.708   6.931  0.4283 -0.1699  3.5824
  166SAPE   H2Y18690   5.939   5.534   6.950 -1.3538 -0.7810 -1.2386
  166SAPE   C2318691   6.161   5.154   6.679  0.6077 -0.3321 -0.2397
  166SAPE   H3R18692   6.263   5.181   6.642  0.0344  0.5963 -1.1922
  166SAPE   H3S18693   6.136   5.053   6.642 -1.6218 -0.8175  2.2861
  166SAPE   C2418694   6.148   5.169   6.834 -0.3400 -0.3321  0.1376
  166SAPE   H4R18695   6.202   5.080   6.871 -1.0910 -0.6015  0.5881
  166SAPE   H4S18696   6.046   5.156   6.874 -1.6466 -1.2317 -3.1339
  166SAPE   C2518697   6.211   5.290   6.898 -0.0123  0.9085  0.2412
  166SAPE   H5R18698   6.279   5.353   6.838  0.7283  0.5448  0.6801
  166SAPE   C2618699   6.196   5.342   7.018 -0.2250  0.3746 -1.0343
  166SAPE   H6R18700   6.268   5.420   7.047 -2.8603  3.2522 -1.7008
  166SAPE   C2718701   6.119   5.275   7.130  0.3736 -0.0105  0.1196
  166SAPE   H7R18702   6.163   5.318   7.223  1.4453  1.4850 -1.0470
  166SAPE   H7S18703   6.138   5.167   7.148 -0.9764 -0.1951  0.5881
  166SAPE   C2818704   5.970   5.295   7.117  0.6143  0.6660  0.5525
  166SAPE   H8R18705   5.932   5.310   7.015  2.2417 -0.2660 -0.2210
  166SAPE   C2918706   5.879   5.273   7.213  0.1253 -0.1351 -0.4880
  166SAPE   H9R18707   5.771   5.285   7.196  0.0687 -0.6668 -0.5345
  166SAPE  C21018708   5.907   5.248   7.358  0.4904 -0.0751 -0.0678
  166SAPE  H10R18709   6.005   5.203   7.385  0.7735  0.5477 -0.0307
  166SAPE  H10S18710   5.822   5.184   7.389  0.7015 -0.8533 -1.0530
  166SAPE  C21118711   5.894   5.378   7.439  0.4085 -0.2378  0.3026
  166SAPE  H11R18712   5.875   5.472   7.384  0.7936 -1.2641 -1.6707
  166SAPE  C21218713   5.920   5.385   7.567  0.2072 -0.1287 -0.6243
  166SAPE  H12R18714   5.918   5.485   7.614  0.7185 -1.9021  3.6018
  166SAPE  C21318715   5.948   5.271   7.667 -0.1859 -0.0451  0.0834
  166SAPE  H13R18716   6.027   5.296   7.741  1.5058 -1.6820 -1.0704
  166SAPE  H13S18717   6.001   5.195   7.606  0.0929  0.7165 -0.6584
  166SAPE  C21418718   5.821   5.212   7.713 -0.0514  1.0939 -0.9133
  166SAPE  H14R18719   5.756   5.165   7.638 -0.5080  1.3823 -0.7042
  166SAPE  C21518720   5.795   5.186   7.840 -0.2961  0.7093  0.1681
  166SAPE  H15R18721   5.699   5.140   7.867  0.5221  0.8846  4.0792
  166SAPE  C21618722   5.871   5.207   7.973  0.4334 -0.2896  0.0222
  166SAPE  H16R18723   5.980   5.222   7.958  0.6213 -2.1754 -0.7628
  166SAPE  H16S18724   5.868   5.114   8.034  0.0545 -0.5482 -0.3856
  166SAPE  C21718725   5.808   5.320   8.054 -0.2282  0.7960  0.8069
  166SAPE  H17R18726   5.699   5.306   8.064 -0.1766 -0.6216 -0.2957
  166SAPE  H17S18727   5.815   5.420   8.004 -0.6820  0.8241  0.7986
  166SAPE  C21818728   5.863   5.338   8.200  0.6799 -0.8367 -0.5789
  166SAPE  H18R18729   5.974   5.342   8.192  0.6998 -0.3569 -0.1787
  166SAPE  H18S18730   5.840   5.253   8.268 -0.0059 -0.5985 -0.5079
  166SAPE  C21918731   5.822   5.471   8.266  0.8276 -0.8233 -0.0038
  166SAPE  H19R18732   5.713   5.475   8.287  0.8626 -1.5117  0.3664
  166SAPE  H19S18733   5.835   5.544   8.183 -1.6385 -0.8604 -0.4949
  166SAPE  C22018734   5.892   5.508   8.396 -0.2918  1.1598 -0.7616
  166SAPE  H20R18735   6.001   5.513   8.374 -0.5708  0.2845 -2.5285
  166SAPE  H20S18736   5.872   5.425   8.466 -1.7679  0.9218 -1.4247
  166SAPE  H20T18737   5.851   5.590   8.459 -0.5635  0.4270  0.0296
  166SAPE   C3318738   5.805   5.678   7.039  0.8058 -0.3609  0.3363
  166SAPE   H3X18739   5.724   5.605   7.058  0.7071  0.0911  1.7354
  166SAPE   H3Y18740   5.755   5.774   7.011 -0.9187 -1.1537  0.5466
  166SAPE   C3418741   5.856   5.712   7.178 -0.4465 -0.0220  0.0914
  166SAPE   H4X18742   5.957   5.755   7.163 -1.1706  1.6864 -0.0604
  166SAPE   H4Y18743   5.885   5.625   7.241  0.5361  0.2433  0.0235
  166SAPE   C3518744   5.783   5.821   7.262  0.7182  0.0044  0.1041
  166SAPE   H5X18745   5.684   5.774   7.283  0.7672 -0.3398 -0.4384
  166SAPE   H5Y18746   5.772   5.908   7.194  1.4646 -0.2386 -0.3288
  166SAPE   C3618747   5.857   5.873   7.391  0.5651 -0.2995  0.1092
  166SAPE   H6X18748   5.943   5.930   7.350 -0.1544  1.9336  1.5352
  166SAPE   H6Y18749   5.903   5.787   7.444  2.3466 -0.1348 -1.0803
  166SAPE   C3718750   5.766   5.970   7.466  0.0400  0.2966 -0.2611
  166SAPE   H7X18751   5.674   5.920   7.503 -1.6362  2.0749 -1.8394
  166SAPE   H7Y18752   5.729   6.051   7.401 -1.7475  2.5111  3.1864
  166SAPE   C3818753   5.841   6.032   7.587  0.3012  0.1683 -0.4166
  166SAPE   H8X18754   5.764   6.098   7.634  0.9610  0.2192  0.6246
  166SAPE   H8Y18755   5.912   6.113   7.563  0.4219  0.6019  1.3136
  166SAPE   C3918756   5.892   5.929   7.696 -0.5271  0.3988  0.5922
  166SAPE   H9X18757   5.945   5.838   7.659  1.2937  1.8139 -0.4301
  166SAPE   H9Y18758   5.809   5.902   7.764 -0.7366  2.0819  1.0273
  166SAPE  C31018759   5.994   6.009   7.785 -0.4111  0.2786 -0.3707
  166SAPE  H10X18760   6.071   6.059   7.723 -0.4131  0.5147 -0.1847
  166SAPE  H10Y18761   6.052   5.930   7.837  0.0420 -1.0093 -2.7161
  166SAPE  C31118762   5.941   6.121   7.880 -0.3439  0.4379  0.3497
  166SAPE  H11X18763   5.849   6.081   7.928 -0.7070 -0.9114 -1.3394
  166SAPE  H11Y18764   5.916   6.212   7.821  1.2408 -0.2092 -1.4676
  166SAPE  C31218765   6.044   6.157   7.989 -0.2834 -0.2509 -0.8151
  166SAPE  H12X18766   6.139   6.201   7.953 -1.4088  2.8876 -0.2790
  166SAPE  H12Y18767   6.071   6.072   8.055 -0.2101 -0.4624 -1.1179
  166SAPE  C31318768   5.989   6.268   8.087  0.4851  0.0018  0.2353
  166SAPE  H13X18769   5.912   6.221   8.152 -0.9292 -1.2938 -2.2546
  166SAPE  H13Y18770   5.950   6.354   8.030 -0.5471 -0.1976  0.6272
  166SAPE  C31418771   6.101   6.318   8.183 -0.0779 -0.2685 -0.7776
  166SAPE  H14X18772   6.110   6.239   8.261  0.7363  0.1779 -0.4024
  166SAPE  H14Y18773   6.065   6.412   8.231 -0.6554 -1.4404  1.2543
  166SAPE  C31518774   6.234   6.343   8.116  0.4014  0.1265 -0.1170
  166SAPE  H15X18775   6.225   6.417   8.034  1.5217  1.7348  1.1403
  166SAPE  H15Y18776   6.276   6.245   8.084 -0.0566 -0.6633  1.5939
  166SAPE  C31618777   6.341   6.399   8.208  0.3563  0.5630 -0.2426
  166SAPE  H16X18778   6.443   6.394   8.165  1.3831 -2.3265  2.1114
  166SAPE  H16Y18779   6.342   6.349   8.307 -1.4242  1.3466  0.2094
  166SAPE  C31718780   6.326   6.548   8.236 -0.1729 -0.0499  0.4707
  166SAPE  H17X18781   6.255   6.573   8.318 -1.6680 -2.5167  0.0418
  166SAPE  H17Y18782   6.289   6.587   8.139 -0.7549  0.9184  1.0625
  166SAPE  C31818783   6.456   6.623   8.260 -0.5797  0.1115  0.6565
  166SAPE  H18X18784   6.535   6.593   8.187 -1.4609 -0.6120 -0.0128
  166SAPE  H18Y18785   6.492   6.593   8.361  1.5186 -1.6448 -0.5202
  166SAPE  H18Z18786   6.448   6.733   8.273  1.8395  0.3698  0.5629
  167SAPE     N18787   4.561   3.551   6.071  0.6892 -0.8023 -0.1305
  167SAPE   HN118788   4.633   3.564   6.144 -1.1725  3.2484  1.2733
  167SAPE   HN218789   4.479   3.498   6.106 -0.3620  1.7962  1.6842
  167SAPE   HN318790   4.610   3.502   5.994  0.7469  1.4331 -1.6092
  167SAPE   C1218791   4.517   3.690   6.022  0.4966 -0.4427 -0.2823
  167SAPE  H12A18792   4.427   3.714   6.082  0.7610 -1.7433  0.6883
  167SAPE  H12B18793   4.489   3.684   5.915 -0.7610  0.8934 -0.0561
  167SAPE   C1118794   4.620   3.796   6.036  0.0793 -0.9134 -0.6582
  167SAPE  H11A18795   4.640   3.806   6.145 -2.2310 -0.7198 -0.1784
  167SAPE  H11B18796   4.567   3.889   6.004  1.1052 -0.0268  0.1234
  167SAPE     P18797   4.887   3.768   6.045 -0.0840  0.2899 -0.0153
  167SAPE   O1318798   4.893   3.644   6.125 -0.4749 -0.7717  0.2978
  167SAPE   O1418799   4.998   3.792   5.946  0.6009 -0.1546 -0.5306
  167SAPE   O1218800   4.740   3.768   5.972 -0.7647 -0.4567  0.3353
  167SAPE   O1118801   4.884   3.896   6.136  0.3067  0.3345 -0.2133
  167SAPE    C118802   4.867   3.911   6.276  1.1353 -0.5542 -0.2561
  167SAPE    HA18803   4.848   4.017   6.302  0.3176 -0.1945 -2.1982
  167SAPE    HB18804   4.793   3.840   6.319 -2.1062  2.7286 -0.0102
  167SAPE    C218805   4.999   3.882   6.335 -0.6586 -0.1174 -0.0168
  167SAPE    HS18806   5.025   3.776   6.316 -0.5624  0.0743 -1.0133
  167SAPE   O2118807   4.995   3.909   6.477  0.0203 -0.0781 -0.2576
  167SAPE   C2118808   4.926   3.823   6.541  0.9362 -0.9210  0.0338
  167SAPE   O2218809   4.888   3.716   6.512 -0.5099  0.0019 -0.2722
  167SAPE   C2218810   4.893   3.890   6.676 -0.1437  0.0293 -0.0959
  167SAPE   H2R18811   4.857   3.995   6.664  0.6381  0.3115 -0.0054
  167SAPE   H2S18812   4.803   3.842   6.721  0.8107  0.0738  2.0132
  167SAPE    C318813   5.113   3.963   6.270  0.2116  0.1912  0.5913
  167SAPE    HX18814   5.098   4.073   6.267 -0.7449  0.0723 -2.5347
  167SAPE    HY18815   5.109   3.951   6.160 -0.8928 -0.5483  0.6881
  167SAPE   O3118816   5.239   3.932   6.317  0.1893 -0.2707  0.1060
  167SAPE   C3118817   5.280   3.998   6.430 -0.0342  0.3546  0.5820
  167SAPE   O3218818   5.233   4.100   6.473  0.1227  0.5751 -0.1149
  167SAPE   C3218819   5.383   3.904   6.491  0.0082  0.0458 -0.6262
  167SAPE   H2X18820   5.388   3.813   6.427 -3.6797 -0.3958 -0.5310
  167SAPE   H2Y18821   5.345   3.871   6.590 -0.0799 -0.1757 -0.7332
  167SAPE   C2318822   4.999   3.875   6.788  0.3068  0.2071  1.1207
  167SAPE   H3R18823   5.090   3.929   6.753 -0.1268  0.6874  0.7133
  167SAPE   H3S18824   5.030   3.769   6.795  0.1653  0.2030  1.7817
  167SAPE   C2418825   4.966   3.940   6.919 -0.2312 -0.0190 -0.1526
  167SAPE   H4R18826   4.865   3.905   6.951 -0.6137  1.2729  0.0936
  167SAPE   H4S18827   4.949   4.047   6.896  0.8234 -0.0327 -1.0795
  167SAPE   C2518828   5.073   3.927   7.024 -0.3908  0.5021 -0.3902
  167SAPE   H5R18829   5.160   3.994   7.015 -0.2069  0.5693  1.3897
  167SAPE   C2618830   5.071   3.846   7.136 -0.0033 -0.7398 -0.4434
  167SAPE   H6R18831   5.141   3.860   7.220 -0.8845  0.7734  0.0867
  167SAPE   C2718832   4.963   3.751   7.183  0.0155 -0.7621  0.2101
  167SAPE   H7R18833   5.025   3.669   7.225  0.5092 -0.6880 -0.3599
  167SAPE   H7S18834   4.905   3.697   7.105 -1.4402  2.0436 -0.7965
  167SAPE   C2818835   4.853   3.801   7.287  0.9413  0.4462  0.5261
  167SAPE   H8R18836   4.760   3.839   7.242  2.6903  0.8422 -3.1296
  167SAPE   C2918837   4.858   3.782   7.418  0.1552  0.1296  0.6106
  167SAPE   H9R18838   4.774   3.817   7.479 -0.1092 -0.2543  0.4678
  167SAPE  C21018839   4.973   3.725   7.497 -0.2629  0.0720 -0.5589
  167SAPE  H10R18840   5.064   3.789   7.495  0.7010 -1.1135  1.7524
  167SAPE  H10S18841   5.004   3.630   7.447 -1.1873 -0.6636  0.2244
  167SAPE  C21118842   4.946   3.705   7.643 -0.0582 -0.7066 -0.1481
  167SAPE  H11R18843   4.847   3.737   7.678 -0.0463 -1.5191  0.6615
  167SAPE  C21218844   5.025   3.637   7.727 -0.0630  0.3030 -0.6338
  167SAPE  H12R18845   4.989   3.631   7.831 -1.4288 -0.6659 -1.1289
  167SAPE  C21318846   5.154   3.563   7.691 -0.5342  0.3908 -0.0182
  167SAPE  H13R18847   5.230   3.602   7.761  2.4128  0.1431 -2.8738
  167SAPE  H13S18848   5.193   3.584   7.589 -2.1095  1.1879 -0.4934
  167SAPE  C21418849   5.142   3.410   7.706  0.3250 -0.1685 -0.5608
  167SAPE  H14R18850   5.099   3.357   7.620 -1.0189 -0.4414  0.2598
  167SAPE  C21518851   5.219   3.344   7.793  0.1940 -0.0605 -0.7495
  167SAPE  H15R18852   5.217   3.234   7.798  3.0696 -0.1725 -0.1820
  167SAPE  C21618853   5.311   3.395   7.898  0.3260  0.0033 -0.4063
  167SAPE  H16R18854   5.387   3.461   7.851  1.0281  0.2938  1.0834
  167SAPE  H16S18855   5.366   3.309   7.940  1.7742  1.0812 -0.0024
  167SAPE  C21718856   5.252   3.481   8.010  0.4257 -0.4632 -0.5413
  167SAPE  H17R18857   5.164   3.542   7.980  1.1541  3.4726  3.9848
  167SAPE  H17S18858   5.328   3.554   8.046  1.2671 -1.8293  0.5637
  167SAPE  C21818859   5.209   3.390   8.130 -0.5381  0.1610 -0.2242
  167SAPE  H18R18860   5.304   3.347   8.171 -0.3299 -0.4947 -1.3534
  167SAPE  H18S18861   5.148   3.303   8.100 -2.6258  1.8122 -1.0012
  167SAPE  C21918862   5.142   3.481   8.238  0.2556 -0.8458 -0.0936
  167SAPE  H19R18863   5.066   3.542   8.186 -0.0314 -1.1687 -0.0570
  167SAPE  H19S18864   5.225   3.542   8.280 -0.9551  1.4211 -0.8247
  167SAPE  C22018865   5.069   3.388   8.340 -0.3279 -0.0523  0.0879
  167SAPE  H20R18866   4.994   3.320   8.294 -1.0739  0.5504  0.3860
  167SAPE  H20S18867   5.009   3.453   8.407 -1.2745 -1.4401  0.6250
  167SAPE  H20T18868   5.152   3.340   8.395 -0.3686 -0.0855  0.1199
  167SAPE   C3318869   5.518   3.966   6.511  0.2745  0.0611 -0.3525
  167SAPE   H3X18870   5.492   4.063   6.557 -4.9180  0.1360 -2.7342
  167SAPE   H3Y18871   5.556   3.998   6.411 -1.1527  0.6830 -0.7303
  167SAPE   C3418872   5.618   3.874   6.581  0.4832 -0.9850  0.0852
  167SAPE   H4X18873   5.719   3.894   6.538  0.4526  0.4610  0.6329
  167SAPE   H4Y18874   5.591   3.769   6.556 -0.3078 -0.6287 -0.5712
  167SAPE   C3518875   5.623   3.913   6.728  0.3994  0.0297 -0.2589
  167SAPE   H5X18876   5.520   3.941   6.761  0.8247  2.5554 -0.9300
  167SAPE   H5Y18877   5.685   4.004   6.726  0.4534  0.0037 -2.7206
  167SAPE   C3618878   5.670   3.809   6.823  0.1579 -0.4319 -0.6795
  167SAPE   H6X18879   5.773   3.772   6.808  0.4770 -0.3535  1.0900
  167SAPE   H6Y18880   5.603   3.720   6.821 -0.6422  0.1730 -1.4027
  167SAPE   C3718881   5.655   3.861   6.965 -0.4791 -0.2848 -0.0875
  167SAPE   H7X18882   5.564   3.925   6.969 -0.6294 -0.4118 -1.0733
  167SAPE   H7Y18883   5.746   3.922   6.985  0.9439 -2.4197  0.2894
  167SAPE   C3818884   5.656   3.750   7.076 -0.3943  0.1160 -0.1823
  167SAPE   H8X18885   5.758   3.706   7.072  0.4689  2.0749 -0.9449
  167SAPE   H8Y18886   5.580   3.671   7.055 -1.5404  0.4818  2.2235
  167SAPE   C3918887   5.643   3.796   7.220 -0.2859  0.1336 -0.1826
  167SAPE   H9X18888   5.730   3.856   7.253  0.1536 -0.3178 -0.5010
  167SAPE   H9Y18889   5.663   3.701   7.274  0.0104 -1.4299 -2.8717
  167SAPE  C31018890   5.506   3.852   7.254 -0.0444 -0.7667 -0.1139
  167SAPE  H10X18891   5.432   3.772   7.236 -1.5915  0.5124  0.3583
  167SAPE  H10Y18892   5.484   3.941   7.191  0.5717 -0.3156  0.2908
  167SAPE  C31118893   5.478   3.894   7.401 -0.0561  0.3534 -0.2201
  167SAPE  H11X18894   5.382   3.949   7.410 -1.0050 -1.1578 -0.7155
  167SAPE  H11Y18895   5.560   3.957   7.441 -0.0114  0.0046  0.2489
  167SAPE  C31218896   5.456   3.775   7.485 -0.2982  0.1483 -0.0508
  167SAPE  H12X18897   5.552   3.719   7.494  0.9432  2.0270 -0.9670
  167SAPE  H12Y18898   5.373   3.713   7.445  1.3816 -2.5911  0.4565
  167SAPE  C31318899   5.409   3.813   7.632 -0.6716  0.1719  0.8568
  167SAPE  H13X18900   5.394   3.726   7.698  0.6275 -1.1040 -0.4473
  167SAPE  H13Y18901   5.320   3.877   7.618 -1.8562 -1.8509 -1.6975
  167SAPE  C31418902   5.518   3.889   7.708  0.0800 -0.5567 -0.4282
  167SAPE  H14X18903   5.543   3.988   7.665  1.0543  0.0639  1.4463
  167SAPE  H14Y18904   5.609   3.827   7.694  1.6918  1.6730 -0.3452
  167SAPE  C31518905   5.473   3.918   7.851  0.5168 -0.5079  0.0004
  167SAPE  H15X18906   5.449   3.821   7.900 -1.1281  0.5210  1.3696
  167SAPE  H15Y18907   5.376   3.972   7.848  1.1782  1.4725  4.7386
  167SAPE  C31618908   5.569   4.002   7.927  0.3427 -0.5033 -0.0619
  167SAPE  H16X18909   5.593   4.094   7.870  1.0415  1.6417  3.3761
  167SAPE  H16Y18910   5.667   3.950   7.938  0.5745  0.0560  0.5988
  167SAPE  C31718911   5.507   4.045   8.060 -0.0103  1.0208 -0.1285
  167SAPE  H17X18912   5.484   3.953   8.117 -1.5209 -0.3001 -2.7045
  167SAPE  H17Y18913   5.409   4.095   8.042  0.8661  1.8838 -3.2685
  167SAPE  C31818914   5.610   4.129   8.139  0.1697 -0.7735  0.0206
  167SAPE  H18X18915   5.623   4.230   8.094  0.5466  0.5734  2.9286
  167SAPE  H18Y18916   5.715   4.094   8.126 -0.1845 -1.4392 -1.1270
  167SAPE  H18Z18917   5.582   4.144   8.245  0.4619  0.8031 -0.0914
  168SAPE     N18918   0.101   4.062   6.338  0.1226  0.3554 -0.6564
  168SAPE   HN118919   0.197   4.022   6.333  0.8587  2.1052 -1.0739
  168SAPE   HN218920   0.063   4.068   6.241  1.8957  1.0032 -1.3610
  168SAPE   HN318921   0.117   4.157   6.375  0.9487 -0.9059  2.5214
  168SAPE   C1218922   0.003   3.983   6.428 -1.0330 -0.6639 -0.0071
  168SAPE  H12A18923   0.044   3.960   6.528 -3.2326  1.9102  1.6345
  168SAPE  H12B18924  -0.015   3.882   6.386  0.2910 -1.7075  1.7827
  168SAPE   C1118925  -0.129   4.049   6.467 -0.5139 -0.1037 -0.4698
  168SAPE  H11A18926  -0.096   4.149   6.504 -0.7942 -0.7901  1.8196
  168SAPE  H11B18927  -0.172   3.998   6.556 -0.6394 -1.7603 -1.4498
  168SAPE     P18928  -0.305   4.180   6.326 -0.0775 -0.1346  0.5143
  168SAPE   O1318929  -0.214   4.267   6.253  0.0809 -0.2858 -0.1763
  168SAPE   O1418930  -0.428   4.145   6.260 -0.3975  0.0525  0.3623
  168SAPE   O1218931  -0.222   4.052   6.359 -0.0510  0.3989  0.6480
  168SAPE   O1118932  -0.337   4.242   6.470  0.2234  0.2304 -0.3461
  168SAPE    C118933  -0.468   4.242   6.520  0.1359 -0.0994 -0.2965
  168SAPE    HA18934  -0.526   4.289   6.438 -2.4834 -2.1062  0.2737
  168SAPE    HB18935  -0.497   4.135   6.522  2.6759 -0.8585  0.0484
  168SAPE    C218936  -0.477   4.302   6.661 -0.4040  0.8412  0.2413
  168SAPE    HS18937  -0.424   4.400   6.657  1.3233 -0.0522  0.1854
  168SAPE   O2118938  -0.410   4.211   6.744 -0.3962 -0.3848  0.1650
  168SAPE   C2118939  -0.311   4.251   6.822 -0.7141  0.0870 -0.2252
  168SAPE   O2218940  -0.281   4.368   6.848 -0.0565 -0.2826  0.2094
  168SAPE   C2218941  -0.241   4.135   6.873  0.2994 -0.2726 -0.0030
  168SAPE   H2R18942  -0.312   4.055   6.903  0.8829 -0.0490  2.1590
  168SAPE   H2S18943  -0.179   4.091   6.792 -0.9366  1.5968 -2.0468
  168SAPE    C318944  -0.621   4.309   6.705  0.6055  0.2802 -0.8066
  168SAPE    HX18945  -0.665   4.207   6.709  0.1165  0.4960 -0.6103
  168SAPE    HY18946  -0.686   4.373   6.641  2.1126  0.6589 -2.0362
  168SAPE   O3118947  -0.628   4.344   6.848 -0.6822  0.0344 -0.2921
  168SAPE   C3118948  -0.619   4.476   6.863  0.7705  0.1013 -0.2816
  168SAPE   O3218949  -0.631   4.559   6.771 -0.6986 -0.5201 -0.1192
  168SAPE   C3218950  -0.623   4.515   7.006 -0.3160  0.6148  0.0047
  168SAPE   H2X18951  -0.727   4.501   7.044  0.0089 -0.6524  0.5008
  168SAPE   H2Y18952  -0.595   4.622   7.007  0.9298  0.3138 -0.7120
  168SAPE   C2318953  -0.159   4.173   7.000 -0.9918 -0.1722  0.6835
  168SAPE   H3R18954  -0.099   4.264   6.977 -0.1763 -1.0921 -1.0025
  168SAPE   H3S18955  -0.080   4.096   7.012 -2.2343 -1.5559  0.1943
  168SAPE   C2418956  -0.243   4.181   7.132 -0.2997 -0.4481  0.7882
  168SAPE   H4R18957  -0.293   4.085   7.154 -1.6731 -0.3774 -1.6414
  168SAPE   H4S18958  -0.330   4.247   7.110 -0.6117 -0.8842  0.7059
  168SAPE   C2518959  -0.145   4.220   7.239 -0.2779  0.2225  0.2684
  168SAPE   H5R18960  -0.054   4.268   7.201 -0.0386  1.3274  2.1071
  168SAPE   C2618961  -0.145   4.193   7.369  0.5332 -0.2315  0.1313
  168SAPE   H6R18962  -0.071   4.249   7.429 -0.1279  0.4305  0.3469
  168SAPE   C2718963  -0.256   4.124   7.445  0.0435 -0.5531  0.6330
  168SAPE   H7R18964  -0.349   4.120   7.385 -0.1502  1.6061  0.7063
  168SAPE   H7S18965  -0.276   4.183   7.537  2.0826  1.0216  0.1523
  168SAPE   C2818966  -0.222   3.984   7.489 -0.0820 -0.6956 -0.7278
  168SAPE   H8R18967  -0.129   3.949   7.442  0.6252  1.6992 -1.2186
  168SAPE   C2918968  -0.284   3.898   7.580 -0.3205 -0.4293  0.2606
  168SAPE   H9R18969  -0.241   3.800   7.605  1.2476  0.0669 -0.3793
  168SAPE  C21018970  -0.394   3.937   7.669  0.2296  0.5360 -1.0208
  168SAPE  H10R18971  -0.465   3.852   7.656 -0.9570  1.7002 -2.3879
  168SAPE  H10S18972  -0.440   4.027   7.624  0.8671  2.5523  2.0362
  168SAPE  C21118973  -0.350   3.971   7.814 -0.1881  0.7340  0.0711
  168SAPE  H11R18974  -0.284   4.060   7.816 -2.8759  2.8664  0.3142
  168SAPE  C21218975  -0.404   3.912   7.926 -0.4236  0.5113 -0.1790
  168SAPE  H12R18976  -0.362   3.947   8.022 -0.6596 -0.6699  0.3743
  168SAPE  C21318977  -0.506   3.800   7.940 -0.2981 -0.1537  0.7865
  168SAPE  H13R18978  -0.516   3.747   7.843  2.4193  2.2959 -0.9844
  168SAPE  H13S18979  -0.607   3.840   7.964 -0.0600 -1.1040  3.7215
  168SAPE  C21418980  -0.481   3.700   8.049  0.0879  0.0698 -0.2839
  168SAPE  H14R18981  -0.377   3.669   8.067  0.0548 -1.4535 -2.3081
  168SAPE  C21518982  -0.583   3.656   8.130  1.1450  0.2833 -0.4591
  168SAPE  H15R18983  -0.556   3.577   8.201 -1.9322  0.4998  1.1081
  168SAPE  C21618984  -0.734   3.684   8.130 -0.2033  0.2523 -0.4155
  168SAPE  H16R18985  -0.759   3.736   8.035  2.7595 -1.5930 -2.3396
  168SAPE  H16S18986  -0.763   3.760   8.206 -1.7423  0.2518 -0.9666
  168SAPE  C21718987  -0.826   3.568   8.162  0.0268  0.4287 -0.4214
  168SAPE  H17R18988  -0.771   3.489   8.217 -1.6570 -0.1083  0.5821
  168SAPE  H17S18989  -0.869   3.530   8.067 -1.2434  1.5181 -0.3267
  168SAPE  C21818990  -0.944   3.601   8.249  0.3117  0.6699  0.1012
  168SAPE  H18R18991  -0.990   3.688   8.198  0.2582  0.0832 -0.8691
  168SAPE  H18S18992  -0.902   3.635   8.347  3.1592 -0.5186 -0.6031
  168SAPE  C21918993  -1.053   3.492   8.269  0.2550 -0.6999  0.1165
  168SAPE  H19R18994  -1.098   3.479   8.168  0.5671 -0.6750 -0.0286
  168SAPE  H19S18995  -1.133   3.527   8.337  1.2469  1.0155  0.4707
  168SAPE  C22018996  -0.997   3.364   8.311  0.1228 -0.2187  0.0147
  168SAPE  H20R18997  -1.071   3.282   8.302 -2.1627  1.7282  0.1687
  168SAPE  H20S18998  -0.964   3.365   8.417  1.2755  1.6426 -0.3108
  168SAPE  H20T18999  -0.923   3.319   8.241  1.5561  2.4550 -0.3401
  168SAPE   C3319000  -0.521   4.446   7.098 -0.8308 -0.9444  0.4532
  168SAPE   H3X19001  -0.422   4.459   7.048 -2.9104  1.1189 -3.6707
  168SAPE   H3Y19002  -0.540   4.337   7.107  2.0566 -1.4792  1.1068
  168SAPE   C3419003  -0.530   4.510   7.235 -0.0256 -0.3970 -0.4963
  168SAPE   H4X19004  -0.628   4.489   7.283  0.0930  0.2285  0.0303
  168SAPE   H4Y19005  -0.511   4.618   7.219 -2.8623  0.2264 -0.2299
  168SAPE   C3519006  -0.428   4.470   7.343 -0.7215 -0.2905 -0.5772
  168SAPE   H5X19007  -0.326   4.505   7.313 -0.3409  0.2351  1.2404
  168SAPE   H5Y19008  -0.435   4.359   7.350  1.6153 -0.4839 -0.4632
  168SAPE   C3619009  -0.450   4.530   7.487 -0.0047  0.0693 -0.4276
  168SAPE   H6X19010  -0.558   4.553   7.497  0.4925  1.5562  2.7317
  168SAPE   H6Y19011  -0.406   4.632   7.491 -2.8163  1.3455  0.3498
  168SAPE   C3719012  -0.403   4.441   7.597 -0.7810 -0.1024  0.7414
  168SAPE   H7X19013  -0.293   4.425   7.604 -0.8817 -0.6599  1.1421
  168SAPE   H7Y19014  -0.448   4.345   7.566  1.2599 -0.5525 -1.0527
  168SAPE   C3819015  -0.456   4.491   7.737 -0.8461 -0.4999 -0.3855
  168SAPE   H8X19016  -0.407   4.413   7.799  0.1326  1.3282  1.2843
  168SAPE   H8Y19017  -0.567   4.486   7.745 -0.8674 -0.5804 -0.7338
  168SAPE   C3919018  -0.389   4.628   7.782  0.0919 -0.1543 -0.0075
  168SAPE   H9X19019  -0.454   4.713   7.754 -1.2296 -1.3394 -0.6259
  168SAPE   H9Y19020  -0.289   4.636   7.734 -0.5978  1.3720 -1.2610
  168SAPE  C31019021  -0.358   4.630   7.927  0.0981 -0.5727  0.0288
  168SAPE  H10X19022  -0.268   4.693   7.946 -0.2310 -0.2634  0.5862
  168SAPE  H10Y19023  -0.328   4.527   7.957 -0.1297 -0.7383 -0.3129
  168SAPE  C31119024  -0.489   4.682   8.006 -0.1407 -0.6825  0.0861
  168SAPE  H11X19025  -0.572   4.614   7.979 -2.5650  1.3107  2.0025
  168SAPE  H11Y19026  -0.519   4.784   7.973 -0.6045  1.0875  5.0316
  168SAPE  C31219027  -0.484   4.688   8.159 -0.0262 -0.3812 -0.5071
  168SAPE  H12X19028  -0.402   4.747   8.206 -1.0195 -0.7959  1.9179
  168SAPE  H12Y19029  -0.474   4.584   8.197 -0.6915 -0.1134  0.4675
  168SAPE  C31319030  -0.620   4.740   8.217  0.6467 -0.5974 -0.1673
  168SAPE  H13X19031  -0.700   4.680   8.170 -0.7305 -0.1029  1.4293
  168SAPE  H13Y19032  -0.644   4.846   8.193  0.1086 -0.3528  1.3547
  168SAPE  C31419033  -0.632   4.704   8.369  0.3251 -0.3725 -0.0736
  168SAPE  H14X19034  -0.591   4.788   8.429  0.3856 -1.1827  1.0440
  168SAPE  H14Y19035  -0.574   4.610   8.385  2.2231  1.0780  2.2210
  168SAPE  C31519036  -0.769   4.678   8.421  0.0577 -0.0007 -0.1062
  168SAPE  H15X19037  -0.825   4.604   8.360  0.4794 -0.2658 -0.1789
  168SAPE  H15Y19038  -0.831   4.770   8.416 -1.5177 -1.0779 -1.5656
  168SAPE  C31619039  -0.772   4.634   8.565 -0.4231  0.0329 -0.0111
  168SAPE  H16X19040  -0.690   4.694   8.610 -0.2100 -0.9473  0.9625
  168SAPE  H16Y19041  -0.722   4.535   8.574 -0.3130  0.1282  0.4740
  168SAPE  C31719042  -0.910   4.629   8.632 -0.3211  0.1417 -0.7617
  168SAPE  H17X19043  -0.965   4.725   8.620  0.1267  0.3095 -1.5248
  168SAPE  H17Y19044  -0.896   4.619   8.742 -0.7337  0.5438 -0.6708
  168SAPE  C31819045  -1.001   4.515   8.582  0.0889  0.2968 -0.3765
  168SAPE  H18X19046  -1.091   4.512   8.648 -1.0323 -1.3893 -1.8935
  168SAPE  H18Y19047  -0.956   4.414   8.576 -0.9935 -0.1919 -0.6381
  168SAPE  H18Z19048  -1.037   4.531   8.478 -0.2812 -0.3494 -0.3496
  169SAPE     N19049   6.286   1.433   6.174 -0.0250 -0.7138 -0.1762
  169SAPE   HN119050   6.389   1.441   6.173 -0.0440  1.4467  2.3825
  169SAPE   HN219051   6.246   1.509   6.234  2.0833  1.3116 -1.1920
  169SAPE   HN319052   6.262   1.341   6.217 -2.1097 -0.1974 -0.1230
  169SAPE   C1219053   6.226   1.443   6.034  0.3581  0.8687  0.2652
  169SAPE  H12A19054   6.239   1.340   5.993 -0.2291 -0.2223  2.5931
  169SAPE  H12B19055   6.291   1.509   5.973  1.5914  1.1848  1.8574
  169SAPE   C1119056   6.072   1.473   6.040 -0.2047 -0.1363  1.1441
  169SAPE  H11A19057   6.018   1.395   6.097 -0.1766 -0.4591  0.7340
  169SAPE  H11B19058   6.026   1.465   5.940  0.4904 -1.2189  0.8947
  169SAPE     P19059   5.928   1.650   6.158  0.2227  0.3330  0.2112
  169SAPE   O1319060   5.827   1.677   6.051 -0.0130 -0.2279 -0.7527
  169SAPE   O1419061   5.890   1.560   6.266  0.2362 -0.7724  0.4184
  169SAPE   O1219062   6.057   1.597   6.093 -0.3138 -0.1242  0.0481
  169SAPE   O1119063   5.953   1.791   6.214 -1.1359 -1.0761  0.1792
  169SAPE    C119064   6.086   1.825   6.264 -0.5454 -0.0112 -0.8138
  169SAPE    HA19065   6.172   1.761   6.235  0.1861  0.5497  0.0951
  169SAPE    HB19066   6.110   1.930   6.237 -1.7362  0.5980  0.3793
  169SAPE    C219067   6.089   1.823   6.419  0.4217  0.5674  0.7499
  169SAPE    HS19068   6.193   1.856   6.442  0.1810  0.8780  1.4452
  169SAPE   O2119069   6.052   1.699   6.491 -0.8642 -0.7400  0.1728
  169SAPE   C2119070   6.119   1.590   6.470  0.6576  0.7121  1.0507
  169SAPE   O2219071   6.217   1.588   6.400  0.0061  0.2594 -0.4174
  169SAPE   C2219072   6.062   1.471   6.548 -0.8217 -0.3863 -0.0196
  169SAPE   H2R19073   5.953   1.490   6.537 -0.7264 -0.6578 -1.8207
  169SAPE   H2S19074   6.089   1.375   6.499 -0.5957 -1.4336  2.0764
  169SAPE    C319075   5.990   1.936   6.472 -0.0895 -0.1501  0.1866
  169SAPE    HX19076   5.892   1.887   6.491  0.1198  0.1556  2.2096
  169SAPE    HY19077   5.980   2.008   6.388 -1.2802 -0.8596 -0.3077
  169SAPE   O3119078   6.043   2.001   6.587  0.1970  0.4631 -0.1161
  169SAPE   C3119079   5.988   2.119   6.616  0.2553  0.3674 -0.0203
  169SAPE   O3219080   5.910   2.177   6.545 -0.2033  0.0070 -0.1386
  169SAPE   C3219081   6.037   2.160   6.762 -0.1649 -1.1153 -0.4872
  169SAPE   H2X19082   6.116   2.237   6.757 -0.6791 -0.5221  0.2323
  169SAPE   H2Y19083   6.081   2.066   6.801  1.4485  0.9869  3.2616
  169SAPE   C2319084   6.114   1.461   6.687 -0.2449  0.2697  0.0439
  169SAPE   H3R19085   6.119   1.560   6.739 -0.4856  1.2407 -1.7173
  169SAPE   H3S19086   6.221   1.430   6.694 -0.2130  0.4021  0.1747
  169SAPE   C2419087   6.033   1.356   6.769  0.0704 -0.0677 -0.5387
  169SAPE   H4R19088   5.931   1.370   6.728  0.7072  0.0039 -2.1996
  169SAPE   H4S19089   6.024   1.374   6.878 -0.9506  1.7246 -0.8681
  169SAPE   C2519090   6.070   1.216   6.736  0.2234 -0.2788  0.4872
  169SAPE   H5R19091   6.012   1.182   6.648  0.0770  0.0201  0.4659
  169SAPE   C2619092   6.155   1.139   6.801 -0.3249  0.2469  0.1589
  169SAPE   H6R19093   6.176   1.039   6.763 -2.6193 -0.5200  0.7552
  169SAPE   C2719094   6.232   1.174   6.925  0.4242  0.2815  0.2869
  169SAPE   H7R19095   6.178   1.130   7.012  0.2215 -1.2985 -0.5888
  169SAPE   H7S19096   6.243   1.281   6.950  1.9025  0.1583  0.2726
  169SAPE   C2819097   6.363   1.108   6.918  0.1062  0.3401 -0.3348
  169SAPE   H8R19098   6.446   1.153   6.860  0.4051 -2.6051 -2.3889
  169SAPE   C2919099   6.392   0.983   6.955  0.7041 -0.3773 -0.4927
  169SAPE   H9R19100   6.493   0.949   6.928  0.9873 -0.1507  0.2486
  169SAPE  C21019101   6.300   0.873   7.003 -0.2509 -0.2965  1.0444
  169SAPE  H10R19102   6.309   0.780   6.943 -0.7456 -1.0940  2.1724
  169SAPE  H10S19103   6.195   0.906   6.987 -0.1398 -0.0067  0.8891
  169SAPE  C21119104   6.308   0.838   7.156 -0.5659  0.0438 -0.0771
  169SAPE  H11R19105   6.216   0.862   7.212 -0.8660 -0.5534 -0.3047
  169SAPE  C21219106   6.399   0.760   7.221 -0.9788  0.2793  0.4763
  169SAPE  H12R19107   6.398   0.757   7.331 -0.6239 -0.2727  0.4701
  169SAPE  C21319108   6.531   0.706   7.149 -0.0617  0.5330  0.7580
  169SAPE  H13R19109   6.532   0.726   7.040 -0.6745 -4.5225 -0.3964
  169SAPE  H13S19110   6.518   0.596   7.153  0.9346  0.4180  1.0172
  169SAPE  C21419111   6.661   0.750   7.214  0.2486 -0.3704  0.4172
  169SAPE  H14R19112   6.734   0.780   7.137  0.0479 -0.2795  0.2581
  169SAPE  C21519113   6.702   0.727   7.340  0.9107  0.2391  0.4795
  169SAPE  H15R19114   6.807   0.749   7.365  0.2467  0.6629  3.1753
  169SAPE  C21619115   6.641   0.652   7.450  0.1700 -0.3468  0.5034
  169SAPE  H16R19116   6.702   0.562   7.474  0.8254 -1.0858 -3.1892
  169SAPE  H16S19117   6.545   0.604   7.422  0.0953  0.9835 -1.7813
  169SAPE  C21719118   6.620   0.738   7.579  0.2673  0.5578 -0.3887
  169SAPE  H17R19119   6.555   0.824   7.551  0.1706  1.1376  1.4536
  169SAPE  H17S19120   6.713   0.782   7.620 -1.8301  3.1160  2.1474
  169SAPE  C21819121   6.559   0.654   7.691 -0.2001  0.1474  0.8266
  169SAPE  H18R19122   6.540   0.725   7.774  1.2528 -1.0461  2.2454
  169SAPE  H18S19123   6.637   0.586   7.729 -0.0505 -0.6171 -0.7510
  169SAPE  C21919124   6.430   0.568   7.653  0.0945 -0.4106 -0.9269
  169SAPE  H19R19125   6.459   0.493   7.577 -1.7672 -3.0667  0.8247
  169SAPE  H19S19126   6.352   0.630   7.602 -1.3741 -0.5077  1.0630
  169SAPE  C22019127   6.358   0.494   7.771 -0.2708  0.2202 -0.1881
  169SAPE  H20R19128   6.343   0.566   7.854  0.7061  1.5089 -1.1069
  169SAPE  H20S19129   6.424   0.408   7.793  0.0317 -0.4114 -3.1400
  169SAPE  H20T19130   6.257   0.455   7.744  0.2790 -1.6386  0.2840
  169SAPE   C3319131   5.922   2.221   6.839 -0.1171  0.4013 -0.3743
  169SAPE   H3X19132   5.845   2.142   6.854  0.9713 -0.4596  0.9393
  169SAPE   H3Y19133   5.880   2.308   6.783 -1.9443 -1.3686 -1.9283
  169SAPE   C3419134   5.950   2.273   6.981 -0.6496  0.2425 -0.4904
  169SAPE   H4X19135   5.861   2.315   7.031 -0.2402 -1.2456  1.6004
  169SAPE   H4Y19136   6.021   2.358   6.967  1.2803 -1.3937 -1.2383
  169SAPE   C3519137   6.013   2.172   7.077 -0.3117 -0.3729 -0.4195
  169SAPE   H5X19138   6.120   2.145   7.071 -0.5698 -1.7367  0.6082
  169SAPE   H5Y19139   5.956   2.077   7.083 -0.3290 -0.2793  1.6703
  169SAPE   C3619140   6.027   2.240   7.220  0.4358  0.6826  0.0308
  169SAPE   H6X19141   5.931   2.287   7.251 -0.4020 -0.5080 -0.6791
  169SAPE   H6Y19142   6.094   2.328   7.220  0.8727  0.3680 -1.0500
  169SAPE   C3719143   6.067   2.134   7.327  0.0291  0.3867 -0.6516
  169SAPE   H7X19144   6.090   2.189   7.420  2.6339 -1.3845 -0.1550
  169SAPE   H7Y19145   6.169   2.099   7.302 -0.9631 -3.0511 -0.3855
  169SAPE   C3819146   5.970   2.017   7.361  0.1008  1.0269  0.3066
  169SAPE   H8X19147   5.952   1.962   7.267 -0.4754  1.1861  0.3155
  169SAPE   H8Y19148   5.880   2.064   7.407 -1.0667 -1.3098  0.5293
  169SAPE   C3919149   6.051   1.933   7.452 -0.4445  0.4527  0.1351
  169SAPE   H9X19150   6.077   1.993   7.542 -2.3196 -2.0264  2.5434
  169SAPE   H9Y19151   6.144   1.891   7.407 -0.1660  1.8238 -0.5937
  169SAPE  C31019152   5.966   1.816   7.507 -0.3237  0.3632 -0.4614
  169SAPE  H10X19153   5.962   1.752   7.416 -0.4334 -2.6961  1.5435
  169SAPE  H10Y19154   5.867   1.853   7.542  0.1295  3.3025 -1.9554
  169SAPE  C31119155   6.032   1.738   7.628  0.1556 -0.6767 -0.0230
  169SAPE  H11X19156   6.141   1.746   7.609  0.0263  1.0138 -0.2832
  169SAPE  H11Y19157   6.000   1.632   7.621 -1.5250 -0.1690 -0.5459
  169SAPE  C31219158   5.991   1.803   7.762  0.0853 -0.4008 -0.7369
  169SAPE  H12X19159   5.881   1.794   7.771 -0.1854  3.2606  2.1000
  169SAPE  H12Y19160   6.019   1.911   7.759 -0.7193 -0.0253  2.4097
  169SAPE  C31319161   6.064   1.744   7.879  0.3622  0.9298  0.2641
  169SAPE  H13X19162   6.170   1.774   7.865  1.0517 -0.7167  1.6023
  169SAPE  H13Y19163   6.066   1.634   7.892 -1.6208  0.9750  1.3478
  169SAPE  C31419164   6.006   1.804   8.006  0.3449  0.5235  0.3125
  169SAPE  H14X19165   5.908   1.769   8.046 -0.2111  2.2441  0.5381
  169SAPE  H14Y19166   5.985   1.909   7.977  2.7014  0.7837 -0.6945
  169SAPE  C31519167   6.117   1.797   8.110  0.2267 -1.4752 -1.3622
  169SAPE  H15X19168   6.091   1.868   8.192  0.3409 -1.1404 -1.6168
  169SAPE  H15Y19169   6.220   1.827   8.082  0.6848  1.9301  2.8559
  169SAPE  C31619170   6.113   1.658   8.172  0.6076  0.2666  0.0480
  169SAPE  H16X19171   6.183   1.591   8.118  0.5896  0.1580  0.1628
  169SAPE  H16Y19172   6.012   1.619   8.148  0.8615 -0.9995  0.9861
  169SAPE  C31719173   6.130   1.648   8.326 -0.2866  0.4700  0.0970
  169SAPE  H17X19174   6.081   1.723   8.391  0.1194  0.2556  0.6529
  169SAPE  H17Y19175   6.239   1.667   8.340  0.3942 -1.5577 -1.8365
  169SAPE  C31819176   6.098   1.505   8.364 -0.0488  0.4422  0.2404
  169SAPE  H18X19177   5.992   1.497   8.334  0.5900 -2.5090 -1.5542
  169SAPE  H18Y19178   6.117   1.477   8.470 -0.6237  0.7694  0.4337
  169SAPE  H18Z19179   6.157   1.444   8.292  0.3164 -0.0065  0.9043
  170SAPE     N19180   0.338   5.530   6.287  0.0625 -0.6304  0.0483
  170SAPE   HN119181   0.245   5.573   6.270  0.9796  1.6287  0.4209
  170SAPE   HN219182   0.393   5.607   6.329  0.3187 -1.6092  1.6097
  170SAPE   HN319183   0.396   5.506   6.205  1.0638  0.1899  0.5006
  170SAPE   C1219184   0.331   5.412   6.382 -0.3173 -0.1975  0.1592
  170SAPE  H12A19185   0.251   5.349   6.337  0.1290 -1.2220  0.7696
  170SAPE  H12B19186   0.295   5.449   6.481  2.3573  0.4255  0.9856
  170SAPE   C1119187   0.466   5.338   6.397  0.1630  0.6790  0.6530
  170SAPE  H11A19188   0.483   5.306   6.502  2.8930  1.0451  0.3830
  170SAPE  H11B19189   0.538   5.421   6.379 -0.4164  0.6338 -2.5749
  170SAPE     P19190   0.407   5.101   6.287  0.5009  0.0549 -0.4891
  170SAPE   O1319191   0.281   5.127   6.210  0.0735  0.3990  0.5946
  170SAPE   O1419192   0.501   4.998   6.242 -0.4210  0.3367 -0.4108
  170SAPE   O1219193   0.494   5.237   6.297 -0.0987  0.2253 -0.1282
  170SAPE   O1119194   0.365   5.082   6.445 -0.6324  0.4027  1.0268
  170SAPE    C119195   0.242   5.026   6.485  0.2970  0.9388 -0.3990
  170SAPE    HA19196   0.159   5.011   6.413 -1.3551 -1.4896  1.8355
  170SAPE    HB19197   0.274   4.930   6.531 -3.6606 -0.3937 -0.0934
  170SAPE    C219198   0.193   5.124   6.595  0.1391  0.5664  0.4042
  170SAPE    HS19199   0.169   5.222   6.549 -0.2614 -0.0776 -0.8280
  170SAPE   O2119200   0.285   5.122   6.700 -0.1860 -0.3547 -0.1727
  170SAPE   C2119201   0.298   5.230   6.766  0.1822  0.1646 -0.3768
  170SAPE   O2219202   0.258   5.341   6.738 -0.6075 -0.5349  0.1252
  170SAPE   C2219203   0.393   5.191   6.880 -1.2974  0.0415  0.0932
  170SAPE   H2R19204   0.411   5.081   6.876 -1.0461  0.1137 -2.2885
  170SAPE   H2S19205   0.491   5.235   6.850 -1.7111  0.1000 -1.2059
  170SAPE    C319206   0.053   5.062   6.639 -0.0625 -0.6192  0.0834
  170SAPE    HX19207   0.069   4.957   6.671  1.5619 -1.3371 -2.7362
  170SAPE    HY19208  -0.001   5.063   6.541 -0.8027  1.4355  0.4589
  170SAPE   O3119209  -0.010   5.141   6.740  0.0504  0.7935 -0.2294
  170SAPE   C3119210  -0.099   5.222   6.692 -0.2829 -0.5409 -0.7714
  170SAPE   O3219211  -0.144   5.232   6.580 -0.2403 -0.1149  0.2875
  170SAPE   C3219212  -0.163   5.299   6.811 -1.0867  0.7563 -0.8980
  170SAPE   H2X19213  -0.260   5.253   6.840 -1.5162  0.3384 -2.8191
  170SAPE   H2Y19214  -0.168   5.405   6.779  0.6360  1.2823  0.4731
  170SAPE   C2319215   0.333   5.220   7.016  0.4077  0.3836  0.2314
  170SAPE   H3R19216   0.227   5.187   7.027  0.7755 -0.9590 -0.1451
  170SAPE   H3S19217   0.350   5.329   7.029  2.1012  0.1552  0.1761
  170SAPE   C2419218   0.407   5.154   7.141  0.1437  0.2509 -0.0928
  170SAPE   H4R19219   0.410   5.045   7.125  1.4545  0.4048 -1.0163
  170SAPE   H4S19220   0.342   5.170   7.229 -0.9876 -0.6703 -0.7345
  170SAPE   C2519221   0.548   5.205   7.165  0.1854 -0.2484 -0.2565
  170SAPE   H5R19222   0.579   5.293   7.107 -0.4204  0.5232  0.5721
  170SAPE   C2619223   0.627   5.142   7.249  0.3580 -0.1674 -0.0954
  170SAPE   H6R19224   0.727   5.188   7.256 -0.6374  2.4403 -1.4678
  170SAPE   C2719225   0.596   5.019   7.336  0.6997 -0.6517  0.0890
  170SAPE   H7R19226   0.691   4.966   7.360  1.3768 -0.1075 -1.2434
  170SAPE   H7S19227   0.538   4.945   7.275  0.6701 -2.2567  1.9693
  170SAPE   C2819228   0.514   5.051   7.460  0.4983  0.1880 -0.0136
  170SAPE   H8R19229   0.409   5.077   7.442  0.3555 -1.4442 -1.7861
  170SAPE   C2919230   0.563   5.061   7.588 -0.2001  0.6998  0.0740
  170SAPE   H9R19231   0.487   5.090   7.662 -3.0493 -0.8790 -2.0415
  170SAPE  C21019232   0.706   5.031   7.630  0.1035  0.6588 -0.7402
  170SAPE  H10R19233   0.775   5.044   7.544  0.3687 -1.7020 -0.9492
  170SAPE  H10S19234   0.723   4.923   7.651  0.7570  0.9787  0.4888
  170SAPE  C21119235   0.750   5.121   7.742 -0.2467  0.1246  0.4186
  170SAPE  H11R19236   0.805   5.212   7.713  2.1389 -1.5529 -0.7078
  170SAPE  C21219237   0.724   5.112   7.873 -1.3305  0.6873  0.1634
  170SAPE  H12R19238   0.751   5.204   7.926 -1.9508  0.0199  1.6847
  170SAPE  C21319239   0.651   5.000   7.940  0.4576 -0.6556 -0.2836
  170SAPE  H13R19240   0.732   4.959   8.004  0.8259  0.3265 -0.0976
  170SAPE  H13S19241   0.610   4.931   7.863 -0.7036  1.6347 -1.8699
  170SAPE  C21419242   0.532   5.037   8.033  0.4539  1.0851  0.2794
  170SAPE  H14R19243   0.429   5.031   7.994  0.3804  0.6231  0.5321
  170SAPE  C21519244   0.547   5.075   8.162  0.2778 -0.4528  0.6540
  170SAPE  H15R19245   0.462   5.089   8.229  0.0931  2.9623 -0.1105
  170SAPE  C21619246   0.678   5.101   8.233 -0.3371  0.2571  0.2880
  170SAPE  H16R19247   0.767   5.081   8.170  0.7006  1.0066  1.4693
  170SAPE  H16S19248   0.682   5.033   8.321 -1.0711  0.2047  0.2856
  170SAPE  C21719249   0.694   5.243   8.276  0.2879  0.0824 -0.4592
  170SAPE  H17R19250   0.683   5.319   8.196 -1.5171  2.9340  2.2736
  170SAPE  H17S19251   0.789   5.234   8.334  0.1246 -3.0728 -0.5096
  170SAPE  C21819252   0.590   5.289   8.389  0.4378  0.2423 -0.8904
  170SAPE  H18R19253   0.494   5.310   8.337  1.1928  0.4414 -2.2685
  170SAPE  H18S19254   0.619   5.380   8.444 -1.2074  0.5294 -0.4555
  170SAPE  C21919255   0.578   5.180   8.501  0.0186 -0.6900 -0.0932
  170SAPE  H19R19256   0.669   5.118   8.511  0.9665  0.7473  0.5205
  170SAPE  H19S19257   0.498   5.107   8.474  0.9093 -1.2714 -1.2589
  170SAPE  C22019258   0.519   5.247   8.634  0.3288  0.0419  0.6407
  170SAPE  H20R19259   0.605   5.303   8.676  0.3017  1.3362 -0.9628
  170SAPE  H20S19260   0.488   5.179   8.717 -3.5079  0.0855 -0.5618
  170SAPE  H20T19261   0.435   5.315   8.606 -0.3636 -1.5487 -1.3772
  170SAPE   C3319262  -0.070   5.313   6.935 -0.3195 -0.3958  0.0998
  170SAPE   H3X19263   0.027   5.360   6.911 -0.4590  0.3019  0.8757
  170SAPE   H3Y19264  -0.041   5.211   6.970 -0.6378 -0.6078 -0.2452
  170SAPE   C3419265  -0.126   5.395   7.045  0.3187  0.1435 -0.3691
  170SAPE   H4X19266  -0.224   5.352   7.076 -0.1833  0.7271 -1.0967
  170SAPE   H4Y19267  -0.150   5.499   7.014  1.0229  0.7655  1.0611
  170SAPE   C3519268  -0.025   5.399   7.163 -0.3401  0.6009  0.5181
  170SAPE   H5X19269   0.076   5.402   7.116 -1.1195 -1.2048 -1.4064
  170SAPE   H5Y19270  -0.022   5.298   7.209 -0.1010  0.5083  0.3003
  170SAPE   C3619271  -0.041   5.499   7.269 -0.2977 -0.5810 -0.3405
  170SAPE   H6X19272  -0.120   5.477   7.344  1.0491 -3.5275  0.3263
  170SAPE   H6Y19273  -0.061   5.601   7.228 -0.4022 -0.7884 -0.8041
  170SAPE   C3719274   0.093   5.512   7.350 -0.4514 -0.1430  0.7769
  170SAPE   H7X19275   0.102   5.610   7.403 -0.0786 -0.1616  0.7532
  170SAPE   H7Y19276   0.181   5.513   7.281  0.0585 -2.1464  1.3482
  170SAPE   C3819277   0.118   5.403   7.454 -0.0475 -0.3451  0.6522
  170SAPE   H8X19278   0.160   5.314   7.403  1.3398  0.7295 -0.1713
  170SAPE   H8Y19279   0.026   5.381   7.512 -1.6403 -0.0781 -1.6004
  170SAPE   C3919280   0.221   5.447   7.565  0.9512  0.1708 -0.3899
  170SAPE   H9X19281   0.187   5.542   7.612  1.3795  0.6556 -1.0453
  170SAPE   H9Y19282   0.322   5.470   7.526  1.1879 -0.2337 -0.0245
  170SAPE  C31019283   0.234   5.339   7.677  0.0186 -0.0837 -0.5546
  170SAPE  H10X19284   0.246   5.240   7.627 -0.2618  0.4943 -1.8240
  170SAPE  H10Y19285   0.137   5.349   7.729  0.1748 -0.5016 -0.1807
  170SAPE  C31119286   0.341   5.365   7.783  0.1988  0.5466  0.2010
  170SAPE  H11X19287   0.395   5.460   7.761  0.6287 -0.3817 -3.4660
  170SAPE  H11Y19288   0.413   5.284   7.760  1.1156  1.1480  0.8995
  170SAPE  C31219289   0.290   5.358   7.928 -0.1465  0.0460  0.5040
  170SAPE  H12X19290   0.253   5.257   7.955  1.3629 -0.4335  0.8573
  170SAPE  H12Y19291   0.209   5.431   7.949  1.4401  1.9788  0.2374
  170SAPE  C31319292   0.404   5.388   8.020 -0.0838  0.7143 -0.4289
  170SAPE  H13X19293   0.475   5.460   7.974 -0.9432  1.0491 -1.2467
  170SAPE  H13Y19294   0.460   5.301   8.060 -2.2714 -0.7384 -0.3702
  170SAPE  C31419295   0.354   5.455   8.156 -0.5055  0.6283 -0.4937
  170SAPE  H14X19296   0.327   5.561   8.135  1.0258  0.7837 -1.9471
  170SAPE  H14Y19297   0.436   5.470   8.230 -0.4376  1.8584 -0.7913
  170SAPE  C31519298   0.252   5.364   8.227 -0.1965 -1.1547  0.0540
  170SAPE  H15X19299   0.299   5.266   8.250  0.7454 -1.7718 -3.7012
  170SAPE  H15Y19300   0.166   5.344   8.159 -0.6556  2.0676 -0.4549
  170SAPE  C31619301   0.200   5.416   8.357  0.0016 -0.0058  0.1423
  170SAPE  H16X19302   0.275   5.444   8.435 -2.2750 -0.8991  2.8187
  170SAPE  H16Y19303   0.141   5.337   8.408  0.2214 -1.1304 -1.2898
  170SAPE  C31719304   0.109   5.538   8.331  0.2638 -0.7268 -0.7366
  170SAPE  H17X19305   0.035   5.519   8.250  1.7843  0.1408 -2.4042
  170SAPE  H17Y19306   0.164   5.626   8.293 -0.8032 -0.6703 -2.2721
  170SAPE  C31819307   0.031   5.585   8.452 -0.2520 -0.3584 -0.3716
  170SAPE  H18X19308  -0.068   5.535   8.462  0.2994 -1.0499  3.0014
  170SAPE  H18Y19309   0.011   5.694   8.440  1.0833  0.0856  1.1252
  170SAPE  H18Z19310   0.083   5.567   8.549 -4.1093  0.6566  2.1574
  171SAPE     N19311   4.247   0.223   6.307 -0.6467  0.4593 -0.2657
  171SAPE   HN119312   4.191   0.281   6.241 -1.8362  0.7825  0.9903
  171SAPE   HN219313   4.266   0.295   6.380  0.8188  1.1442 -1.2645
  171SAPE   HN319314   4.340   0.210   6.262 -0.0313 -0.4933  1.2025
  171SAPE   C1219315   4.178   0.099   6.353 -0.5388 -0.1063  0.4165
  171SAPE  H12A19316   4.249   0.024   6.394  0.0155  0.0185 -0.2992
  171SAPE  H12B19317   4.129   0.058   6.261 -1.1715 -1.8786  1.4843
  171SAPE   C1119318   4.064   0.134   6.455 -0.0027  0.0163 -0.2182
  171SAPE  H11A19319   4.099   0.201   6.536  0.7770 -0.0349 -0.5022
  171SAPE  H11B19320   4.037   0.039   6.505 -0.4433  0.7605  0.9833
  171SAPE     P19321   3.812   0.157   6.371 -0.2778 -0.0460  0.0119
  171SAPE   O1319322   3.720   0.266   6.344 -0.0912  0.8163  0.0151
  171SAPE   O1419323   3.821   0.055   6.265 -0.7121  0.2044  0.0277
  171SAPE   O1219324   3.957   0.205   6.392 -0.1204 -0.3888 -0.2150
  171SAPE   O1119325   3.778   0.085   6.511 -0.4438 -0.2797 -0.2201
  171SAPE    C119326   3.717   0.144   6.624  0.3121  0.5600  0.0043
  171SAPE    HA19327   3.768   0.239   6.651 -1.8024  3.0546 -3.8402
  171SAPE    HB19328   3.613   0.173   6.600  0.3275 -0.7893 -1.8180
  171SAPE    C219329   3.712   0.042   6.743  0.9646 -0.2189  0.1031
  171SAPE    HS19330   3.630  -0.024   6.707  1.3977 -0.5411 -0.3080
  171SAPE   O2119331   3.680   0.101   6.874  0.4517 -0.3094  0.7227
  171SAPE   C2119332   3.566   0.161   6.896  0.0740 -0.4528 -0.0342
  171SAPE   O2219333   3.458   0.137   6.837 -0.4429  0.3543 -0.0863
  171SAPE   C2219334   3.597   0.279   6.995  1.1691 -0.0587 -0.1110
  171SAPE   H2R19335   3.706   0.279   7.011  1.5803  3.3937 -1.9051
  171SAPE   H2S19336   3.566   0.379   6.956 -0.6482 -0.3061  0.5745
  171SAPE    C319337   3.839  -0.045   6.759  0.5957  0.4112  1.2529
  171SAPE    HX19338   3.919   0.029   6.785  0.6213  0.8713 -0.0633
  171SAPE    HY19339   3.854  -0.088   6.658 -0.0020 -1.9725  2.1090
  171SAPE   O3119340   3.837  -0.146   6.864 -0.1606  0.3336 -0.9150
  171SAPE   C3119341   3.761  -0.243   6.849  0.1809  0.8415 -0.4218
  171SAPE   O3219342   3.685  -0.264   6.756  0.5033  0.6200 -0.1309
  171SAPE   C3219343   3.779  -0.340   6.973  0.0738  0.3048  0.6559
  171SAPE   H2X19344   3.816  -0.281   7.059  0.8999  0.2721  0.3303
  171SAPE   H2Y19345   3.861  -0.407   6.939 -1.2506  0.3638 -3.1347
  171SAPE   C2319346   3.526   0.245   7.132  0.1618  0.4049  1.0531
  171SAPE   H3R19347   3.419   0.272   7.122  0.2303 -0.0341 -1.5120
  171SAPE   H3S19348   3.581   0.316   7.197  2.6827  1.0172 -1.4955
  171SAPE   C2419349   3.538   0.103   7.175 -0.3811  0.5402 -1.0262
  171SAPE   H4R19350   3.477   0.048   7.100 -0.7381  0.2847 -0.5559
  171SAPE   H4S19351   3.482   0.082   7.269  0.2102 -0.6416 -0.9187
  171SAPE   C2519352   3.678   0.046   7.190  0.3433  0.7948  0.2365
  171SAPE   H5R19353   3.736   0.055   7.096 -0.0146  1.5950  0.0815
  171SAPE   C2619354   3.745   0.012   7.302  0.4099 -0.0335  0.2091
  171SAPE   H6R19355   3.849  -0.020   7.288  0.7282  0.6714  0.8519
  171SAPE   C2719356   3.696  -0.004   7.446 -0.0478 -0.5034 -0.3174
  171SAPE   H7R19357   3.622   0.077   7.464 -1.9599 -1.4959 -2.9593
  171SAPE   H7S19358   3.790   0.014   7.502  1.2854 -3.2520 -1.4705
  171SAPE   C2819359   3.626  -0.129   7.486  0.4307 -0.0271 -0.6908
  171SAPE   H8R19360   3.546  -0.162   7.418 -1.5721 -0.3029  1.6875
  171SAPE   C2919361   3.655  -0.191   7.605  0.4613  0.0289  0.7843
  171SAPE   H9R19362   3.605  -0.285   7.632 -1.6673  1.0740  0.6823
  171SAPE  C21019363   3.751  -0.145   7.708 -0.2812  0.2691  0.0224
  171SAPE  H10R19364   3.844  -0.132   7.649 -0.0330  1.1281  0.5835
  171SAPE  H10S19365   3.779  -0.221   7.784 -0.6111 -0.9766 -1.0628
  171SAPE  C21119366   3.728  -0.009   7.773 -0.7304  0.3498  0.8319
  171SAPE  H11R19367   3.733   0.078   7.707 -1.4878  0.1451  0.4953
  171SAPE  C21219368   3.702   0.007   7.904 -0.2003 -0.5911  0.5426
  171SAPE  H12R19369   3.685   0.108   7.943 -0.5898  0.0668 -1.2690
  171SAPE  C21319370   3.688  -0.094   8.013  0.7041  0.8909  0.6999
  171SAPE  H13R19371   3.628  -0.181   7.979  0.5830  1.3906 -0.4149
  171SAPE  H13S19372   3.617  -0.045   8.083 -0.4400  0.5145 -0.1603
  171SAPE  C21419373   3.807  -0.141   8.087 -0.5162 -0.2174 -0.4176
  171SAPE  H14R19374   3.901  -0.121   8.035 -0.8122  0.0843 -0.8480
  171SAPE  C21519375   3.804  -0.185   8.214 -0.0025  0.9885  0.6879
  171SAPE  H15R19376   3.892  -0.218   8.271 -0.3444 -0.9364  0.1710
  171SAPE  C21619377   3.670  -0.209   8.288  0.6319 -0.0575  0.0886
  171SAPE  H16R19378   3.646  -0.317   8.276 -0.1196  0.1643 -0.4635
  171SAPE  H16S19379   3.583  -0.160   8.240  1.3312  0.3424 -0.8009
  171SAPE  C21719380   3.657  -0.167   8.438  0.4846  0.2874  0.5104
  171SAPE  H17R19381   3.732  -0.221   8.501  1.2087  0.9226  0.2160
  171SAPE  H17S19382   3.559  -0.209   8.468  0.7661 -0.1376  0.8361
  171SAPE  C21819383   3.658  -0.012   8.448  0.0066  0.1695  0.0229
  171SAPE  H18R19384   3.582   0.029   8.378  0.7715  1.0684 -0.2918
  171SAPE  H18S19385   3.750   0.028   8.402 -2.2676  1.3721 -3.9754
  171SAPE  C21919386   3.628   0.047   8.593 -0.2502 -0.0505  0.0425
  171SAPE  H19R19387   3.522   0.017   8.610  0.4516 -2.2287  0.8826
  171SAPE  H19S19388   3.637   0.157   8.583  2.0271 -0.3492 -2.3822
  171SAPE  C22019389   3.709  -0.016   8.701 -0.8325 -0.1296 -0.3291
  171SAPE  H20R19390   3.699   0.046   8.793  1.9747  1.3458 -0.9191
  171SAPE  H20S19391   3.817  -0.020   8.675 -0.3776 -0.6250  1.4741
  171SAPE  H20T19392   3.670  -0.120   8.704 -0.4445 -0.2779  2.1277
  171SAPE   C3319393   3.664  -0.436   6.998 -0.0785 -0.0588  0.2167
  171SAPE   H3X19394   3.648  -0.488   6.901  0.3312 -1.5894  0.9418
  171SAPE   H3Y19395   3.577  -0.376   7.031  0.5912  1.4924 -0.7317
  171SAPE   C3419396   3.686  -0.552   7.097 -0.2759 -0.1750 -0.0935
  171SAPE   H4X19397   3.790  -0.593   7.103 -0.9264 -1.9557 -0.3100
  171SAPE   H4Y19398   3.613  -0.633   7.074  1.9093 -2.0937 -0.7203
  171SAPE   C3519399   3.651  -0.511   7.244 -0.2039 -0.0173 -0.4309
  171SAPE   H5X19400   3.550  -0.465   7.238  0.6281  2.0137  0.1876
  171SAPE   H5Y19401   3.727  -0.434   7.271  2.4705 -0.9516 -4.2482
  171SAPE   C3619402   3.651  -0.624   7.349  0.0288 -0.1465 -0.1561
  171SAPE   H6X19403   3.753  -0.665   7.338  0.0976 -0.0963  0.2847
  171SAPE   H6Y19404   3.574  -0.701   7.326 -1.4196  0.6827  1.6316
  171SAPE   C3719405   3.633  -0.561   7.483  0.2064  0.5812  0.3181
  171SAPE   H7X19406   3.533  -0.516   7.501 -2.2821 -3.5654 -1.4358
  171SAPE   H7Y19407   3.706  -0.481   7.505  0.0112  0.5888  0.9726
  171SAPE   C3819408   3.672  -0.662   7.594  0.5932  0.1713 -0.0944
  171SAPE   H8X19409   3.775  -0.704   7.591  0.2795 -0.7235  0.9016
  171SAPE   H8Y19410   3.600  -0.745   7.579  0.4367  0.6212 -2.1695
  171SAPE   C3919411   3.658  -0.593   7.736 -0.1622 -0.3573  0.0170
  171SAPE   H9X19412   3.563  -0.535   7.740  0.5074  0.7954 -0.1851
  171SAPE   H9Y19413   3.737  -0.517   7.757  2.3181 -2.8595  0.3321
  171SAPE  C31019414   3.643  -0.688   7.861 -0.7635  0.2737 -0.3324
  171SAPE  H10X19415   3.725  -0.762   7.862  0.3722  1.4795  0.1599
  171SAPE  H10Y19416   3.545  -0.740   7.858  0.1440 -1.5788  0.7887
  171SAPE  C31119417   3.666  -0.621   7.993  0.4924 -0.4893 -0.2652
  171SAPE  H11X19418   3.582  -0.550   8.008  1.5035  0.1441  3.7684
  171SAPE  H11Y19419   3.758  -0.559   8.002  1.1401 -1.3033 -1.0585
  171SAPE  C31219420   3.665  -0.716   8.114 -0.0137 -0.1168 -0.3650
  171SAPE  H12X19421   3.750  -0.786   8.101  1.3476  1.4664 -0.3064
  171SAPE  H12Y19422   3.585  -0.793   8.105  2.4032 -2.6317 -2.0310
  171SAPE  C31319423   3.660  -0.661   8.259  0.2342  0.2782  0.3135
  171SAPE  H13X19424   3.568  -0.604   8.282 -1.1351 -2.4958  2.1958
  171SAPE  H13Y19425   3.745  -0.591   8.276 -0.2560  0.6203  1.4062
  171SAPE  C31419426   3.662  -0.776   8.357 -0.9951 -0.2658 -0.9562
  171SAPE  H14X19427   3.757  -0.833   8.346  0.6106  1.8505  0.9330
  171SAPE  H14Y19428   3.577  -0.843   8.330 -1.8093 -0.3535  1.5493
  171SAPE  C31519429   3.622  -0.735   8.502  0.2622  0.1962  0.3509
  171SAPE  H15X19430   3.523  -0.683   8.502  0.5122  0.6792  0.4324
  171SAPE  H15Y19431   3.706  -0.667   8.529 -0.3597  1.4002 -0.6255
  171SAPE  C31619432   3.625  -0.847   8.611  0.6025  0.4602  0.5610
  171SAPE  H16X19433   3.642  -0.810   8.715  0.5809 -1.9379  1.4812
  171SAPE  H16Y19434   3.703  -0.924   8.596 -0.8971 -1.3150  1.4186
  171SAPE  C31719435   3.495  -0.936   8.619 -1.0263  0.1788 -0.4078
  171SAPE  H17X19436   3.527  -1.024   8.679  1.0547  0.9696 -0.2710
  171SAPE  H17Y19437   3.471  -0.977   8.519  0.1376 -0.8456 -0.2939
  171SAPE  C31819438   3.375  -0.865   8.680 -0.0984  0.3785  0.7533
  171SAPE  H18X19439   3.316  -0.936   8.741  0.2173  0.5098  1.2179
  171SAPE  H18Y19440   3.315  -0.825   8.596  0.3506  0.4070  0.4407
  171SAPE  H18Z19441   3.405  -0.789   8.756 -0.5619  0.2675  1.0501
  172SAPE     N19442   1.895   0.190   5.991 -0.1010 -0.5475  0.4003
  172SAPE   HN119443   1.859   0.208   6.087 -0.9839 -0.1469  0.0054
  172SAPE   HN219444   1.822   0.145   5.933 -1.0681  0.6921  0.6333
  172SAPE   HN319445   1.974   0.122   5.997  1.2901  0.8242 -1.3777
  172SAPE   C1219446   1.939   0.317   5.931  0.8370 -1.1854 -0.5017
  172SAPE  H12A19447   1.875   0.331   5.841 -1.5895 -0.3057  1.2557
  172SAPE  H12B19448   2.048   0.330   5.912  1.0639 -2.3257 -0.0514
  172SAPE   C1119449   1.920   0.441   6.029  0.6399  0.0877 -0.1024
  172SAPE  H11A19450   1.940   0.526   5.959 -0.1794 -0.3616 -0.9085
  172SAPE  H11B19451   1.996   0.452   6.109  2.6456  1.1574 -2.0658
  172SAPE     P19452   1.726   0.571   6.147 -0.0268  0.0404 -0.1006
  172SAPE   O1319453   1.750   0.699   6.073 -0.9573  0.2509  0.3364
  172SAPE   O1419454   1.581   0.550   6.188  0.0589 -0.1370  0.6837
  172SAPE   O1219455   1.780   0.444   6.066 -0.1479  0.2071 -0.4590
  172SAPE   O1119456   1.823   0.574   6.282  0.1561 -0.2440  0.2812
  172SAPE    C119457   1.782   0.511   6.409 -0.1526  0.0589 -0.1018
  172SAPE    HA19458   1.723   0.582   6.471  0.5731 -1.7461  2.8875
  172SAPE    HB19459   1.714   0.425   6.392  0.0758  0.1874 -1.8682
  172SAPE    C219460   1.903   0.452   6.491  0.8613  1.0052  0.4899
  172SAPE    HS19461   1.934   0.354   6.449  0.2656  1.0389 -0.0365
  172SAPE   O2119462   1.860   0.434   6.631  0.2128 -0.2731  0.5316
  172SAPE   C2119463   1.768   0.340   6.650 -0.3288  1.3363 -0.0786
  172SAPE   O2219464   1.732   0.259   6.572  0.3310  0.5774  0.5495
  172SAPE   C2219465   1.744   0.322   6.799  0.5184  0.6109  1.0048
  172SAPE   H2R19466   1.652   0.379   6.825 -2.2182 -3.9715  2.5435
  172SAPE   H2S19467   1.718   0.215   6.812 -0.2113  0.6008 -0.3181
  172SAPE    C319468   2.021   0.546   6.475 -0.0512 -0.7628 -1.2257
  172SAPE    HX19469   1.982   0.645   6.505 -1.1337 -1.1305 -1.3933
  172SAPE    HY19470   2.048   0.535   6.367 -1.4034 -0.4278 -1.6121
  172SAPE   O3119471   2.130   0.498   6.558 -0.8774 -0.7154  0.2124
  172SAPE   C3119472   2.141   0.548   6.680  0.1140 -0.0274  0.3395
  172SAPE   O3219473   2.075   0.640   6.729 -0.2932  0.2683  0.1468
  172SAPE   C3219474   2.249   0.466   6.757 -0.4562  0.1419  0.3957
  172SAPE   H2X19475   2.355   0.469   6.725  0.0068  0.0501  1.8343
  172SAPE   H2Y19476   2.212   0.361   6.755 -2.4163  0.7711  0.7195
  172SAPE   C2319477   1.864   0.362   6.884 -0.6011  0.4205  0.1747
  172SAPE   H3R19478   1.832   0.395   6.985  0.2747 -0.2827  0.6979
  172SAPE   H3S19479   1.909   0.454   6.843  0.7244 -0.1326  0.3255
  172SAPE   C2419480   1.972   0.256   6.901  1.1452 -0.5017  0.5715
  172SAPE   H4R19481   2.072   0.299   6.921  0.5016  1.7441 -0.6909
  172SAPE   H4S19482   1.987   0.214   6.799  0.2690  2.2998 -0.8058
  172SAPE   C2519483   1.917   0.147   6.990 -0.0781  0.2259 -0.0252
  172SAPE   H5R19484   1.832   0.096   6.943  1.1015 -0.0012 -2.0076
  172SAPE   C2619485   1.940   0.131   7.121  0.4573  0.3018  0.4381
  172SAPE   H6R19486   1.905   0.046   7.182 -2.4719  0.9701 -0.1589
  172SAPE   C2719487   2.031   0.204   7.207  0.8097 -0.7884  0.5550
  172SAPE   H7R19488   2.075   0.292   7.156 -0.3892 -1.2388 -1.3630
  172SAPE   H7S19489   2.111   0.130   7.225 -1.1759 -3.6686 -1.6050
  172SAPE   C2819490   1.971   0.261   7.334  0.2274 -0.1320  0.4998
  172SAPE   H8R19491   1.864   0.282   7.320  0.0323 -0.3387  1.6055
  172SAPE   C2919492   2.024   0.272   7.451  0.3239  0.1077 -0.5785
  172SAPE   H9R19493   1.969   0.326   7.530 -1.3972  0.0901 -1.7073
  172SAPE  C21019494   2.169   0.246   7.487  0.8048  0.4747  0.1267
  172SAPE  H10R19495   2.219   0.332   7.536  1.3618 -1.8214  4.0414
  172SAPE  H10S19496   2.222   0.223   7.393  0.0585  0.3036 -0.2656
  172SAPE  C21119497   2.206   0.130   7.573  0.4106 -0.0102 -0.1209
  172SAPE  H11R19498   2.256   0.040   7.532  1.0895  0.0187  0.6137
  172SAPE  C21219499   2.182   0.123   7.704  0.2099  0.0806 -0.2298
  172SAPE  H12R19500   2.214   0.038   7.766  1.3367  1.4499  1.1697
  172SAPE  C21319501   2.116   0.221   7.793 -0.1601 -0.3540 -0.1823
  172SAPE  H13R19502   2.071   0.305   7.735 -0.9534 -1.3994 -1.1412
  172SAPE  H13S19503   2.192   0.262   7.863  0.6434  0.5318 -1.5254
  172SAPE  C21419504   2.001   0.161   7.870  0.1222  0.3961  0.0746
  172SAPE  H14R19505   1.953   0.074   7.823  0.7507 -0.9080  1.7312
  172SAPE  C21519506   1.978   0.191   7.997  0.1880 -0.0145 -0.3585
  172SAPE  H15R19507   1.915   0.122   8.054 -3.2311  1.6201 -1.8711
  172SAPE  C21619508   2.037   0.298   8.093 -0.3083 -0.1959  0.5951
  172SAPE  H16R19509   1.958   0.351   8.150 -0.0262 -1.4460  2.2320
  172SAPE  H16S19510   2.087   0.380   8.037  4.4552 -4.0097 -1.4967
  172SAPE  C21719511   2.124   0.255   8.209  0.0370  0.0795 -0.0764
  172SAPE  H17R19512   2.147   0.338   8.279  0.3947 -1.6477  1.9701
  172SAPE  H17S19513   2.214   0.201   8.174 -0.4026 -1.8643  1.5767
  172SAPE  C21819514   2.043   0.158   8.305 -0.3314  0.1273  0.3068
  172SAPE  H18R19515   2.035   0.059   8.257  1.1022 -1.5435  3.2065
  172SAPE  H18S19516   1.943   0.203   8.324  0.1393  0.9281  0.9857
  172SAPE  C21919517   2.099   0.133   8.449  0.2518  0.4679  0.5221
  172SAPE  H19R19518   2.204   0.098   8.437 -0.0035 -0.8745  1.8027
  172SAPE  H19S19519   2.037   0.053   8.496 -0.1361 -0.5552 -1.6031
  172SAPE  C22019520   2.095   0.257   8.538 -0.7408  0.2328 -0.1048
  172SAPE  H20R19521   2.113   0.233   8.645 -1.2611 -0.4304 -0.1631
  172SAPE  H20S19522   2.004   0.318   8.523 -0.4744  0.2142 -2.2346
  172SAPE  H20T19523   2.178   0.326   8.511 -2.4351  2.2421 -0.4294
  172SAPE   C3319524   2.261   0.523   6.908  0.4833  0.6774 -1.0988
  172SAPE   H3X19525   2.164   0.535   6.960 -0.2103 -0.5542 -2.0563
  172SAPE   H3Y19526   2.303   0.624   6.890 -1.4081  1.4579 -1.3124
  172SAPE   C3419527   2.355   0.437   7.004  0.8670  0.3127  0.6621
  172SAPE   H4X19528   2.453   0.428   6.952 -1.0577 -1.0885 -3.1129
  172SAPE   H4Y19529   2.301   0.342   6.985  2.2558 -0.1936 -1.0353
  172SAPE   C3519530   2.353   0.489   7.143 -0.0867 -0.4220  0.2896
  172SAPE   H5X19531   2.252   0.484   7.189  1.2714  0.9646  3.7707
  172SAPE   H5Y19532   2.379   0.597   7.147  1.0747 -0.7089  0.7251
  172SAPE   C3619533   2.442   0.410   7.238 -0.2514 -0.9985 -0.4132
  172SAPE   H6X19534   2.545   0.425   7.201  0.0775 -1.6451  0.2328
  172SAPE   H6Y19535   2.413   0.303   7.236 -1.8264 -0.5863 -1.1350
  172SAPE   C3719536   2.447   0.477   7.379 -0.1332  0.5568 -0.1022
  172SAPE   H7X19537   2.344   0.509   7.406 -0.6626 -1.2220  0.1133
  172SAPE   H7Y19538   2.506   0.571   7.375 -0.8631  0.9839 -1.4867
  172SAPE   C3819539   2.507   0.390   7.484  0.7057 -0.0622  0.6015
  172SAPE   H8X19540   2.609   0.358   7.453  0.0300 -0.9574 -0.8006
  172SAPE   H8Y19541   2.445   0.300   7.503 -0.2641  0.5438  0.3797
  172SAPE   C3919542   2.492   0.466   7.618 -0.6479 -0.9648  0.8985
  172SAPE   H9X19543   2.383   0.487   7.623 -0.4019  0.9287 -0.5406
  172SAPE   H9Y19544   2.546   0.563   7.619  2.0164 -2.3585  1.2421
  172SAPE  C31019545   2.548   0.387   7.735 -0.4193 -0.2374  0.3456
  172SAPE  H10X19546   2.659   0.386   7.732 -0.3936 -0.5125  1.0895
  172SAPE  H10Y19547   2.522   0.279   7.724  2.0144 -0.7542 -1.1775
  172SAPE  C31119548   2.521   0.450   7.871 -0.4063 -0.7626 -0.1230
  172SAPE  H11X19549   2.415   0.482   7.869 -0.0166  0.8878  1.9126
  172SAPE  H11Y19550   2.596   0.532   7.875 -1.0152 -0.2469  1.4679
  172SAPE  C31219551   2.547   0.347   7.981  0.1994  0.0388 -0.0716
  172SAPE  H12X19552   2.652   0.313   7.987 -0.4440 -2.2798 -0.9104
  172SAPE  H12Y19553   2.481   0.260   7.961  1.9393 -1.3226 -0.1613
  172SAPE  C31319554   2.524   0.395   8.120 -0.7631 -0.4408 -0.3242
  172SAPE  H13X19555   2.418   0.428   8.126 -0.0714  1.6474  1.6157
  172SAPE  H13Y19556   2.584   0.485   8.144 -0.5548 -0.3506 -1.1295
  172SAPE  C31419557   2.545   0.279   8.224  0.0182  0.5687 -0.8693
  172SAPE  H14X19558   2.646   0.235   8.216 -0.4843 -0.2271 -3.5356
  172SAPE  H14Y19559   2.470   0.204   8.192  2.0938 -1.2183 -1.7474
  172SAPE  C31519560   2.514   0.316   8.372  0.2128 -0.3182  0.6611
  172SAPE  H15X19561   2.415   0.364   8.387  1.1328  2.2069 -0.6227
  172SAPE  H15Y19562   2.586   0.398   8.395 -0.9687  0.7317  0.7434
  172SAPE  C31619563   2.521   0.193   8.466 -0.2985 -0.1464  0.1755
  172SAPE  H16X19564   2.625   0.154   8.469 -0.4762 -0.7324 -0.7822
  172SAPE  H16Y19565   2.452   0.116   8.424  1.3057 -1.9652  0.6993
  172SAPE  C31719566   2.479   0.226   8.613 -0.6773  0.0224 -0.0957
  172SAPE  H17X19567   2.493   0.130   8.666 -0.8230 -1.3231 -2.3339
  172SAPE  H17Y19568   2.369   0.238   8.612 -0.7258 -0.3346  0.7994
  172SAPE  C31819569   2.549   0.333   8.688 -0.1563  0.3789  0.6261
  172SAPE  H18X19570   2.658   0.315   8.698 -0.4495 -0.6925  2.1364
  172SAPE  H18Y19571   2.500   0.340   8.787 -1.7539 -1.1854  0.0114
  172SAPE  H18Z19572   2.519   0.428   8.639 -2.5003 -0.4245  0.3432
  173SOPE     N19573   2.471   4.068  10.718  0.4155 -0.4235 -0.2509
  173SOPE   HN119574   2.410   4.104  10.793  2.0435  0.5077  0.6759
  173SOPE   HN219575   2.454   3.967  10.698  3.6760 -0.7557 -2.2398
  173SOPE   HN319576   2.568   4.083  10.752 -0.5650  0.8120  2.2300
  173SOPE   C1219577   2.454   4.147  10.584  0.0212 -0.2552 -0.6486
  173SOPE  H12A19578   2.431   4.252  10.613  0.1138 -0.5155  0.4330
  173SOPE  H12B19579   2.365   4.100  10.539 -1.1552  1.6622 -0.4373
  173SOPE   C1119580   2.580   4.151  10.499  0.1635 -0.5182  0.3637
  173SOPE  H11A19581   2.655   4.223  10.540 -1.9047  2.0394 -0.1260
  173SOPE  H11B19582   2.548   4.192  10.402 -1.6727 -3.4583 -0.3898
  173SOPE     P19583   2.596   3.923  10.371  0.1339 -0.0642 -0.1474
  173SOPE   O1319584   2.453   3.905  10.359  0.0539  0.6305  0.1442
  173SOPE   O1419585   2.679   3.797  10.382 -0.2651  0.2391 -0.2840
  173SOPE   O1219586   2.633   4.020  10.486 -0.5263 -0.0605 -0.3344
  173SOPE   O1119587   2.654   4.011  10.254  0.0288 -0.4523  0.0365
  173SOPE    C119588   2.788   4.024  10.201  0.2709 -0.2998 -0.6533
  173SOPE    HA19589   2.863   3.964  10.255  0.3521 -1.4440 -1.9962
  173SOPE    HB19590   2.812   4.131  10.218 -0.6339 -0.2392  0.3495
  173SOPE    C219591   2.789   3.988  10.046  0.4813  0.0757 -0.1896
  173SOPE    HS19592   2.776   3.878  10.033 -0.1283 -0.2259  2.4012
  173SOPE   O2119593   2.900   4.038   9.978  0.4762  0.1077 -0.2407
  173SOPE   C2119594   3.010   3.969   9.991  0.3152  0.1709  0.0766
  173SOPE   O2219595   3.019   3.857  10.036  0.1457 -0.5010 -0.4185
  173SOPE   C2219596   3.117   4.040   9.911 -0.4279  0.2336  0.4691
  173SOPE   H2R19597   3.213   3.987   9.926  0.1419  0.0262 -3.0498
  173SOPE   H2S19598   3.126   4.145   9.948 -0.7086  0.8568 -1.1707
  173SOPE    C319599   2.661   4.049   9.964 -0.3436  0.1072  0.1482
  173SOPE    HX19600   2.658   4.159   9.979 -0.3385 -0.1058  1.9761
  173SOPE    HY19601   2.582   4.008  10.031  0.3527  1.5031  1.9287
  173SOPE   O3119602   2.650   4.000   9.828  0.0171  0.2588 -0.1815
  173SOPE   C3119603   2.635   4.094   9.743  0.0292 -0.2356  0.0070
  173SOPE   O3219604   2.603   4.206   9.774  0.4023  0.7677 -0.2509
  173SOPE   C3219605   2.700   4.052   9.615  0.0547  0.5263 -0.0749
  173SOPE   H2X19606   2.654   3.953   9.590  0.3971  0.2251  0.4669
  173SOPE   H2Y19607   2.807   4.034   9.637 -0.3496  0.0038  1.6589
  173SOPE   C2319608   3.092   4.027   9.755 -0.2000  0.0152  0.6400
  173SOPE   H3R19609   3.137   4.118   9.709  0.5234 -0.4070  0.5125
  173SOPE   H3S19610   2.982   4.038   9.739 -0.0097  2.8280  0.7725
  173SOPE   C2419611   3.153   3.902   9.699  0.3150  0.2534 -0.2703
  173SOPE   H4R19612   3.263   3.913   9.708  0.4290 -1.4214  0.9698
  173SOPE   H4S19613   3.119   3.824   9.771  0.0275  0.6526  0.0283
  173SOPE   C2519614   3.106   3.870   9.554  0.0504  0.3321 -0.4416
  173SOPE   H5R19615   3.131   3.765   9.528  1.1185 -0.1903  2.3554
  173SOPE   H5S19616   2.995   3.873   9.553  0.0649  0.9461 -0.8356
  173SOPE   C2619617   3.155   3.969   9.437 -0.1920 -0.8859 -0.1610
  173SOPE   H6R19618   3.135   4.070   9.478 -0.6826 -0.4281 -1.5030
  173SOPE   H6S19619   3.262   3.949   9.418 -0.1906 -1.8884  0.7655
  173SOPE   C2719620   3.082   3.947   9.307  0.0607  0.2816  0.7089
  173SOPE   H7R19621   3.094   3.838   9.292  0.1363  0.2640  0.8994
  173SOPE   H7S19622   2.973   3.970   9.316  0.0927  0.7643 -0.0486
  173SOPE   C2819623   3.144   4.013   9.187 -0.4033  0.3510  0.0457
  173SOPE   H8R19624   3.160   4.119   9.215  0.8431  0.9912 -2.7012
  173SOPE   H8S19625   3.241   3.964   9.162  0.7864  1.8097  1.5891
  173SOPE   C2919626   3.058   3.998   9.066  0.7241 -0.3422  0.0118
  173SOPE   H9119627   2.980   4.076   9.057 -0.9425 -1.8442  0.8283
  173SOPE  C21019628   3.041   3.893   8.983  0.3020  0.0932 -0.4428
  173SOPE  H10119629   2.979   3.904   8.893  0.5522  3.4264 -0.3280
  173SOPE  C21119630   3.121   3.765   8.983 -0.1172 -0.2174 -0.3721
  173SOPE  H11R19631   3.053   3.677   8.976  0.7944 -0.8686 -1.4763
  173SOPE  H11S19632   3.178   3.753   9.077  0.6457 -0.2150 -0.8225
  173SOPE  C21219633   3.203   3.764   8.849  0.0035  0.3959 -0.1523
  173SOPE  H12R19634   3.275   3.849   8.851  1.5444 -0.8555  1.8850
  173SOPE  H12S19635   3.142   3.770   8.757  1.0294  0.5901 -0.8271
  173SOPE  C21319636   3.277   3.633   8.837  0.1648  0.0790 -0.3189
  173SOPE  H13R19637   3.340   3.594   8.920  1.8753 -0.0139 -1.5997
  173SOPE  H13S19638   3.334   3.650   8.743  0.0480 -0.3111 -0.4598
  173SOPE  C21419639   3.182   3.518   8.806 -0.4876 -0.6387  0.2914
  173SOPE  H14R19640   3.077   3.545   8.831 -0.2920  0.2212  0.2256
  173SOPE  H14S19641   3.202   3.428   8.868 -2.4845 -1.3411 -0.0146
  173SOPE  C21519642   3.188   3.468   8.665  0.3786 -0.0341  0.7340
  173SOPE  H15R19643   3.188   3.542   8.582 -0.9934 -2.0051 -1.1031
  173SOPE  H15S19644   3.094   3.411   8.650  1.4228 -1.2181 -1.8851
  173SOPE  C21619645   3.301   3.370   8.640  0.2453  0.2882 -0.5419
  173SOPE  H16R19646   3.283   3.274   8.693 -1.7328  0.6188 -0.5400
  173SOPE  H16S19647   3.404   3.405   8.659  0.1397  0.4031 -0.1657
  173SOPE  C21719648   3.310   3.326   8.499  0.2868 -0.4760 -0.5466
  173SOPE  H17R19649   3.329   3.407   8.425  0.3623  0.5091  0.5173
  173SOPE  H17S19650   3.209   3.286   8.476 -0.4052  0.3482  0.9136
  173SOPE  C21819651   3.403   3.211   8.472  0.3423  0.4406 -0.6565
  173SOPE  H18R19652   3.366   3.112   8.508  2.4127  0.2606  1.1242
  173SOPE  H18S19653   3.504   3.229   8.513  0.4750 -3.1298  0.9028
  173SOPE  H18T19654   3.418   3.198   8.363 -3.1657 -1.9816 -1.0494
  173SOPE   C3319655   2.675   4.152   9.507  0.0875  0.7997  0.8904
  173SOPE   H3X19656   2.753   4.231   9.505 -0.1209  0.9951  0.1697
  173SOPE   H3Y19657   2.573   4.195   9.515  0.0473  1.0495 -0.6673
  173SOPE   C3419658   2.685   4.081   9.366  0.0055 -0.2489 -0.5107
  173SOPE   H4X19659   2.604   4.005   9.365  0.0809 -0.3474  0.2361
  173SOPE   H4Y19660   2.781   4.025   9.359 -0.6756 -1.5449  0.2468
  173SOPE   C3519661   2.671   4.174   9.242 -0.1271  0.3942 -0.7047
  173SOPE   H5X19662   2.748   4.254   9.238 -2.0892  2.3597 -1.0443
  173SOPE   H5Y19663   2.569   4.218   9.248  0.0151  0.6266  4.8129
  173SOPE   C3619664   2.676   4.099   9.113 -0.1895  0.1468  0.9534
  173SOPE   H6X19665   2.597   4.021   9.109 -1.1257  0.8991  3.2169
  173SOPE   H6Y19666   2.777   4.053   9.103 -0.0696  0.4138  0.9198
  173SOPE   C3719667   2.655   4.190   8.989  0.3711  0.3549  0.4626
  173SOPE   H7X19668   2.721   4.278   9.001 -0.3412  0.4904  4.6123
  173SOPE   H7Y19669   2.551   4.227   8.997  0.1113 -0.6404  2.0317
  173SOPE   C3819670   2.677   4.123   8.852 -0.1688 -0.6922  0.0034
  173SOPE   H8X19671   2.599   4.053   8.814  1.0568 -1.6097 -0.9179
  173SOPE   H8Y19672   2.767   4.057   8.861 -0.5078 -1.2418 -0.5399
  173SOPE   C3919673   2.700   4.228   8.742 -0.7334 -0.3956  0.0207
  173SOPE   H9X19674   2.774   4.304   8.775  2.0594 -2.0944 -1.8534
  173SOPE   H9Y19675   2.606   4.286   8.751 -0.4261  0.1272 -0.1126
  173SOPE  C31019676   2.718   4.177   8.591 -0.1220  0.2251  0.1445
  173SOPE  H10X19677   2.773   4.258   8.537  0.5374 -0.5726 -0.4235
  173SOPE  H10Y19678   2.615   4.177   8.550  0.1441  0.4384 -0.5518
  173SOPE  C31119679   2.789   4.043   8.582 -0.2454  0.1155 -0.0999
  173SOPE  H11X19680   2.770   4.010   8.478  1.0947  4.1556 -1.8102
  173SOPE  H11Y19681   2.743   3.964   8.646  0.1287 -0.6976 -0.8164
  173SOPE  C31219682   2.942   4.051   8.592 -0.0331 -0.4209 -0.1114
  173SOPE  H12X19683   2.971   4.082   8.695  0.4038  0.0976 -0.3868
  173SOPE  H12Y19684   2.963   4.135   8.522 -1.2584 -2.3231 -2.9389
  173SOPE  C31319685   3.034   3.941   8.546  0.0375  0.2766  0.2181
  173SOPE  H13X19686   3.000   3.840   8.576  0.2525  0.0723 -0.2122
  173SOPE  H13Y19687   3.137   3.952   8.586 -0.0260  0.1635  0.4160
  173SOPE  C31419688   3.051   3.930   8.392 -0.3874 -0.4939 -0.8180
  173SOPE  H14X19689   3.072   4.030   8.350  0.0834 -0.6789 -1.0290
  173SOPE  H14Y19690   2.972   3.880   8.332  1.5557 -2.1311 -2.1649
  173SOPE  C31519691   3.186   3.857   8.363 -0.2924  0.0783 -0.3649
  173SOPE  H15X19692   3.186   3.763   8.421  0.7388  1.9055  2.7991
  173SOPE  H15Y19693   3.268   3.920   8.402  0.5603 -1.7371  0.9225
  173SOPE  C31619694   3.197   3.832   8.213 -0.4013 -1.6116  0.3369
  173SOPE  H16X19695   3.115   3.767   8.178 -1.8982 -0.4431  1.4977
  173SOPE  H16Y19696   3.289   3.771   8.202 -0.8058 -2.4744  1.5435
  173SOPE  C31719697   3.209   3.951   8.111 -0.6057  0.0476 -0.0638
  173SOPE  H17X19698   3.111   4.004   8.112 -1.0770 -0.7623  2.2524
  173SOPE  H17Y19699   3.234   3.906   8.012 -0.5227  0.0185 -0.0294
  173SOPE  C31819700   3.328   4.047   8.136 -0.1133  0.1829  0.1391
  173SOPE  H18X19701   3.424   3.993   8.120 -0.0206  0.0463  1.0811
  173SOPE  H18Y19702   3.319   4.092   8.237  1.1680  1.0402 -0.1100
  173SOPE  H18Z19703   3.311   4.124   8.058 -0.8829  0.0789  0.1962
  174SOPE     N19704   1.879   3.121  10.467  0.6383  0.1545  0.1226
  174SOPE   HN119705   1.779   3.125  10.496  1.0190 -1.2100  1.7677
  174SOPE   HN219706   1.906   3.209  10.419 -3.6312  0.5904 -1.9856
  174SOPE   HN319707   1.887   3.054  10.388  1.1772  2.3920 -1.8328
  174SOPE   C1219708   1.972   3.077  10.582  0.8135  0.1910  0.0058
  174SOPE  H12A19709   2.061   3.023  10.542 -0.5221 -1.2010 -1.2024
  174SOPE  H12B19710   1.909   3.001  10.632 -1.9535  0.4066 -2.8216
  174SOPE   C1119711   2.018   3.187  10.677  0.2059 -0.2434  0.2526
  174SOPE  H11A19712   2.088   3.248  10.617 -1.0416  2.0672  1.0173
  174SOPE  H11B19713   2.080   3.139  10.756  1.0134  1.9773  1.0333
  174SOPE     P19714   1.905   3.421  10.718 -0.1458  0.1932  0.2142
  174SOPE   O1319715   2.037   3.484  10.743 -0.3690  0.0400  0.0983
  174SOPE   O1419716   1.794   3.472  10.799 -0.3591  0.7166 -0.5339
  174SOPE   O1219717   1.909   3.263  10.729 -0.6867  0.1923  0.0910
  174SOPE   O1119718   1.879   3.444  10.566  0.4132  0.0884 -0.3016
  174SOPE    C119719   1.761   3.499  10.512  0.5125 -0.3678  0.7226
  174SOPE    HA19720   1.751   3.607  10.538  4.1827  0.5940 -1.2736
  174SOPE    HB19721   1.674   3.449  10.561 -0.3744 -0.0122 -0.4423
  174SOPE    C219722   1.743   3.491  10.357  0.4174 -0.1720 -0.0926
  174SOPE    HS19723   1.731   3.385  10.328  2.5130 -0.3443 -0.5433
  174SOPE   O2119724   1.855   3.551  10.295  0.3080 -0.1595  0.3036
  174SOPE   C2119725   1.957   3.477  10.284 -0.1829 -0.5219  0.5971
  174SOPE   O2219726   1.965   3.358  10.323 -0.0641  0.6381  0.8731
  174SOPE   C2219727   2.078   3.555  10.222 -0.1455  0.4307  0.0466
  174SOPE   H2R19728   2.163   3.490  10.193  1.1045  2.0472 -0.0793
  174SOPE   H2S19729   2.123   3.625  10.297  1.1265 -0.6738  0.3620
  174SOPE    C319730   1.611   3.567  10.318  0.0011 -0.0423  0.1607
  174SOPE    HX19731   1.607   3.661  10.377 -2.2238  0.1306 -0.1895
  174SOPE    HY19732   1.528   3.507  10.360 -1.6749  1.5797 -0.6577
  174SOPE   O3119733   1.591   3.585  10.175 -0.5847 -0.2191 -0.1162
  174SOPE   C3119734   1.615   3.711  10.124  0.5969 -0.0052  0.2316
  174SOPE   O3219735   1.645   3.809  10.184 -0.6330  0.9566 -0.0092
  174SOPE   C3219736   1.611   3.704   9.966 -0.2382 -0.8852  0.0031
  174SOPE   H2X19737   1.534   3.629   9.937 -1.2996 -0.2550  1.0710
  174SOPE   H2Y19738   1.706   3.659   9.930  0.4921 -0.7360  1.6614
  174SOPE   C2319739   2.025   3.621  10.091  0.5513  0.0152  0.1137
  174SOPE   H3R19740   2.105   3.683  10.046 -1.1620  1.3326 -1.2024
  174SOPE   H3S19741   1.939   3.687  10.112  1.0217  0.1706  1.7599
  174SOPE   C2419742   2.014   3.525   9.974  0.1057 -0.5011  0.1677
  174SOPE   H4R19743   2.104   3.461   9.963  0.3731 -0.1285  0.1611
  174SOPE   H4S19744   1.926   3.461   9.995 -0.4959  0.3478  0.2835
  174SOPE   C2519745   1.999   3.600   9.836 -0.7840  0.7910  0.0643
  174SOPE   H5R19746   1.903   3.654   9.849 -0.0631  2.1204  0.0910
  174SOPE   H5S19747   2.081   3.675   9.826  1.6484 -1.5827  0.9936
  174SOPE   C2619748   2.001   3.500   9.717  0.4831 -0.2273 -0.0062
  174SOPE   H6R19749   2.094   3.439   9.724 -0.2504 -1.5813 -1.4124
  174SOPE   H6S19750   1.926   3.419   9.732  0.4314  0.0899  1.6520
  174SOPE   C2719751   1.994   3.572   9.579  0.0567  0.6553  0.0339
  174SOPE   H7R19752   1.937   3.666   9.594  1.1072  1.4055 -0.6044
  174SOPE   H7S19753   2.101   3.591   9.555 -0.0582  0.5144 -0.6061
  174SOPE   C2819754   1.939   3.478   9.468  0.1337  1.0828  0.1146
  174SOPE   H8R19755   2.007   3.393   9.449 -2.2107 -0.5633 -1.4409
  174SOPE   H8S19756   1.845   3.439   9.513 -0.6406  2.6675 -0.0411
  174SOPE   C2919757   1.909   3.559   9.344  0.2981 -0.7437 -0.1644
  174SOPE   H9119758   1.825   3.629   9.352  0.9001  0.1464 -1.2972
  174SOPE  C21019759   1.972   3.558   9.223 -0.2054  0.3983  0.0267
  174SOPE  H10119760   1.923   3.612   9.141  0.0138  3.1318  1.5728
  174SOPE  C21119761   2.103   3.479   9.196  0.0039 -0.5012 -0.5384
  174SOPE  H11R19762   2.137   3.427   9.289 -2.7904  0.1190  0.9531
  174SOPE  H11S19763   2.179   3.552   9.164 -2.1503  1.2558 -1.9556
  174SOPE  C21219764   2.076   3.365   9.091  0.0315 -0.4754  0.0268
  174SOPE  H12R19765   1.969   3.337   9.090 -0.7645  2.1988  0.5421
  174SOPE  H12S19766   2.131   3.278   9.133 -0.3949 -0.6151  0.2916
  174SOPE  C21319767   2.116   3.398   8.943 -0.0573 -0.7466 -0.1264
  174SOPE  H13R19768   2.221   3.434   8.946  0.2890 -1.7960  2.0976
  174SOPE  H13S19769   2.052   3.483   8.910  2.7264  0.3328 -3.2733
  174SOPE  C21419770   2.104   3.287   8.842 -0.7157 -0.0149 -0.0077
  174SOPE  H14R19771   2.171   3.208   8.884 -2.1570 -1.0261  0.4661
  174SOPE  H14S19772   2.165   3.306   8.751 -0.0547  0.9224  0.6098
  174SOPE  C21519773   1.964   3.234   8.820 -0.7084 -0.1564  0.0803
  174SOPE  H15R19774   1.898   3.323   8.831 -0.3677  0.2766 -1.1638
  174SOPE  H15S19775   1.922   3.155   8.885 -0.2887 -0.0208  0.5231
  174SOPE  C21619776   1.957   3.177   8.672  0.2751 -0.4884 -0.1804
  174SOPE  H16R19777   2.047   3.112   8.674  1.8066  1.5068 -0.6479
  174SOPE  H16S19778   1.973   3.261   8.601 -2.0216 -0.0629 -0.2646
  174SOPE  C21719779   1.824   3.117   8.625  0.2338 -0.0089  0.0983
  174SOPE  H17R19780   1.827   3.092   8.517 -0.5969  0.1939  0.0176
  174SOPE  H17S19781   1.742   3.191   8.638 -1.1758 -1.4627 -0.2636
  174SOPE  C21819782   1.801   2.986   8.712  0.5043 -0.9527  0.2826
  174SOPE  H18R19783   1.708   2.935   8.679 -0.2923  0.3348  0.4624
  174SOPE  H18S19784   1.786   3.007   8.820 -1.5755 -0.0620 -0.1336
  174SOPE  H18T19785   1.890   2.920   8.716  2.2325  1.2852  3.4716
  174SOPE   C3319786   1.569   3.843   9.913 -0.1832  1.0049  0.2064
  174SOPE   H3X19787   1.625   3.916   9.975 -1.2859  0.1668  2.3057
  174SOPE   H3Y19788   1.465   3.860   9.949 -0.6814 -1.6135  0.2123
  174SOPE   C3419789   1.577   3.865   9.765 -0.9122  0.3372  0.4031
  174SOPE   H4X19790   1.681   3.846   9.730 -0.4421  0.2487  1.8085
  174SOPE   H4Y19791   1.547   3.966   9.729 -2.3955 -0.4513 -0.7105
  174SOPE   C3519792   1.491   3.769   9.676  0.0231 -0.0235 -0.4648
  174SOPE   H5X19793   1.387   3.769   9.715 -0.0170 -0.0238 -0.5729
  174SOPE   H5Y19794   1.538   3.669   9.685 -1.6898 -0.7723  0.9638
  174SOPE   C3619795   1.497   3.797   9.523  0.2154  0.6537 -0.3837
  174SOPE   H6X19796   1.419   3.874   9.503 -0.1382  0.3913  0.0030
  174SOPE   H6Y19797   1.467   3.703   9.472 -2.8940  0.5637  1.3814
  174SOPE   C3719798   1.638   3.834   9.474 -0.1694 -0.5435  1.2680
  174SOPE   H7X19799   1.709   3.754   9.505  1.8771  0.3718 -0.8152
  174SOPE   H7Y19800   1.667   3.932   9.518 -2.5067  1.3350 -1.0364
  174SOPE   C3819801   1.630   3.838   9.315 -0.6543  0.2276  0.0521
  174SOPE   H8X19802   1.551   3.910   9.285 -0.2117  0.8368  0.3157
  174SOPE   H8Y19803   1.595   3.738   9.281 -3.0098 -0.4285  3.8151
  174SOPE   C3919804   1.748   3.878   9.226  0.2607 -0.0905  0.4885
  174SOPE   H9X19805   1.840   3.818   9.241  1.1842  0.9625 -0.7563
  174SOPE   H9Y19806   1.785   3.976   9.262  0.9043 -1.0948  2.6851
  174SOPE  C31019807   1.704   3.879   9.078  0.3270  0.4359  0.3542
  174SOPE  H10X19808   1.620   3.946   9.053 -0.9267 -0.3847  2.1470
  174SOPE  H10Y19809   1.670   3.780   9.041  1.0427  0.6982 -1.1144
  174SOPE  C31119810   1.815   3.913   8.977  0.8078 -0.1937  0.5657
  174SOPE  H11X19811   1.883   3.825   8.985  1.2689  0.0171 -0.7710
  174SOPE  H11Y19812   1.862   4.008   9.009 -1.7408  1.6443 -0.8700
  174SOPE  C31219813   1.768   3.916   8.829  0.3033 -0.0927 -1.0147
  174SOPE  H12X19814   1.700   3.830   8.814 -1.6890  1.3037 -0.4435
  174SOPE  H12Y19815   1.853   3.930   8.760  0.2828 -0.0572 -1.0325
  174SOPE  C31319816   1.669   4.023   8.802 -0.0340 -0.0921 -0.2768
  174SOPE  H13X19817   1.734   4.113   8.797 -1.0732  0.6504 -0.9120
  174SOPE  H13Y19818   1.593   4.052   8.879  0.8043  0.2809  0.4229
  174SOPE  C31419819   1.595   3.998   8.673  0.1359 -0.2339  0.3102
  174SOPE  H14X19820   1.518   4.078   8.664 -0.3001 -0.7827 -1.0947
  174SOPE  H14Y19821   1.534   3.905   8.674  0.9069 -0.8306  3.6621
  174SOPE  C31519822   1.687   4.023   8.550  0.2389  0.5330 -0.5125
  174SOPE  H15X19823   1.754   3.935   8.546  0.6896  0.8662 -0.3556
  174SOPE  H15Y19824   1.751   4.113   8.551  1.5703 -0.3034 -2.8894
  174SOPE  C31619825   1.609   4.057   8.424 -0.4809  0.2847  0.2993
  174SOPE  H16X19826   1.610   4.168   8.413  0.3741  0.1060 -2.2909
  174SOPE  H16Y19827   1.501   4.043   8.442 -0.4234 -0.9685 -0.1947
  174SOPE  C31719828   1.668   3.978   8.309  0.3015  0.2008  0.2843
  174SOPE  H17X19829   1.590   3.971   8.230  0.3968  1.5817  0.0279
  174SOPE  H17Y19830   1.687   3.871   8.332 -1.5187  0.2440  2.3570
  174SOPE  C31819831   1.795   4.041   8.236  0.9053  0.0579  0.0762
  174SOPE  H18X19832   1.888   4.031   8.295  1.1507 -1.4213 -0.5444
  174SOPE  H18Y19833   1.772   4.148   8.214 -2.2876 -0.8716 -1.7165
  174SOPE  H18Z19834   1.799   3.991   8.137 -2.4848  1.9085 -1.1848
  175SOPE     N19835   5.026   6.116  10.951 -0.5882  0.6538  0.4752
  175SOPE   HN119836   5.074   6.203  10.980  2.5285 -1.6641  3.0241
  175SOPE   HN219837   4.924   6.135  10.956 -0.4342  1.3171  1.1295
  175SOPE   HN319838   5.053   6.045  11.023 -0.8154  2.0501  1.9921
  175SOPE   C1219839   5.053   6.083  10.805 -0.1170  0.4032  0.0744
  175SOPE  H12A19840   5.164   6.084  10.801 -0.1558  0.8536 -1.2302
  175SOPE  H12B19841   5.012   6.159  10.735  0.6625 -1.1302 -2.1741
  175SOPE   C1119842   4.998   5.940  10.756  0.0086 -0.0168  0.4172
  175SOPE  H11A19843   5.013   5.913  10.650 -2.5065 -1.5835  0.3751
  175SOPE  H11B19844   4.888   5.953  10.763 -0.0448 -0.9978  1.9291
  175SOPE     P19845   5.165   5.751  10.817 -0.0228 -0.0597  0.5001
  175SOPE   O1319846   5.168   5.646  10.920  0.2999 -0.9477  0.0132
  175SOPE   O1419847   5.284   5.843  10.807  0.8708 -0.6162  0.2192
  175SOPE   O1219848   5.035   5.834  10.844 -0.0949 -0.5001 -0.3510
  175SOPE   O1119849   5.138   5.675  10.677  0.4551 -0.3381 -0.0750
  175SOPE    C119850   5.013   5.607  10.657 -0.4610  0.1385  0.0524
  175SOPE    HA19851   4.927   5.660  10.704 -0.3668  0.0375  0.3443
  175SOPE    HB19852   5.021   5.510  10.710 -0.5313  1.9152  3.6635
  175SOPE    C219853   4.980   5.576  10.514 -0.4744  0.0691 -0.2738
  175SOPE    HS19854   4.875   5.541  10.505 -0.1161 -1.0218 -0.3411
  175SOPE   O2119855   5.060   5.468  10.459  0.7448 -0.0552  0.3874
  175SOPE   C2119856   5.012   5.346  10.491 -0.9451  0.4894 -0.4340
  175SOPE   O2219857   4.897   5.321  10.525  0.2436 -0.1479  0.3864
  175SOPE   C2219858   5.124   5.241  10.456  0.7441 -0.2466  0.6244
  175SOPE   H2R19859   5.116   5.167  10.538  0.8629  0.8062  1.6041
  175SOPE   H2S19860   5.225   5.286  10.471  0.5870  0.6783 -0.8788
  175SOPE    C319861   4.973   5.705  10.431  0.1201  0.1519 -0.7851
  175SOPE    HX19862   5.063   5.770  10.444  0.3180 -0.4836  1.6175
  175SOPE    HY19863   4.888   5.767  10.465  0.1463  2.2473 -4.1060
  175SOPE   O3119864   4.933   5.676  10.292 -0.3821 -0.5075 -0.3069
  175SOPE   C3119865   5.034   5.668  10.209  0.3861  0.3838  0.2870
  175SOPE   O3219866   5.154   5.668  10.236  0.1840 -0.2038  0.0082
  175SOPE   C3219867   4.984   5.637  10.067 -0.1093 -0.3514 -0.3857
  175SOPE   H2X19868   4.911   5.553  10.066 -3.6644  2.4939 -0.7657
  175SOPE   H2Y19869   5.077   5.611  10.013 -0.4619 -0.9983 -0.6889
  175SOPE   C2319870   5.112   5.187  10.316 -0.4773  0.3846 -0.6306
  175SOPE   H3R19871   5.005   5.175  10.288 -0.0259 -0.0524 -2.2636
  175SOPE   H3S19872   5.160   5.086  10.312  1.1245  1.0878 -0.1427
  175SOPE   C2419873   5.187   5.261  10.206 -0.3659 -0.0983  0.0456
  175SOPE   H4R19874   5.191   5.369  10.230 -2.0737 -0.1185  0.5506
  175SOPE   H4S19875   5.291   5.222  10.212 -0.8883 -2.0458 -2.1122
  175SOPE   C2519876   5.145   5.251  10.054  0.4226 -0.1845 -0.4255
  175SOPE   H5R19877   5.142   5.142  10.032  1.7786 -0.4305  0.4616
  175SOPE   H5S19878   5.042   5.293  10.051  1.2091  2.0935  1.5864
  175SOPE   C2619879   5.236   5.326   9.960 -0.8973  0.0138  0.6033
  175SOPE   H6R19880   5.269   5.422  10.007 -1.1422  0.1187  0.5630
  175SOPE   H6S19881   5.328   5.266   9.945 -1.9700 -1.7446  0.7830
  175SOPE   C2719882   5.169   5.361   9.826  0.4229 -0.2883 -0.2021
  175SOPE   H7R19883   5.136   5.278   9.759 -0.1647  0.3195 -0.6777
  175SOPE   H7S19884   5.085   5.427   9.855 -0.9117 -0.7001 -2.7968
  175SOPE   C2819885   5.274   5.445   9.750 -0.3506 -0.2903  0.7232
  175SOPE   H8R19886   5.342   5.485   9.828 -1.1607 -3.3205  3.2016
  175SOPE   H8S19887   5.337   5.379   9.687  0.2520  0.3912  0.6082
  175SOPE   C2919888   5.201   5.547   9.667  1.5580 -0.2894 -0.0027
  175SOPE   H9119889   5.123   5.610   9.712 -1.2931 -2.6866 -1.1817
  175SOPE  C21019890   5.186   5.548   9.532  0.2149  0.2768 -0.0508
  175SOPE  H10119891   5.151   5.640   9.483  0.6174  0.9072  0.8255
  175SOPE  C21119892   5.248   5.447   9.443  0.0194  0.2054  0.1921
  175SOPE  H11R19893   5.168   5.400   9.383 -1.2444  0.2604  1.7635
  175SOPE  H11S19894   5.294   5.363   9.501  0.5276  0.1869 -0.2247
  175SOPE  C21219895   5.352   5.518   9.353  0.1682 -0.5243  0.0379
  175SOPE  H12R19896   5.404   5.438   9.297 -0.1350 -1.9766  1.7479
  175SOPE  H12S19897   5.426   5.579   9.410  1.6644  0.3120 -2.6166
  175SOPE  C21319898   5.284   5.612   9.252 -0.1890 -0.3906  0.2261
  175SOPE  H13R19899   5.257   5.705   9.306  4.2568  1.0205  0.3786
  175SOPE  H13S19900   5.191   5.563   9.216 -0.7981  0.0117  1.2158
  175SOPE  C21419901   5.372   5.632   9.128 -0.3681 -1.0046 -0.2042
  175SOPE  H14R19902   5.380   5.538   9.068  2.2131 -1.0798  0.1248
  175SOPE  H14S19903   5.477   5.655   9.158 -0.8735  0.1967  0.6944
  175SOPE  C21519904   5.303   5.731   9.030  0.3718 -0.3498 -0.1464
  175SOPE  H15R19905   5.306   5.834   9.069 -0.8777  0.3085 -1.6402
  175SOPE  H15S19906   5.193   5.710   9.028  0.0997  1.0380 -0.4980
  175SOPE  C21619907   5.367   5.738   8.889  0.9617  0.5090 -0.2156
  175SOPE  H16R19908   5.316   5.661   8.828  2.2269 -0.9154  0.4562
  175SOPE  H16S19909   5.465   5.690   8.908  0.2840 -1.6445 -1.7978
  175SOPE  C21719910   5.372   5.876   8.829  0.6767  0.0276  0.2634
  175SOPE  H17R19911   5.417   5.879   8.728  0.0844 -2.1422 -0.1176
  175SOPE  H17S19912   5.433   5.935   8.900  0.5303 -0.3818  0.7394
  175SOPE  C21819913   5.233   5.940   8.814 -0.3366  0.1240  0.2269
  175SOPE  H18R19914   5.205   5.957   8.920  1.2802  0.3414  0.6512
  175SOPE  H18S19915   5.163   5.879   8.754 -0.1809  1.8991 -1.9143
  175SOPE  H18T19916   5.231   6.039   8.762 -0.1641  0.5650  1.0336
  175SOPE   C3319917   4.911   5.759  10.002 -0.6960  0.4592  0.2769
  175SOPE   H3X19918   4.986   5.837   9.976  0.2350 -1.0456 -1.7812
  175SOPE   H3Y19919   4.833   5.795  10.073 -0.7407 -0.3696  0.6592
  175SOPE   C3419920   4.845   5.724   9.866 -0.1509 -0.2715 -0.1083
  175SOPE   H4X19921   4.768   5.649   9.894 -0.3095  0.4129  1.4034
  175SOPE   H4Y19922   4.917   5.667   9.804  1.8162  1.5999  0.3336
  175SOPE   C3519923   4.780   5.842   9.799  0.3995 -0.4349  0.0815
  175SOPE   H5X19924   4.838   5.932   9.829 -0.1991  0.3991 -1.1781
  175SOPE   H5Y19925   4.677   5.849   9.839  0.4782  0.3559  0.1657
  175SOPE   C3619926   4.750   5.842   9.645 -0.3694  0.0916 -0.9811
  175SOPE   H6X19927   4.660   5.899   9.615  0.1372  1.5232  0.1071
  175SOPE   H6Y19928   4.724   5.739   9.613 -3.0154  0.8009 -1.3401
  175SOPE   C3719929   4.869   5.899   9.555 -0.1076 -0.0803 -0.3111
  175SOPE   H7X19930   4.943   5.817   9.550 -0.1101 -0.0454 -1.1358
  175SOPE   H7Y19931   4.898   5.992   9.608  0.7901 -0.7262  0.3459
  175SOPE   C3819932   4.822   5.929   9.409  0.7253 -0.1770  0.9758
  175SOPE   H8X19933   4.740   6.003   9.407  0.2236 -0.6793 -2.1494
  175SOPE   H8Y19934   4.768   5.838   9.376 -1.0709  1.0133  0.5126
  175SOPE   C3919935   4.935   5.942   9.302  0.1239  0.6497  0.1413
  175SOPE   H9X19936   5.004   5.855   9.299  0.1571  0.6977 -1.5474
  175SOPE   H9Y19937   5.010   6.016   9.337  0.0957  1.2833 -1.0787
  175SOPE  C31019938   4.887   5.965   9.161 -0.7509  0.3961 -0.0688
  175SOPE  H10X19939   4.823   5.876   9.141 -2.6541  1.4150  1.2185
  175SOPE  H10Y19940   4.967   5.953   9.085  0.6779  2.7396  0.9547
  175SOPE  C31119941   4.796   6.086   9.152  0.0879 -0.7999  0.2205
  175SOPE  H11X19942   4.851   6.176   9.188 -0.1825 -1.2160  1.7254
  175SOPE  H11Y19943   4.701   6.068   9.205 -0.0899 -1.9308 -0.4522
  175SOPE  C31219944   4.777   6.099   8.996  0.4597 -0.9249 -0.3939
  175SOPE  H12X19945   4.739   6.001   8.960 -0.0886 -0.6574 -0.5590
  175SOPE  H12Y19946   4.878   6.123   8.954 -0.6007  1.5225 -1.7966
  175SOPE  C31319947   4.675   6.202   8.956 -0.7146  0.2893  0.4115
  175SOPE  H13X19948   4.597   6.200   9.035  1.4379 -1.7850  2.6595
  175SOPE  H13Y19949   4.627   6.182   8.858  0.8114  0.7354 -0.4576
  175SOPE  C31419950   4.736   6.339   8.951  0.3717 -0.1515 -0.3851
  175SOPE  H14X19951   4.782   6.385   9.042  1.6306  3.0412 -2.4257
  175SOPE  H14Y19952   4.661   6.420   8.937  1.0677  0.3917 -1.0598
  175SOPE  C31519953   4.844   6.348   8.845  0.1406 -0.3140  0.1522
  175SOPE  H15X19954   4.815   6.282   8.760  2.6936  0.1402 -1.1662
  175SOPE  H15Y19955   4.942   6.310   8.881  0.4369  0.3201  0.0266
  175SOPE  C31619956   4.862   6.494   8.798 -0.0807 -0.0313  0.1939
  175SOPE  H16X19957   4.924   6.550   8.872  0.4613 -0.9731  0.4633
  175SOPE  H16Y19958   4.760   6.538   8.802 -0.4959 -1.0242  0.9450
  175SOPE  C31719959   4.916   6.495   8.655  0.1175 -0.8749 -0.4049
  175SOPE  H17X19960   4.844   6.422   8.611 -0.2302 -0.2967 -0.8174
  175SOPE  H17Y19961   5.020   6.463   8.636  0.0227 -0.7521 -1.1963
  175SOPE  C31819962   4.905   6.634   8.586 -0.0167  0.4948 -0.4296
  175SOPE  H18X19963   4.937   6.723   8.643  0.3646  0.3505 -0.4132
  175SOPE  H18Y19964   4.796   6.649   8.571 -0.9930 -2.0002  2.9603
  175SOPE  H18Z19965   4.965   6.636   8.492  1.2817  1.2811  0.3861
  176SOPE     N19966   5.517   4.969  11.291  0.3292  0.4995  0.1726
  176SOPE   HN119967   5.602   4.931  11.247 -0.4216 -1.8146  0.5770
  176SOPE   HN219968   5.545   5.043  11.359 -1.1173  1.8393 -0.6202
  176SOPE   HN319969   5.466   4.895  11.344 -1.4024  2.3691  1.2781
  176SOPE   C1219970   5.417   5.034  11.204  0.0050  0.2377  0.2441
  176SOPE  H12A19971   5.481   5.108  11.151  2.3704  0.3268  3.0193
  176SOPE  H12B19972   5.343   5.089  11.265  0.8632  0.8169  0.7870
  176SOPE   C1119973   5.349   4.941  11.100  0.2608 -0.0357  0.1581
  176SOPE  H11A19974   5.427   4.919  11.024  0.0729  2.4024 -0.8370
  176SOPE  H11B19975   5.267   5.003  11.056 -0.1873  0.3292  1.4584
  176SOPE     P19976   5.175   4.743  11.110  0.0743 -0.3282 -0.3307
  176SOPE   O1319977   5.055   4.805  11.174 -0.6562 -0.1417 -0.4322
  176SOPE   O1419978   5.216   4.606  11.141 -0.3245 -0.9353  0.6065
  176SOPE   O1219979   5.297   4.831  11.153  0.0289 -0.0378  0.1334
  176SOPE   O1119980   5.162   4.769  10.957  0.3233 -0.0782 -0.3228
  176SOPE    C119981   5.126   4.672  10.857  0.3749  0.1940 -0.0335
  176SOPE    HA19982   5.069   4.716  10.772  0.3440  0.0050 -0.1108
  176SOPE    HB19983   5.055   4.598  10.900  1.1078 -0.9887 -0.8098
  176SOPE    C219984   5.253   4.609  10.798  0.0777  0.0731 -0.0691
  176SOPE    HS19985   5.316   4.560  10.876  0.3331 -0.3982 -0.5599
  176SOPE   O2119986   5.335   4.723  10.744  0.1468  0.7806 -0.0527
  176SOPE   C2119987   5.463   4.700  10.745  0.6828  0.2081  1.0131
  176SOPE   O2219988   5.517   4.591  10.772  0.7521 -0.4897 -0.1994
  176SOPE   C2219989   5.543   4.819  10.696 -0.1277 -0.2337 -0.0995
  176SOPE   H2R19990   5.572   4.860  10.795 -0.1528 -1.9655  0.6633
  176SOPE   H2S19991   5.478   4.898  10.653  1.1698  1.0628  0.2319
  176SOPE    C319992   5.222   4.493  10.691  0.1973 -0.2505 -0.3617
  176SOPE    HX19993   5.140   4.429  10.730 -1.6374  0.7415 -2.3999
  176SOPE    HY19994   5.308   4.423  10.690  0.4225 -0.2846  4.0229
  176SOPE   O3119995   5.184   4.543  10.561  0.1554 -0.0957  0.2444
  176SOPE   C3119996   5.185   4.451  10.467  0.3610 -0.0502  0.0892
  176SOPE   O3219997   5.189   4.328  10.481  0.1079  0.2508 -0.1956
  176SOPE   C3219998   5.149   4.518  10.336 -0.4162 -0.0460  0.7752
  176SOPE   H2X19999   5.115   4.622  10.352 -1.0485  0.1496 -1.3942
  176SOPE   H2Y20000   5.061   4.464  10.294 -0.2467  0.2474  0.0273
  176SOPE   C2320001   5.675   4.784  10.626  0.1867 -0.1526  0.4284
  176SOPE   H3R20002   5.726   4.694  10.666 -0.5939 -1.0707 -0.5746
  176SOPE   H3S20003   5.734   4.876  10.644 -0.3826  0.5636 -1.2157
  176SOPE   C2420004   5.654   4.766  10.473 -0.8727  0.5520 -0.6632
  176SOPE   H4R20005   5.750   4.723  10.437 -0.0521  0.6043  1.3210
  176SOPE   H4S20006   5.573   4.690  10.478 -1.3910  1.1363  0.0923
  176SOPE   C2520007   5.605   4.883  10.400 -0.4738 -0.7103 -0.4646
  176SOPE   H5R20008   5.542   4.947  10.467  0.0158  1.7172 -2.1699
  176SOPE   H5S20009   5.695   4.946  10.385 -2.2586  2.0639 -0.3377
  176SOPE   C2620010   5.528   4.850  10.269 -0.0866  0.1936 -0.1461
  176SOPE   H6R20011   5.593   4.797  10.196 -0.5481 -2.2620  1.1057
  176SOPE   H6S20012   5.444   4.780  10.293  0.0293  0.5820  1.4524
  176SOPE   C2720013   5.479   4.971  10.192  0.2878  0.4172 -0.4069
  176SOPE   H7R20014   5.420   4.935  10.105  3.2153 -0.7318 -2.0340
  176SOPE   H7S20015   5.411   5.030  10.258 -0.7766  1.8916 -2.6692
  176SOPE   C2820016   5.587   5.065  10.139  0.0673 -0.5789 -0.5765
  176SOPE   H8R20017   5.529   5.153  10.103 -0.5640 -0.1108  1.4397
  176SOPE   H8S20018   5.653   5.104  10.220 -0.2164 -0.3114 -0.4718
  176SOPE   C2920019   5.673   5.003  10.029  0.0766 -0.5877 -0.6288
  176SOPE   H9120020   5.705   4.901  10.053 -0.9850 -0.4847  1.5063
  176SOPE  C21020021   5.689   5.045   9.903  0.8199 -0.6290 -0.0049
  176SOPE  H10120022   5.734   4.978   9.827  1.8697 -1.5507  1.3705
  176SOPE  C21120023   5.643   5.180   9.850  0.0494 -0.2116  0.3475
  176SOPE  H11R20024   5.732   5.242   9.827  0.6250 -0.6581  1.2813
  176SOPE  H11S20025   5.589   5.242   9.923  1.0276 -0.3286  1.1965
  176SOPE  C21220026   5.553   5.165   9.720 -0.1206  0.5467 -0.2328
  176SOPE  H12R20027   5.543   5.272   9.692 -0.9382  0.6152  0.2897
  176SOPE  H12S20028   5.454   5.136   9.759  0.8696  0.2100  2.2065
  176SOPE  C21320029   5.624   5.088   9.612  0.7973  0.2483  0.7303
  176SOPE  H13R20030   5.663   4.988   9.643 -0.2683 -0.5557 -0.3799
  176SOPE  H13S20031   5.713   5.138   9.569  0.9039  0.2649  0.9699
  176SOPE  C21420032   5.532   5.044   9.496  0.7750  0.0754 -1.0424
  176SOPE  H14R20033   5.466   5.118   9.447  0.1508  0.7481  0.7293
  176SOPE  H14S20034   5.453   4.977   9.535 -0.5048  1.7495 -0.6183
  176SOPE  C21520035   5.602   4.971   9.377  0.1922  0.0073 -0.1874
  176SOPE  H15R20036   5.517   4.959   9.306 -1.3319  2.8230  0.9674
  176SOPE  H15S20037   5.652   4.875   9.399  1.5162  0.2298 -2.0403
  176SOPE  C21620038   5.705   5.059   9.298  0.4272  0.0606 -0.0620
  176SOPE  H16R20039   5.734   5.004   9.206 -1.8284 -1.9587  0.3314
  176SOPE  H16S20040   5.790   5.064   9.370 -0.1173  0.4240  0.5732
  176SOPE  C21720041   5.651   5.196   9.245  0.3392 -0.1253 -0.0985
  176SOPE  H17R20042   5.732   5.251   9.193  1.1095 -0.7393  0.4366
  176SOPE  H17S20043   5.620   5.265   9.326  0.7278 -0.9313  0.7581
  176SOPE  C21820044   5.529   5.176   9.145 -0.1196 -0.4107 -0.0383
  176SOPE  H18R20045   5.494   5.266   9.092 -1.4781 -2.3745 -2.6676
  176SOPE  H18S20046   5.440   5.142   9.203  0.6345 -0.5591  1.0830
  176SOPE  H18T20047   5.532   5.100   9.064 -0.8446 -1.4925  0.9098
  176SOPE   C3320048   5.281   4.521  10.252  0.2819  0.0487 -0.0207
  176SOPE   H3X20049   5.309   4.416  10.229  1.6779  0.3190  0.3525
  176SOPE   H3Y20050   5.360   4.559  10.320  0.0040 -0.4055  0.5589
  176SOPE   C3420051   5.265   4.609  10.136 -0.0113 -0.7079  1.0524
  176SOPE   H4X20052   5.282   4.716  10.159  1.2454 -0.8952  1.0781
  176SOPE   H4Y20053   5.165   4.602  10.088 -0.6481 -1.4956  2.4390
  176SOPE   C3520054   5.363   4.567  10.025 -0.7011 -0.9094  0.4186
  176SOPE   H5X20055   5.355   4.462   9.990  3.6157 -1.1245 -0.5229
  176SOPE   H5Y20056   5.467   4.576  10.063 -0.5675  2.4168 -0.4526
  176SOPE   C3620057   5.344   4.652   9.901  0.2378 -0.8029 -0.3334
  176SOPE   H6X20058   5.374   4.756   9.925 -1.3810 -0.0919 -1.2452
  176SOPE   H6Y20059   5.237   4.660   9.872  0.3114  0.7166 -0.2639
  176SOPE   C3720060   5.422   4.620   9.775  0.0744 -0.1939 -0.1446
  176SOPE   H7X20061   5.528   4.640   9.802  1.2358 -2.2789 -2.7190
  176SOPE   H7Y20062   5.382   4.696   9.704 -1.6403  0.5075  1.4878
  176SOPE   C3820063   5.395   4.477   9.716  0.5134  0.5059  0.1744
  176SOPE   H8X20064   5.287   4.467   9.692  0.6191 -0.6713  0.1267
  176SOPE   H8Y20065   5.419   4.404   9.796 -1.8648  0.0019  0.5041
  176SOPE   C3920066   5.473   4.448   9.588  0.1296 -0.4188 -1.0158
  176SOPE   H9X20067   5.439   4.353   9.541  0.2777 -0.5057 -0.9508
  176SOPE   H9Y20068   5.583   4.444   9.605 -0.0852  2.1411  1.7026
  176SOPE  C31020069   5.443   4.546   9.472 -0.0355  0.0574 -0.6706
  176SOPE  H10X20070   5.493   4.642   9.496  2.3566 -1.7697  2.4747
  176SOPE  H10Y20071   5.337   4.569   9.449 -1.2855 -3.8470  0.4811
  176SOPE  C31120072   5.507   4.486   9.337  0.4913  0.6016 -0.6120
  176SOPE  H11X20073   5.468   4.385   9.315 -0.0327  0.5453  0.4951
  176SOPE  H11Y20074   5.614   4.460   9.348 -0.0228 -1.8437 -0.9083
  176SOPE  C31220075   5.486   4.578   9.213 -0.0306 -0.3612 -0.0597
  176SOPE  H12X20076   5.544   4.669   9.240  0.9047 -1.1153  0.5476
  176SOPE  H12Y20077   5.377   4.587   9.194  0.0542 -0.1104 -0.4295
  176SOPE  C31320078   5.539   4.527   9.076  0.1284  0.6290  0.9767
  176SOPE  H13X20079   5.472   4.450   9.031 -1.6194  2.5075  0.1832
  176SOPE  H13Y20080   5.638   4.479   9.095  0.0566  0.8581  1.9748
  176SOPE  C31420081   5.578   4.639   8.981  0.3391 -0.0660  0.1256
  176SOPE  H14X20082   5.634   4.596   8.894 -0.4840 -0.0651 -0.4174
  176SOPE  H14Y20083   5.652   4.709   9.025  1.4842  0.1212 -1.9386
  176SOPE  C31520084   5.458   4.712   8.923 -0.0010  0.1225  1.0671
  176SOPE  H15X20085   5.399   4.775   8.994  0.1505  2.5914 -0.8467
  176SOPE  H15Y20086   5.393   4.633   8.880  2.0316 -0.7032 -0.6852
  176SOPE  C31620087   5.499   4.811   8.805 -0.2080  0.1486 -0.1064
  176SOPE  H16X20088   5.605   4.790   8.777 -0.2509 -1.8623  1.0831
  176SOPE  H16Y20089   5.480   4.914   8.842 -2.1384 -0.3267  0.2924
  176SOPE  C31720090   5.428   4.803   8.666 -0.2827  0.0302  0.5893
  176SOPE  H17X20091   5.448   4.705   8.618  0.6909  0.9778 -1.0560
  176SOPE  H17Y20092   5.470   4.874   8.591  1.3704 -1.5227 -0.0221
  176SOPE  C31820093   5.280   4.840   8.683  0.9633  0.5213 -0.0389
  176SOPE  H18X20094   5.260   4.939   8.730  1.1195  0.7022 -0.3465
  176SOPE  H18Y20095   5.225   4.774   8.753 -0.0530  1.0815 -0.2824
  176SOPE  H18Z20096   5.230   4.835   8.584 -0.3531 -0.3758  0.6442
  177SOPE     N20097   4.628   2.860  10.654  0.4967 -0.8459  0.7268
  177SOPE   HN120098   4.549   2.838  10.717  0.5689 -2.2261  0.3589
  177SOPE   HN220099   4.683   2.776  10.628 -0.8016 -1.6516  0.4943
  177SOPE   HN320100   4.683   2.944  10.679  0.0540 -0.1558 -0.5200
  177SOPE   C1220101   4.558   2.908  10.527  0.5648 -0.2071 -0.2629
  177SOPE  H12A20102   4.509   3.004  10.553  0.7423  0.0195 -0.7362
  177SOPE  H12B20103   4.488   2.835  10.482  0.0501 -0.0343  0.2633
  177SOPE   C1120104   4.663   2.940  10.422  0.0006 -0.0697  0.2350
  177SOPE  H11A20105   4.620   2.993  10.334 -1.3231  0.1325  0.9926
  177SOPE  H11B20106   4.709   2.846  10.383 -0.4895 -0.4205  0.5064
  177SOPE     P20107   4.756   3.171  10.516  0.2637  0.0574 -0.0900
  177SOPE   O1320108   4.712   3.182  10.657 -0.1401 -0.7348  0.1632
  177SOPE   O1420109   4.661   3.227  10.416 -0.2879  0.2473  0.6457
  177SOPE   O1220110   4.767   3.017  10.488 -0.2790  0.2749 -0.2137
  177SOPE   O1120111   4.904   3.213  10.487  0.1613 -0.2355 -0.2520
  177SOPE    C120112   4.976   3.170  10.374 -0.4330  0.3247 -0.7114
  177SOPE    HA20113   4.936   3.074  10.336  0.1192 -0.1957  0.0064
  177SOPE    HB20114   5.082   3.164  10.404  0.1177  1.1571 -2.3825
  177SOPE    C220115   4.968   3.270  10.258 -0.0250 -0.5391  0.2080
  177SOPE    HS20116   4.992   3.365  10.310 -0.4497 -1.4021  2.0357
  177SOPE   O2120117   4.837   3.287  10.198 -0.2327 -0.1125  0.8630
  177SOPE   C2120118   4.804   3.182  10.119 -0.1434 -0.4686 -0.1203
  177SOPE   O2220119   4.876   3.088  10.086  0.0182 -0.0642 -0.0532
  177SOPE   C2220120   4.674   3.220  10.054 -0.3797 -0.0792  0.5326
  177SOPE   H2R20121   4.667   3.331  10.058  1.3326  0.0876 -0.2663
  177SOPE   H2S20122   4.594   3.176  10.117 -1.1117 -0.3164 -0.5371
  177SOPE    C320123   5.089   3.265  10.152  0.5055 -0.4061 -0.1377
  177SOPE    HX20124   5.100   3.160  10.116  2.4605 -0.0415 -0.6845
  177SOPE    HY20125   5.184   3.283  10.206  0.8677 -0.7394 -0.6492
  177SOPE   O3120126   5.072   3.356  10.042 -0.3448 -0.3252  0.1056
  177SOPE   C3120127   5.170   3.360   9.945  0.7476 -0.1546 -0.2006
  177SOPE   O3220128   5.273   3.293   9.952  0.0252 -0.0835  0.2133
  177SOPE   C3220129   5.133   3.453   9.828  0.7671  0.5525  0.4304
  177SOPE   H2X20130   5.198   3.542   9.842  2.4827 -0.6177  0.2434
  177SOPE   H2Y20131   5.024   3.471   9.838  0.4950  0.4553 -1.9159
  177SOPE   C2320132   4.670   3.181   9.901  0.9374  0.4592 -0.0208
  177SOPE   H3R20133   4.565   3.180   9.863  1.4520  1.5745 -1.5538
  177SOPE   H3S20134   4.692   3.072   9.896 -2.6658 -0.3576 -2.0792
  177SOPE   C2420135   4.747   3.271   9.805  0.0199  0.0319 -0.3652
  177SOPE   H4R20136   4.741   3.377   9.836 -1.5621 -0.4064  0.9517
  177SOPE   H4S20137   4.852   3.234   9.808  0.3552  1.0145  1.4826
  177SOPE   C2520138   4.689   3.260   9.666  0.0770 -0.9228  0.1465
  177SOPE   H5R20139   4.707   3.152   9.644 -0.5976 -2.0366  4.2550
  177SOPE   H5S20140   4.579   3.275   9.661  0.1424  0.6370  2.0418
  177SOPE   C2620141   4.766   3.337   9.559  0.9056  0.1244 -0.4994
  177SOPE   H6R20142   4.775   3.440   9.601 -1.3936  0.3347 -0.4089
  177SOPE   H6S20143   4.868   3.293   9.549  1.2394  0.9064 -0.6092
  177SOPE   C2720144   4.704   3.332   9.420 -0.6571 -0.0587  0.7785
  177SOPE   H7R20145   4.710   3.230   9.376  0.2284  0.5098 -0.4930
  177SOPE   H7S20146   4.599   3.366   9.428 -1.2747 -1.4157 -0.7875
  177SOPE   C2820147   4.786   3.413   9.316  0.5110 -0.1484 -0.4034
  177SOPE   H8R20148   4.760   3.520   9.333 -0.0750 -0.4949  0.9437
  177SOPE   H8S20149   4.892   3.389   9.340  0.2572  0.4780  1.5135
  177SOPE   C2920150   4.746   3.361   9.178 -0.0990  0.2413  0.1526
  177SOPE   H9120151   4.726   3.253   9.169 -0.6607  0.3152  0.4716
  177SOPE  C21020152   4.766   3.419   9.062  0.3032  0.0371  0.2836
  177SOPE  H10120153   4.723   3.369   8.973 -3.2503  1.2879  1.1114
  177SOPE  C21120154   4.804   3.565   9.054 -0.2747  0.5950  0.3413
  177SOPE  H11R20155   4.913   3.578   9.070 -0.6281  3.1200  0.9809
  177SOPE  H11S20156   4.738   3.628   9.116 -1.4573  0.4581 -0.7311
  177SOPE  C21220157   4.776   3.620   8.912  0.7994  0.0406 -0.1296
  177SOPE  H12R20158   4.810   3.726   8.916 -0.5214  0.5226 -0.9959
  177SOPE  H12S20159   4.665   3.624   8.911  0.8209  0.8260 -0.1169
  177SOPE  C21320160   4.826   3.531   8.796  0.2033 -0.1838  0.7303
  177SOPE  H13R20161   4.782   3.429   8.786  0.6149 -0.2544 -0.5310
  177SOPE  H13S20162   4.934   3.512   8.814  0.2325  0.6896  1.5223
  177SOPE  C21420163   4.814   3.594   8.653  0.7344 -0.0901  0.2617
  177SOPE  H14R20164   4.716   3.644   8.640  0.6653 -0.9277 -3.9191
  177SOPE  H14S20165   4.816   3.517   8.574  0.9374  0.9409 -0.7632
  177SOPE  C21520166   4.918   3.695   8.603  0.7340 -0.4261 -0.2788
  177SOPE  H15R20167   5.017   3.648   8.621  1.2981  0.6646 -0.4531
  177SOPE  H15S20168   4.905   3.787   8.664 -2.1151 -0.1920 -1.0965
  177SOPE  C21620169   4.894   3.731   8.453  0.3356 -0.2574  0.2020
  177SOPE  H16R20170   4.796   3.782   8.442 -0.0474 -1.3716 -2.0399
  177SOPE  H16S20171   4.888   3.648   8.380 -2.4567 -0.3379  0.4043
  177SOPE  C21720172   5.002   3.823   8.410 -0.5637 -0.7748 -0.9313
  177SOPE  H17R20173   5.099   3.769   8.415  0.5301  1.1942  0.3235
  177SOPE  H17S20174   5.010   3.897   8.492  2.4955 -2.1291  0.1601
  177SOPE  C21820175   4.981   3.877   8.272  0.4907  0.2834 -0.5935
  177SOPE  H18R20176   5.042   3.968   8.252 -2.3014  1.9009 -2.3232
  177SOPE  H18S20177   4.875   3.910   8.273 -0.1979 -1.7698  1.3627
  177SOPE  H18T20178   5.007   3.793   8.204 -0.0611 -0.6788  0.3528
  177SOPE   C3320179   5.171   3.381   9.694  0.2658 -0.0440 -0.8179
  177SOPE   H3X20180   5.114   3.286   9.687 -0.1380  0.1380 -0.1028
  177SOPE   H3Y20181   5.280   3.357   9.700 -0.0755 -2.2541 -2.1537
  177SOPE   C3420182   5.153   3.468   9.579 -0.6871  0.1668  0.3226
  177SOPE   H4X20183   5.218   3.557   9.593 -0.5344  0.0080  0.6382
  177SOPE   H4Y20184   5.049   3.506   9.577 -0.5579  0.4908 -0.3455
  177SOPE   C3520185   5.190   3.400   9.448  0.1918 -0.5033 -0.1233
  177SOPE   H5X20186   5.117   3.317   9.437  3.1473 -3.0771 -2.0737
  177SOPE   H5Y20187   5.289   3.352   9.463 -0.4823 -2.3671 -1.2293
  177SOPE   C3620188   5.202   3.507   9.332  0.0697  0.0400 -0.2160
  177SOPE   H6X20189   5.290   3.575   9.336  1.2739 -1.4061 -1.2162
  177SOPE   H6Y20190   5.111   3.572   9.337  2.0085  2.9939 -0.7192
  177SOPE   C3720191   5.228   3.419   9.202  0.7456 -0.1311 -0.1323
  177SOPE   H7X20192   5.144   3.347   9.195 -1.9764  2.6680  1.3712
  177SOPE   H7Y20193   5.318   3.357   9.224  1.7912  0.8842 -1.3445
  177SOPE   C3820194   5.240   3.496   9.075  0.5871  0.0513  0.6052
  177SOPE   H8X20195   5.324   3.568   9.083 -0.2333  1.5748 -2.6632
  177SOPE   H8Y20196   5.150   3.555   9.046  1.2195  1.8212  2.0789
  177SOPE   C3920197   5.280   3.405   8.960 -0.0303 -0.8810  0.4233
  177SOPE   H9X20198   5.208   3.321   8.957 -1.2159 -0.0044  2.5341
  177SOPE   H9Y20199   5.369   3.339   8.973 -0.0131 -1.0321 -0.4423
  177SOPE  C31020200   5.280   3.493   8.834 -0.3569 -0.3804  0.7409
  177SOPE  H10X20201   5.330   3.590   8.856 -0.5031  0.0709 -0.8190
  177SOPE  H10Y20202   5.176   3.523   8.810 -0.4832  0.0071  1.7170
  177SOPE  C31120203   5.350   3.435   8.713 -0.3918  0.4802  0.0468
  177SOPE  H11X20204   5.284   3.352   8.679  1.1644 -0.9799  0.4670
  177SOPE  H11Y20205   5.448   3.388   8.731 -0.1039  1.1336  0.2344
  177SOPE  C31220206   5.374   3.535   8.594 -0.8138  0.1863 -0.0396
  177SOPE  H12X20207   5.272   3.577   8.578 -0.1291  2.2207  0.6348
  177SOPE  H12Y20208   5.392   3.476   8.502 -3.5118 -0.4476 -0.2590
  177SOPE  C31320209   5.480   3.648   8.607 -0.2213  0.1426  0.3796
  177SOPE  H13X20210   5.579   3.602   8.590  0.1004  0.6315  0.9050
  177SOPE  H13Y20211   5.491   3.698   8.706  0.0832  3.3666 -1.1668
  177SOPE  C31420212   5.456   3.752   8.501 -0.0581  0.0494 -0.3374
  177SOPE  H14X20213   5.381   3.830   8.526  0.0967 -0.2390  1.1095
  177SOPE  H14Y20214   5.430   3.698   8.407 -1.7411 -1.1647  0.7894
  177SOPE  C31520215   5.589   3.831   8.466 -0.1859 -0.6142  0.3042
  177SOPE  H15X20216   5.562   3.874   8.368 -1.1961  1.4203  1.4080
  177SOPE  H15Y20217   5.678   3.764   8.463  1.1316  1.0856 -0.6116
  177SOPE  C31620218   5.623   3.955   8.554  0.3740  0.5807  0.0851
  177SOPE  H16X20219   5.630   3.925   8.660  1.6469  1.1858  0.1879
  177SOPE  H16Y20220   5.548   4.034   8.533  1.4585  1.1603 -1.9034
  177SOPE  C31720221   5.758   4.015   8.511 -0.1516  0.5308 -0.4600
  177SOPE  H17X20222   5.765   4.034   8.402  3.4446 -0.2929 -0.5057
  177SOPE  H17Y20223   5.824   3.928   8.532 -2.1344 -1.2127 -1.0397
  177SOPE  C31820224   5.784   4.137   8.601 -0.4387  0.2220 -0.2280
  177SOPE  H18X20225   5.890   4.169   8.590 -0.5454  0.0381 -2.2751
  177SOPE  H18Y20226   5.792   4.097   8.704 -0.2214  0.3844 -0.1791
  177SOPE  H18Z20227   5.707   4.217   8.601 -1.4781 -0.6880  2.2429
  178SOPE     N20228   2.187   1.675  10.562  0.8542 -0.0774  0.5650
  178SOPE   HN120229   2.125   1.701  10.642  0.4590  0.9165 -0.0346
  178SOPE   HN220230   2.218   1.576  10.560 -0.3728 -0.5067 -3.0469
  178SOPE   HN320231   2.265   1.743  10.573  0.3388  0.2352  2.8522
  178SOPE   C1220232   2.114   1.696  10.431 -0.7595  0.9770  0.0098
  178SOPE  H12A20233   2.123   1.803  10.404 -0.5022  0.9297 -0.0951
  178SOPE  H12B20234   2.010   1.678  10.466 -0.3560  0.9180  1.2452
  178SOPE   C1120235   2.170   1.617  10.318  0.3049  0.5539  0.1274
  178SOPE  H11A20236   2.281   1.615  10.310  0.3288  0.3195  0.5263
  178SOPE  H11B20237   2.132   1.656  10.221 -0.8021  0.3183  0.4473
  178SOPE     P20238   2.194   1.366  10.398  0.0799 -0.1078  0.0569
  178SOPE   O1320239   2.124   1.240  10.378 -0.5218  0.1069  0.4771
  178SOPE   O1420240   2.222   1.409  10.537  0.8019 -0.5829 -0.9490
  178SOPE   O1220241   2.119   1.482  10.325 -0.0252  0.2388 -0.0037
  178SOPE   O1120242   2.332   1.354  10.326  0.8622  0.4459 -0.4271
  178SOPE    C120243   2.343   1.340  10.189 -0.3080  0.4462  0.4064
  178SOPE    HA20244   2.427   1.402  10.151 -0.4078 -0.6839 -1.7676
  178SOPE    HB20245   2.256   1.373  10.129 -0.3606 -0.3061  0.0636
  178SOPE    C220246   2.366   1.189  10.147  0.3227  0.0156  0.4566
  178SOPE    HS20247   2.304   1.126  10.214  2.4868 -0.2743  2.3096
  178SOPE   O2120248   2.507   1.164  10.152  0.0224 -0.1838  0.1946
  178SOPE   C2120249   2.536   1.037  10.185  0.2942  0.2733  0.7755
  178SOPE   O2220250   2.453   0.948  10.213  0.9058 -0.8776  0.1411
  178SOPE   C2220251   2.691   1.017  10.181 -0.3338 -0.5465 -0.2976
  178SOPE   H2R20252   2.721   1.019  10.288 -1.0441 -3.8198  0.0579
  178SOPE   H2S20253   2.731   1.112  10.137  1.6703 -1.8119 -1.3478
  178SOPE    C320254   2.315   1.160  10.001 -0.5701  0.0356  0.2688
  178SOPE    HX20255   2.356   1.064   9.962 -0.6885  0.0561  0.0912
  178SOPE    HY20256   2.350   1.242   9.935 -1.0471 -0.2783 -0.3862
  178SOPE   O3120257   2.171   1.160  10.017  0.1027 -0.0039 -0.0002
  178SOPE   C3120258   2.108   1.046   9.993  0.2946  0.0107  0.5219
  178SOPE   O3220259   2.164   0.942   9.961  0.3188 -0.1857  0.3276
  178SOPE   C3220260   1.955   1.069   9.999 -0.6549  0.4570  0.8334
  178SOPE   H2X20261   1.936   1.126  10.093  1.3423  1.5259  0.6457
  178SOPE   H2Y20262   1.910   0.967   9.994 -1.8127  0.9484 -4.7589
  178SOPE   C2320263   2.737   0.905  10.101  0.6484  0.7283 -0.1424
  178SOPE   H3R20264   2.669   0.824  10.136  2.6117 -0.1016  2.0284
  178SOPE   H3S20265   2.840   0.877  10.131  0.4599 -1.2250 -1.1241
  178SOPE   C2420266   2.728   0.944   9.951 -0.2636  0.1091  0.3350
  178SOPE   H4R20267   2.686   1.045   9.933 -1.9372 -0.6111 -0.0790
  178SOPE   H4S20268   2.830   0.936   9.909 -0.0578 -0.4233  0.9169
  178SOPE   C2520269   2.627   0.859   9.876 -0.2412  0.8978 -0.0227
  178SOPE   H5R20270   2.660   0.753   9.882  2.1585  1.5816 -0.0078
  178SOPE   H5S20271   2.524   0.870   9.917 -0.5395  2.1835 -1.0620
  178SOPE   C2620272   2.614   0.884   9.725 -0.0082 -0.1029 -0.2561
  178SOPE   H6R20273   2.643   0.988   9.701  1.3727 -0.1583  0.9889
  178SOPE   H6S20274   2.694   0.823   9.678  0.6848  0.6866 -0.1199
  178SOPE   C2720275   2.478   0.846   9.671  0.6032  0.3422  0.7086
  178SOPE   H7R20276   2.442   0.753   9.720  0.6330 -0.4965 -0.8080
  178SOPE   H7S20277   2.415   0.928   9.710 -0.0820  0.2570 -0.1912
  178SOPE   C2820278   2.463   0.847   9.511 -0.1529 -0.2884  0.3948
  178SOPE   H8R20279   2.482   0.955   9.494 -0.3908 -0.3775 -0.4587
  178SOPE   H8S20280   2.538   0.774   9.475  0.2905 -0.4908  1.6660
  178SOPE   C2920281   2.326   0.817   9.451 -0.4134 -0.3253  0.5975
  178SOPE   H9120282   2.240   0.845   9.513 -1.5988 -4.0639  0.9247
  178SOPE  C21020283   2.296   0.736   9.344  0.1601 -0.5022  0.5608
  178SOPE  H10120284   2.188   0.737   9.322 -0.1752 -0.5452  2.1111
  178SOPE  C21120285   2.385   0.660   9.247 -0.3231  0.0199 -0.5716
  178SOPE  H11R20286   2.364   0.551   9.253 -1.0140  0.1663 -0.2057
  178SOPE  H11S20287   2.492   0.680   9.271 -0.9271  0.4232  2.0524
  178SOPE  C21220288   2.383   0.705   9.101  0.3705 -0.8973  0.2865
  178SOPE  H12R20289   2.362   0.814   9.099 -0.1251 -0.7505  4.3308
  178SOPE  H12S20290   2.302   0.650   9.049  0.8710  0.0953 -1.6363
  178SOPE  C21320291   2.516   0.671   9.033 -0.4945 -0.1853  0.1766
  178SOPE  H13R20292   2.528   0.560   9.032 -0.4399 -0.1821  0.5332
  178SOPE  H13S20293   2.598   0.718   9.092 -1.1992 -2.6671  3.4109
  178SOPE  C21420294   2.527   0.739   8.892 -0.0227 -0.3048  1.0693
  178SOPE  H14R20295   2.521   0.850   8.887 -0.1395 -0.3081  1.1411
  178SOPE  H14S20296   2.430   0.715   8.845 -0.5075 -1.6529  2.6744
  178SOPE  C21520297   2.628   0.673   8.795 -0.1181 -0.7707 -0.0325
  178SOPE  H15R20298   2.604   0.565   8.786 -1.4945 -0.5609  0.8026
  178SOPE  H15S20299   2.723   0.667   8.852  0.3991 -0.1475 -0.8138
  178SOPE  C21620300   2.658   0.751   8.669  0.6624  0.3677  0.2460
  178SOPE  H16R20301   2.727   0.834   8.693  0.2151  0.8764 -0.1803
  178SOPE  H16S20302   2.562   0.799   8.640  0.5882  0.0036 -0.1305
  178SOPE  C21720303   2.721   0.674   8.547 -0.3044 -0.4071  0.7496
  178SOPE  H17R20304   2.749   0.739   8.462  0.0595 -1.0109  0.3977
  178SOPE  H17S20305   2.643   0.611   8.500  0.0483 -0.4698  0.2424
  178SOPE  C21820306   2.831   0.574   8.584 -0.1236 -0.0035  0.3460
  178SOPE  H18R20307   2.902   0.603   8.664 -0.4080  1.1066  0.2077
  178SOPE  H18S20308   2.893   0.556   8.493 -2.6208  1.2276 -1.7238
  178SOPE  H18T20309   2.787   0.477   8.615  2.6557 -1.4892  0.0045
  178SOPE   C3320310   1.913   1.155   9.880  0.5860 -0.8009  0.2853
  178SOPE   H3X20311   1.975   1.246   9.887  1.8881 -1.3864 -2.2508
  178SOPE   H3Y20312   1.806   1.181   9.896  0.4487  0.2461 -1.9356
  178SOPE   C3420313   1.909   1.086   9.750 -0.3584 -0.5582 -0.0061
  178SOPE   H4X20314   1.829   1.010   9.759 -2.7894  1.5817 -1.9688
  178SOPE   H4Y20315   2.003   1.037   9.717  1.1334  2.5202 -0.7123
  178SOPE   C3520316   1.873   1.184   9.635  0.2247 -0.0275 -0.6151
  178SOPE   H5X20317   1.959   1.252   9.615  0.1540 -0.0081 -0.8635
  178SOPE   H5Y20318   1.789   1.239   9.683 -0.3650 -2.5771  1.5484
  178SOPE   C3620319   1.830   1.129   9.500  0.9848  0.1487  0.2571
  178SOPE   H6X20320   1.768   1.211   9.459 -0.8426 -0.5708  1.4204
  178SOPE   H6Y20321   1.754   1.052   9.525 -0.7752  1.8169  0.2647
  178SOPE   C3720322   1.952   1.078   9.416 -0.3223  0.4528  0.5078
  178SOPE   H7X20323   1.982   0.983   9.464 -0.7244 -0.5649 -1.1676
  178SOPE   H7Y20324   2.040   1.145   9.407  0.1047 -0.3206 -2.0185
  178SOPE   C3820325   1.903   1.057   9.273 -0.2413 -0.3859  0.3595
  178SOPE   H8X20326   1.870   1.148   9.219 -2.0129 -1.1072  0.1602
  178SOPE   H8Y20327   1.806   1.001   9.276  0.0224 -0.8076  1.2443
  178SOPE   C3920328   1.991   0.972   9.184 -0.4828 -0.4105 -0.1869
  178SOPE   H9X20329   1.961   0.866   9.198 -0.4988 -0.4501 -0.5022
  178SOPE   H9Y20330   2.093   0.982   9.228 -1.3380 -1.8330  2.3087
  178SOPE  C31020331   1.990   1.004   9.032  0.8114 -0.2903  0.4213
  178SOPE  H10X20332   2.023   1.110   9.022 -2.2646  0.8818  1.6754
  178SOPE  H10Y20333   1.885   1.008   8.996  0.5173 -1.7432  1.0345
  178SOPE  C31120334   2.069   0.907   8.949 -0.0951 -0.3301 -0.3915
  178SOPE  H11X20335   2.045   0.799   8.959 -2.7697  0.0788 -1.4371
  178SOPE  H11Y20336   2.173   0.918   8.984 -0.5164  2.1686  0.2711
  178SOPE  C31220337   2.065   0.950   8.800 -0.5556  0.0627 -0.1203
  178SOPE  H12X20338   2.093   1.057   8.798 -2.1460  0.5048 -2.1874
  178SOPE  H12Y20339   1.962   0.961   8.760 -0.9236  0.7000  0.9612
  178SOPE  C31320340   2.167   0.857   8.723  0.2867  0.4154  0.6447
  178SOPE  H13X20341   2.235   0.822   8.803  1.1704 -0.6621 -0.5381
  178SOPE  H13Y20342   2.219   0.918   8.646 -1.6340  0.6910 -0.5137
  178SOPE  C31420343   2.092   0.742   8.657  0.2215  0.4888 -0.5199
  178SOPE  H14X20344   1.992   0.768   8.615 -0.1565 -0.7021 -0.3996
  178SOPE  H14Y20345   2.065   0.682   8.746 -0.1010  2.5380  0.8351
  178SOPE  C31520346   2.180   0.662   8.555 -0.2381  0.4011 -0.5855
  178SOPE  H15X20347   2.127   0.572   8.518 -1.3617  0.4291  0.8834
  178SOPE  H15Y20348   2.271   0.633   8.611 -0.3869  2.2079  0.6675
  178SOPE  C31620349   2.221   0.743   8.427  0.7194  0.5039  0.4034
  178SOPE  H16X20350   2.305   0.812   8.450  0.5380  1.2163 -1.0061
  178SOPE  H16Y20351   2.129   0.799   8.400  0.6969  1.9115  2.9894
  178SOPE  C31720352   2.258   0.650   8.304 -0.5008 -0.0358 -0.2973
  178SOPE  H17X20353   2.318   0.565   8.341  0.8677  1.5409  1.3229
  178SOPE  H17Y20354   2.323   0.711   8.238  1.4930 -1.2065  0.4948
  178SOPE  C31820355   2.147   0.613   8.213 -0.0149 -0.0755 -0.2464
  178SOPE  H18X20356   2.111   0.705   8.162  2.7471  0.3888 -1.5223
  178SOPE  H18Y20357   2.066   0.558   8.265 -0.1516 -1.0671 -1.4566
  178SOPE  H18Z20358   2.192   0.544   8.139  1.2090  0.2663  0.1579
  179SOPE     N20359   0.933   5.382   6.450 -0.1170  0.1486  0.0620
  179SOPE   HN120360   0.967   5.295   6.496 -0.2618  0.1672  0.2054
  179SOPE   HN220361   0.854   5.365   6.386  0.5360 -0.8524 -0.4943
  179SOPE   HN320362   1.008   5.414   6.385 -0.8824  2.1120  0.0636
  179SOPE   C1220363   0.923   5.495   6.548 -0.4910  0.1891  0.1365
  179SOPE  H12A20364   1.017   5.506   6.607 -1.2458 -1.8323  1.8800
  179SOPE  H12B20365   0.861   5.451   6.630 -0.3167  0.5431  0.4600
  179SOPE   C1120366   0.860   5.628   6.497 -0.7720  0.3526  0.4601
  179SOPE  H11A20367   0.929   5.659   6.414 -1.2979 -0.5770 -0.3418
  179SOPE  H11B20368   0.861   5.708   6.574 -0.5520  1.6168 -0.8148
  179SOPE     P20369   0.680   5.717   6.335 -0.3227 -0.0999 -0.2261
  179SOPE   O1320370   0.536   5.690   6.320 -0.1264  0.4076  0.3647
  179SOPE   O1420371   0.758   5.712   6.213  0.2799 -0.3445 -0.8429
  179SOPE   O1220372   0.728   5.606   6.438  0.1897  0.1604 -0.0150
  179SOPE   O1120373   0.711   5.847   6.411 -0.2625  0.4583 -0.0354
  179SOPE    C120374   0.626   5.886   6.520  0.2549 -0.0485 -0.1232
  179SOPE    HA20375   0.585   5.803   6.582  1.1568 -0.3127  0.1308
  179SOPE    HB20376   0.544   5.955   6.491  1.3182  1.8033  1.0289
  179SOPE    C220377   0.698   5.993   6.610 -0.2957  0.4129 -0.3374
  179SOPE    HS20378   0.737   6.072   6.542 -0.3171  1.2132  0.5488
  179SOPE   O2120379   0.807   5.931   6.679 -0.8277 -0.0056  0.1576
  179SOPE   C2120380   0.912   5.999   6.707  0.3283 -0.0831  0.5032
  179SOPE   O2220381   0.948   6.109   6.668 -0.3519 -0.1864 -0.3921
  179SOPE   C2220382   0.999   5.917   6.804  0.4806  0.5135 -0.2014
  179SOPE   H2R20383   1.099   5.960   6.784  1.2377 -0.5900  0.9949
  179SOPE   H2S20384   0.996   5.811   6.771  1.5507  0.9079 -1.6275
  179SOPE    C320385   0.602   6.054   6.712  0.1370 -0.0327 -0.5279
  179SOPE    HX20386   0.546   5.971   6.760 -1.2805  1.3861  0.3445
  179SOPE    HY20387   0.520   6.108   6.661 -0.9693 -0.0531  1.1736
  179SOPE   O3120388   0.666   6.131   6.814  0.1360 -0.1300  0.6823
  179SOPE   C3120389   0.697   6.250   6.787 -1.1980 -0.8599  0.3443
  179SOPE   O3220390   0.691   6.312   6.680  0.3962  0.9763  0.1008
  179SOPE   C3220391   0.763   6.309   6.915  0.6078  0.7910  0.3621
  179SOPE   H2X20392   0.823   6.233   6.968 -0.2446 -0.1119  0.0647
  179SOPE   H2Y20393   0.686   6.356   6.980 -0.7670  1.2981 -1.5264
  179SOPE   C2320394   0.945   5.933   6.949  0.0157 -0.2168  0.3227
  179SOPE   H3R20395   0.893   6.030   6.966 -0.1289 -0.4412  1.2059
  179SOPE   H3S20396   1.033   5.946   7.016  0.7078  1.5789 -0.8292
  179SOPE   C2420397   0.857   5.820   7.000  0.8085  0.4812 -0.2960
  179SOPE   H4R20398   0.770   5.803   6.933 -0.1486  1.4250  0.6684
  179SOPE   H4S20399   0.919   5.731   6.975 -0.1398  0.0010 -1.0155
  179SOPE   C2520400   0.813   5.845   7.140 -0.4921  0.7162 -0.4340
  179SOPE   H5R20401   0.904   5.829   7.202 -0.1618  0.8998 -0.8656
  179SOPE   H5S20402   0.793   5.952   7.160 -0.0907  0.5220  1.1383
  179SOPE   C2620403   0.698   5.751   7.175  0.5476 -0.2583  0.2445
  179SOPE   H6R20404   0.605   5.785   7.125  0.8222  1.0921  0.6111
  179SOPE   H6S20405   0.724   5.645   7.157 -0.2405 -0.2884 -0.7740
  179SOPE   C2720406   0.688   5.762   7.330  0.3956  0.4176 -1.0325
  179SOPE   H7R20407   0.780   5.719   7.375  1.4528  2.8554 -0.6908
  179SOPE   H7S20408   0.671   5.863   7.374 -2.9259 -0.3762 -0.1668
  179SOPE   C2820409   0.570   5.678   7.376 -0.0912  0.2003  0.0419
  179SOPE   H8R20410   0.558   5.583   7.320  1.9259 -0.3727  0.4812
  179SOPE   H8S20411   0.591   5.645   7.480 -0.1817  1.8590  0.6282
  179SOPE   C2920412   0.440   5.763   7.374 -0.3479  0.4208 -0.0033
  179SOPE   H9120413   0.421   5.789   7.269  0.2067 -0.5889 -0.3618
  179SOPE  C21020414   0.357   5.801   7.469 -1.1382 -0.4979  0.0651
  179SOPE  H10120415   0.274   5.871   7.453 -1.0589 -0.0789  1.3329
  179SOPE  C21120416   0.382   5.773   7.612 -0.1278 -0.9939 -0.3227
  179SOPE  H11R20417   0.436   5.675   7.612 -0.8843 -1.4203 -0.5802
  179SOPE  H11S20418   0.283   5.761   7.662 -0.3380 -0.5666 -0.6317
  179SOPE  C21220419   0.462   5.894   7.679  0.4576  0.3608  0.4219
  179SOPE  H12R20420   0.407   5.990   7.663 -0.6943 -0.2887  0.3928
  179SOPE  H12S20421   0.561   5.904   7.628  1.1221 -2.7158  0.9444
  179SOPE  C21320422   0.488   5.875   7.828 -0.5395 -0.4006  0.1847
  179SOPE  H13R20423   0.559   5.955   7.860 -0.5533 -0.1999 -0.2767
  179SOPE  H13S20424   0.556   5.788   7.825  0.1755  0.1147  0.8873
  179SOPE  C21420425   0.374   5.865   7.921  0.5805 -0.3647 -0.6710
  179SOPE  H14R20426   0.316   5.779   7.882 -1.4286  0.8677 -0.5508
  179SOPE  H14S20427   0.306   5.952   7.904  1.7515  0.6696 -0.1911
  179SOPE  C21520428   0.410   5.860   8.071  0.2181 -0.5246 -0.3946
  179SOPE  H15R20429   0.474   5.949   8.090  0.9434 -0.8298 -1.3468
  179SOPE  H15S20430   0.469   5.772   8.104  3.2272  0.3960 -2.9033
  179SOPE  C21620431   0.286   5.873   8.156  0.2421 -0.0338  0.1237
  179SOPE  H16R20432   0.230   5.777   8.146 -1.1797  0.4958  2.2597
  179SOPE  H16S20433   0.221   5.954   8.116 -3.0472 -1.3800  2.2393
  179SOPE  C21720434   0.299   5.893   8.304  0.3501  0.1906  0.4913
  179SOPE  H17R20435   0.359   5.810   8.349 -0.7535  0.6541  2.9794
  179SOPE  H17S20436   0.201   5.902   8.354 -0.0624 -1.2435 -0.0028
  179SOPE  C21820437   0.371   6.019   8.339 -0.5151 -0.3418 -0.1293
  179SOPE  H18R20438   0.476   6.015   8.301 -1.4550 -1.9547 -2.8116
  179SOPE  H18S20439   0.372   6.039   8.449  1.9687  0.9489 -0.3128
  179SOPE  H18T20440   0.317   6.110   8.304  0.7462  0.8702  0.9207
  179SOPE   C3320441   0.855   6.418   6.877 -0.5707  0.1814 -0.2872
  179SOPE   H3X20442   0.810   6.500   6.817  1.7762  1.1634 -0.7899
  179SOPE   H3Y20443   0.940   6.386   6.813  1.3635  1.9483  1.2727
  179SOPE   C3420444   0.894   6.498   6.995 -0.1752  0.5988 -0.2001
  179SOPE   H4X20445   0.805   6.521   7.058 -0.0818 -0.5858  0.3839
  179SOPE   H4Y20446   0.938   6.593   6.957 -0.6715  1.3667  1.0791
  179SOPE   C3520447   1.014   6.449   7.082  0.1362 -0.1803 -0.1757
  179SOPE   H5X20448   1.051   6.545   7.123  0.5416 -0.5296  0.2928
  179SOPE   H5Y20449   1.102   6.408   7.028  0.1359 -0.8089  0.2940
  179SOPE   C3620450   0.980   6.362   7.200  0.2210  1.0613 -0.1058
  179SOPE   H6X20451   0.921   6.278   7.157  0.9408  0.0352  0.8548
  179SOPE   H6Y20452   0.914   6.414   7.273 -0.6143 -1.5492  1.1420
  179SOPE   C3720453   1.112   6.310   7.271 -0.0987 -0.4335  0.3298
  179SOPE   H7X20454   1.172   6.402   7.283 -1.0089  0.4965 -1.7377
  179SOPE   H7Y20455   1.166   6.250   7.194 -0.7861  2.0266 -2.2432
  179SOPE   C3820456   1.084   6.227   7.391  0.1305  0.2220 -0.9234
  179SOPE   H8X20457   1.015   6.285   7.456  0.7692  1.1033 -1.0061
  179SOPE   H8Y20458   1.182   6.201   7.437  0.0675  1.0610 -0.2935
  179SOPE   C3920459   1.017   6.090   7.371  0.2985 -0.0706  0.5459
  179SOPE   H9X20460   1.081   6.049   7.291  1.7663 -1.0284  2.1384
  179SOPE   H9Y20461   0.915   6.101   7.329  0.4386  3.1072  0.7697
  179SOPE  C31020462   1.023   6.009   7.506  0.5535 -0.1505 -0.1993
  179SOPE  H10X20463   1.124   6.016   7.551  0.8470  1.9194 -1.0737
  179SOPE  H10Y20464   1.002   5.902   7.485  0.3346 -0.0267 -0.6426
  179SOPE  C31120465   0.916   6.053   7.606  0.2800  0.2405 -0.3939
  179SOPE  H11X20466   0.822   6.052   7.548  1.1809  0.4246 -1.9069
  179SOPE  H11Y20467   0.933   6.157   7.642 -0.1843  1.1705 -2.7043
  179SOPE  C31220468   0.897   5.968   7.733  0.1302 -0.5724  0.1467
  179SOPE  H12X20469   0.997   5.930   7.765  0.1728 -0.6880 -0.1212
  179SOPE  H12Y20470   0.841   5.874   7.713  2.1251 -1.9364  0.6305
  179SOPE  C31320471   0.813   6.048   7.837 -0.1155 -0.5640  0.1729
  179SOPE  H13X20472   0.715   6.062   7.787  0.5532  0.6161 -0.8462
  179SOPE  H13Y20473   0.859   6.147   7.861  0.5164 -0.7077 -0.4103
  179SOPE  C31420474   0.793   5.989   7.980  0.3737  0.0017  0.0385
  179SOPE  H14X20475   0.729   5.899   7.984 -0.9048  0.9027  0.3910
  179SOPE  H14Y20476   0.733   6.067   8.031 -2.7883 -2.3431  0.1589
  179SOPE  C31520477   0.923   5.953   8.061  0.5576  0.5661  0.0046
  179SOPE  H15X20478   0.971   6.053   8.075  0.4392  0.7828 -1.0487
  179SOPE  H15Y20479   0.983   5.888   7.995  0.0647 -0.0703  0.1753
  179SOPE  C31620480   0.889   5.887   8.193 -0.3510  0.4279 -0.6052
  179SOPE  H16X20481   0.981   5.866   8.252 -0.9111  2.3061  1.0541
  179SOPE  H16Y20482   0.831   5.792   8.184 -0.1154  0.3301 -1.1949
  179SOPE  C31720483   0.801   5.976   8.284  0.4230 -0.4010  0.4726
  179SOPE  H17X20484   0.703   5.975   8.232  0.7888  1.9471 -0.4057
  179SOPE  H17Y20485   0.835   6.082   8.283  2.3311 -0.9676  1.0779
  179SOPE  C31820486   0.794   5.908   8.422 -0.1642 -0.7682  0.3150
  179SOPE  H18X20487   0.716   5.828   8.428 -0.6890 -0.2873 -0.0002
  179SOPE  H18Y20488   0.788   5.981   8.506  0.8886  0.3418 -0.5538
  179SOPE  H18Z20489   0.890   5.857   8.443  1.2612  1.6009 -0.1639
  180SOPE     N20490   5.452   0.055   6.325 -0.3835  0.1611 -0.1107
  180SOPE   HN120491   5.498   0.146   6.304 -3.8277  1.5905 -2.4230
  180SOPE   HN220492   5.472   0.019   6.420 -1.3727  0.0663  0.0727
  180SOPE   HN320493   5.487  -0.018   6.260  1.5870  1.7069 -0.9073
  180SOPE   C1220494   5.305   0.078   6.314  0.2641  0.4773 -0.2762
  180SOPE  H12A20495   5.294   0.147   6.227  2.1890  2.3201  0.8312
  180SOPE  H12B20496   5.273   0.137   6.403  2.7784 -0.3651  1.2662
  180SOPE   C1120497   5.225  -0.053   6.302 -0.4479 -0.4939 -0.0367
  180SOPE  H11A20498   5.239  -0.091   6.199 -2.6848 -1.2789 -0.1261
  180SOPE  H11B20499   5.115  -0.036   6.305 -0.4982 -0.8509  2.1209
  180SOPE     P20500   5.250  -0.297   6.387  0.0111 -0.2963  0.3765
  180SOPE   O1320501   5.357  -0.356   6.298  0.3894  0.4234 -0.2848
  180SOPE   O1420502   5.114  -0.316   6.338 -0.3728 -0.3473  0.0190
  180SOPE   O1220503   5.276  -0.138   6.403  0.5459 -0.1550 -0.1028
  180SOPE   O1120504   5.266  -0.346   6.534  0.3365  0.3021  0.5503
  180SOPE    C120505   5.363  -0.309   6.630 -0.2056 -0.3596 -0.1983
  180SOPE    HA20506   5.317  -0.312   6.731  1.7813  0.5346  0.7731
  180SOPE    HB20507   5.397  -0.207   6.606 -0.2678 -0.2160  0.3208
  180SOPE    C220508   5.491  -0.401   6.625 -0.4182 -0.9540 -0.3882
  180SOPE    HS20509   5.528  -0.390   6.521 -0.6490 -1.9877 -0.5884
  180SOPE   O2120510   5.438  -0.532   6.641 -0.1274  0.2043  0.3228
  180SOPE   C2120511   5.524  -0.631   6.637 -0.1943  1.0132 -0.3424
  180SOPE   O2220512   5.640  -0.636   6.594 -0.0639  0.6731 -0.6243
  180SOPE   C2220513   5.462  -0.756   6.699  0.7515  1.0620  0.5009
  180SOPE   H2R20514   5.536  -0.838   6.686  0.1415  0.5863 -0.0399
  180SOPE   H2S20515   5.366  -0.785   6.651  0.7609 -0.1442  1.1786
  180SOPE    C320516   5.598  -0.349   6.725 -0.0373 -0.5537  0.1508
  180SOPE    HX20517   5.631  -0.256   6.673 -0.3113 -1.8377 -2.4290
  180SOPE    HY20518   5.677  -0.426   6.710 -0.9466 -1.1040 -2.2409
  180SOPE   O3120519   5.542  -0.332   6.857 -0.6152  0.1475  0.6514
  180SOPE   C3120520   5.583  -0.418   6.951 -0.6364 -0.7107  0.2925
  180SOPE   O3220521   5.667  -0.505   6.944 -0.0830 -0.0200 -0.2489
  180SOPE   C3220522   5.494  -0.387   7.077  0.2000 -0.0816 -0.1734
  180SOPE   H2X20523   5.402  -0.449   7.068 -0.7932  1.3597 -0.3344
  180SOPE   H2Y20524   5.458  -0.282   7.065 -1.4579 -0.5738  0.2637
  180SOPE   C2320525   5.444  -0.722   6.849  0.1955 -0.1506  0.3760
  180SOPE   H3R20526   5.377  -0.633   6.845  1.2957  0.6925 -3.3420
  180SOPE   H3S20527   5.539  -0.696   6.900 -0.6593  1.0945  1.4005
  180SOPE   C2420528   5.357  -0.813   6.935  0.2056 -0.1837 -1.0836
  180SOPE   H4R20529   5.255  -0.826   6.894  0.0969 -0.4277 -0.7363
  180SOPE   H4S20530   5.411  -0.906   6.963  1.5571  1.2260  1.2543
  180SOPE   C2520531   5.337  -0.749   7.076 -0.2440  0.0445  0.0451
  180SOPE   H5R20532   5.430  -0.709   7.122  0.7916 -1.8877 -0.2542
  180SOPE   H5S20533   5.264  -0.668   7.055 -0.9078 -0.7883 -0.9519
  180SOPE   C2620534   5.267  -0.837   7.180  0.5133  0.6940 -0.3111
  180SOPE   H6R20535   5.178  -0.888   7.136 -1.7204  2.8283  1.4314
  180SOPE   H6S20536   5.349  -0.909   7.202 -0.6404 -0.6666 -0.2572
  180SOPE   C2720537   5.220  -0.757   7.296  0.0421 -0.0891  0.3088
  180SOPE   H7R20538   5.305  -0.690   7.324  0.3324 -0.4681  0.3377
  180SOPE   H7S20539   5.139  -0.699   7.247  0.3475 -2.4109 -3.3052
  180SOPE   C2820540   5.197  -0.844   7.421  0.3080  0.0826 -0.0330
  180SOPE   H8R20541   5.124  -0.785   7.480  0.6353 -1.2825  1.8258
  180SOPE   H8S20542   5.143  -0.939   7.399 -2.3152  1.1356  1.4469
  180SOPE   C2920543   5.315  -0.874   7.516 -0.3896  0.2853  0.6263
  180SOPE   H9120544   5.379  -0.956   7.481 -0.5635 -0.2205  1.4661
  180SOPE  C21020545   5.350  -0.812   7.631 -0.0886  0.4602 -0.1289
  180SOPE  H10120546   5.435  -0.851   7.688 -1.0148  1.5138  2.1106
  180SOPE  C21120547   5.279  -0.701   7.699 -0.7161 -1.3837 -1.0130
  180SOPE  H11R20548   5.220  -0.655   7.617  2.4318 -0.9332 -3.1898
  180SOPE  H11S20549   5.343  -0.625   7.748 -0.7456 -1.2549 -1.1715
  180SOPE  C21220550   5.184  -0.746   7.812 -0.2749  0.4388 -0.1020
  180SOPE  H12R20551   5.109  -0.821   7.780  0.2810  1.2138 -3.5539
  180SOPE  H12S20552   5.130  -0.661   7.859  0.6699  0.5277  0.8777
  180SOPE  C21320553   5.259  -0.817   7.930 -0.0236  0.4254  0.6278
  180SOPE  H13R20554   5.359  -0.777   7.960 -0.5363 -0.8792  4.5947
  180SOPE  H13S20555   5.280  -0.924   7.911  1.0031  0.9476 -1.6587
  180SOPE  C21420556   5.166  -0.804   8.043 -0.2525  0.4413 -0.3313
  180SOPE  H14R20557   5.059  -0.794   8.017 -0.8887  2.2559  2.5246
  180SOPE  H14S20558   5.198  -0.718   8.106  1.9006 -0.0938 -0.6126
  180SOPE  C21520559   5.173  -0.925   8.141  0.4055  0.6253  0.2497
  180SOPE  H15R20560   5.276  -0.964   8.151  0.4431 -0.2774 -2.8007
  180SOPE  H15S20561   5.124  -1.010   8.089  0.4430  1.7535 -1.7246
  180SOPE  C21620562   5.113  -0.913   8.281 -0.0738 -0.3736 -0.1734
  180SOPE  H16R20563   5.004  -0.891   8.277  0.8184  5.7945 -0.7484
  180SOPE  H16S20564   5.158  -0.821   8.324  1.3603 -0.5879 -1.1472
  180SOPE  C21720565   5.145  -1.021   8.388  0.1375  0.2501  0.9885
  180SOPE  H17R20566   5.110  -1.122   8.359  0.5528  0.5026 -0.4895
  180SOPE  H17S20567   5.091  -0.998   8.483  0.3926 -0.3817  1.2929
  180SOPE  C21820568   5.297  -1.023   8.417 -0.6612  1.1784 -0.3916
  180SOPE  H18R20569   5.323  -0.927   8.466  0.6160  0.3746  0.5468
  180SOPE  H18S20570   5.352  -1.050   8.325 -3.5325  0.8693 -2.1707
  180SOPE  H18T20571   5.319  -1.101   8.493 -0.9761  0.5460 -0.9348
  180SOPE   C3320572   5.565  -0.418   7.208  0.8582  0.5935  0.4992
  180SOPE   H3X20573   5.655  -0.354   7.207 -0.7477  2.9991  0.2225
  180SOPE   H3Y20574   5.595  -0.524   7.224 -0.0450  0.3839  0.8834
  180SOPE   C3420575   5.486  -0.405   7.341 -0.0472  0.7289 -0.5556
  180SOPE   H4X20576   5.400  -0.475   7.331  1.6944 -1.6872  0.4916
  180SOPE   H4Y20577   5.455  -0.300   7.362 -0.7843  0.5190 -0.5544
  180SOPE   C3520578   5.561  -0.467   7.463 -0.4905 -0.1910  0.4564
  180SOPE   H5X20579   5.656  -0.409   7.470 -0.6591 -0.0040  1.3195
  180SOPE   H5Y20580   5.582  -0.575   7.446 -0.9536 -0.0639 -1.0092
  180SOPE   C3620581   5.492  -0.437   7.597  0.2526 -0.2275 -0.2995
  180SOPE   H6X20582   5.386  -0.470   7.594 -0.1038  0.9196 -1.9214
  180SOPE   H6Y20583   5.490  -0.326   7.597  1.2056 -0.1199 -3.3313
  180SOPE   C3720584   5.572  -0.496   7.715 -0.2439  0.3752 -0.1589
  180SOPE   H7X20585   5.680  -0.470   7.709 -0.5298  1.7218  0.1781
  180SOPE   H7Y20586   5.556  -0.605   7.703  2.2814  0.2132 -3.1738
  180SOPE   C3820587   5.511  -0.449   7.857 -0.2952 -0.2984 -0.5019
  180SOPE   H8X20588   5.522  -0.538   7.922  0.3919 -0.3916 -0.7496
  180SOPE   H8Y20589   5.403  -0.422   7.850 -0.1447  0.9353  1.1524
  180SOPE   C3920590   5.580  -0.322   7.901 -0.4683 -0.3949  0.1134
  180SOPE   H9X20591   5.568  -0.244   7.824 -1.0409 -2.1000 -1.5974
  180SOPE   H9Y20592   5.688  -0.342   7.915  0.0639  0.9749 -1.7604
  180SOPE  C31020593   5.517  -0.264   8.029  0.1778  0.7688  1.0316
  180SOPE  H10X20594   5.407  -0.259   8.019  0.1250 -0.9440  0.4685
  180SOPE  H10Y20595   5.557  -0.161   8.028  0.0971  0.7993  0.8794
  180SOPE  C31120596   5.551  -0.350   8.156  0.0402  0.3603  0.2342
  180SOPE  H11X20597   5.653  -0.394   8.149 -0.4857 -0.9675  0.4766
  180SOPE  H11Y20598   5.481  -0.436   8.170 -0.4764  1.0258  2.0550
  180SOPE  C31220599   5.548  -0.277   8.290 -0.0839 -0.1279 -0.2466
  180SOPE  H12X20600   5.626  -0.198   8.284  0.2929 -0.4913 -0.1682
  180SOPE  H12Y20601   5.582  -0.339   8.376  0.5562 -0.6535 -0.8584
  180SOPE  C31320602   5.413  -0.223   8.345  0.1666  0.5600  0.7945
  180SOPE  H13X20603   5.351  -0.315   8.352  1.2883 -0.3366 -0.5897
  180SOPE  H13Y20604   5.376  -0.154   8.266  2.0076 -1.5291 -2.0709
  180SOPE  C31420605   5.418  -0.152   8.481  0.0806  0.2433 -0.8208
  180SOPE  H14X20606   5.423  -0.231   8.559 -2.0555  1.0930  0.2839
  180SOPE  H14Y20607   5.316  -0.109   8.496  0.3700  0.9882 -0.9287
  180SOPE  C31520608   5.527  -0.047   8.506  0.3880  0.2488 -0.1938
  180SOPE  H15X20609   5.516   0.045   8.446  1.6374  0.6224  0.1227
  180SOPE  H15Y20610   5.631  -0.080   8.487  0.6931 -0.1972  1.9907
  180SOPE  C31620611   5.502  -0.002   8.652  0.1966 -0.5835  0.0706
  180SOPE  H16X20612   5.517  -0.098   8.705  0.8118  0.5061  1.9650
  180SOPE  H16Y20613   5.398   0.036   8.648  0.8393  1.2852  0.2496
  180SOPE  C31720614   5.615   0.097   8.696 -0.3005  0.4454  0.4114
  180SOPE  H17X20615   5.600   0.187   8.633 -2.0371 -0.2779 -0.2613
  180SOPE  H17Y20616   5.714   0.055   8.668 -1.1933  0.0746 -2.5319
  180SOPE  C31820617   5.597   0.116   8.846 -0.3589  0.6884  0.6929
  180SOPE  H18X20618   5.570   0.019   8.892 -1.2273  1.0511  0.9640
  180SOPE  H18Y20619   5.509   0.183   8.857 -2.0429 -1.6595  2.2064
  180SOPE  H18Z20620   5.689   0.153   8.897  0.3950 -0.5672  0.2776
  181SOPE     N20621   2.125   2.272   6.473  0.3168  0.2455  0.1561
  181SOPE   HN120622   2.200   2.331   6.515 -0.0597  1.1437 -0.3999
  181SOPE   HN220623   2.093   2.198   6.537  0.5986 -2.5943 -2.7398
  181SOPE   HN320624   2.161   2.239   6.381  0.5379 -0.9157  0.6527
  181SOPE   C1220625   2.008   2.361   6.442  0.0417 -0.3301 -0.3090
  181SOPE  H12A20626   1.927   2.327   6.510  0.2553 -0.0379  0.0975
  181SOPE  H12B20627   1.972   2.352   6.337  1.2205  0.2964 -0.7826
  181SOPE   C1120628   2.045   2.513   6.459  0.6226 -0.7392  0.2312
  181SOPE  H11A20629   2.082   2.545   6.558  1.6666 -0.5993 -0.1959
  181SOPE  H11B20630   1.946   2.562   6.441  0.0333 -1.5842  1.0547
  181SOPE     P20631   2.181   2.701   6.333  0.1369 -0.0848  0.0959
  181SOPE   O1320632   2.060   2.786   6.349 -0.6085  0.1264 -0.3136
  181SOPE   O1420633   2.262   2.717   6.208 -0.3533  0.3556 -0.1626
  181SOPE   O1220634   2.142   2.551   6.354  0.7437 -0.7152  0.0982
  181SOPE   O1120635   2.274   2.745   6.451 -0.1526 -0.0655  0.4117
  181SOPE    C120636   2.369   2.660   6.518  0.5641  0.0447  0.2786
  181SOPE    HA20637   2.424   2.592   6.450  1.0032  1.0440 -0.4023
  181SOPE    HB20638   2.317   2.588   6.585  0.6927 -2.8156 -2.5010
  181SOPE    C220639   2.478   2.737   6.591  0.3962  0.6294  0.0239
  181SOPE    HS20640   2.516   2.816   6.523  1.3285 -0.7380 -1.0973
  181SOPE   O2120641   2.575   2.643   6.626  0.1150  0.1707 -0.2504
  181SOPE   C2120642   2.706   2.695   6.619  0.0654 -0.3263 -0.0410
  181SOPE   O2220643   2.732   2.807   6.576  0.1452 -0.2541 -0.3096
  181SOPE   C2220644   2.813   2.588   6.662  0.4097 -0.3018  0.1804
  181SOPE   H2R20645   2.891   2.599   6.583 -0.5158  1.4672 -0.5427
  181SOPE   H2S20646   2.755   2.494   6.668  0.3452 -0.2003  1.6001
  181SOPE    C320647   2.420   2.804   6.715 -0.2256 -0.0471  0.0201
  181SOPE    HX20648   2.387   2.725   6.786 -2.0749 -0.1057 -0.8361
  181SOPE    HY20649   2.332   2.862   6.681  1.5138  0.5171 -4.1593
  181SOPE   O3120650   2.522   2.888   6.779  0.0701 -0.0175  0.1198
  181SOPE   C3120651   2.513   3.011   6.728 -0.1161 -0.5534 -0.3055
  181SOPE   O3220652   2.427   3.058   6.653  0.3673  0.9261  0.0228
  181SOPE   C3220653   2.611   3.095   6.813 -0.2372  0.1159  0.2284
  181SOPE   H2X20654   2.662   3.167   6.745 -0.6785 -1.1905 -1.5561
  181SOPE   H2Y20655   2.694   3.031   6.848 -0.7891 -1.6671 -1.5115
  181SOPE   C2320656   2.877   2.611   6.795 -0.0338  0.3762 -0.1211
  181SOPE   H3R20657   2.938   2.704   6.790 -0.1789  0.6006  1.5932
  181SOPE   H3S20658   2.943   2.528   6.828  0.5547  1.0527  0.4339
  181SOPE   C2420659   2.777   2.622   6.911 -0.1665  0.1888 -0.2606
  181SOPE   H4R20660   2.689   2.687   6.890  1.2380  2.3933  0.3696
  181SOPE   H4S20661   2.733   2.526   6.946 -0.0787  0.5747  0.9617
  181SOPE   C2520662   2.852   2.687   7.039  0.8419  0.0561  0.0980
  181SOPE   H5R20663   2.921   2.616   7.089  1.6315 -0.5668 -1.7731
  181SOPE   H5S20664   2.917   2.765   6.994  0.6427  0.9521  1.3380
  181SOPE   C2620665   2.753   2.745   7.144  0.8243  0.4511  0.2381
  181SOPE   H6R20666   2.798   2.824   7.207  0.0795  1.7310 -0.7876
  181SOPE   H6S20667   2.668   2.799   7.096  1.2697 -0.6207 -1.8918
  181SOPE   C2720668   2.685   2.640   7.240  0.9998  1.1705  0.1075
  181SOPE   H7R20669   2.625   2.568   7.181  2.4564 -0.1135  0.1353
  181SOPE   H7S20670   2.768   2.585   7.289  0.3840  1.6609  1.7599
  181SOPE   C2820671   2.592   2.693   7.351  0.6755  0.0312  0.6045
  181SOPE   H8R20672   2.505   2.744   7.305 -0.2233 -3.0782 -1.5089
  181SOPE   H8S20673   2.545   2.599   7.389 -2.4285  0.7245 -1.1864
  181SOPE   C2920674   2.650   2.780   7.454  0.0463  0.1581 -0.3828
  181SOPE   H9120675   2.733   2.843   7.418  1.0118 -0.9144 -0.0978
  181SOPE  C21020676   2.612   2.777   7.582 -0.0498 -0.1775  0.2749
  181SOPE  H10120677   2.662   2.835   7.660 -1.0372 -1.2436  1.7373
  181SOPE  C21120678   2.487   2.706   7.631  0.2962  0.4076 -0.0080
  181SOPE  H11R20679   2.489   2.597   7.615  1.9638  0.5472 -1.0022
  181SOPE  H11S20680   2.397   2.752   7.583  0.2969 -0.5799 -1.0103
  181SOPE  C21220681   2.470   2.747   7.778 -0.2276  0.3114  0.5144
  181SOPE  H12R20682   2.557   2.705   7.834  0.0609  1.5589  1.0400
  181SOPE  H12S20683   2.376   2.698   7.811 -1.2894  0.2455 -2.3598
  181SOPE  C21320684   2.442   2.896   7.803 -0.3586 -0.3036 -0.5950
  181SOPE  H13R20685   2.401   2.933   7.706  0.6910  0.5595 -0.7224
  181SOPE  H13S20686   2.528   2.963   7.820 -0.4505  0.7965 -3.7887
  181SOPE  C21420687   2.332   2.917   7.907  0.0210  0.0648 -0.4302
  181SOPE  H14R20688   2.235   2.870   7.880 -0.0442 -0.9841  1.4310
  181SOPE  H14S20689   2.319   3.027   7.913 -0.0952 -0.0024  1.1402
  181SOPE  C21520690   2.381   2.868   8.048 -0.3148 -0.0901  0.7290
  181SOPE  H15R20691   2.476   2.922   8.070 -0.6800  1.3836 -1.1251
  181SOPE  H15S20692   2.394   2.758   8.039  1.0730  0.2076 -1.4993
  181SOPE  C21620693   2.282   2.893   8.169  0.7708 -0.0256 -0.2950
  181SOPE  H16R20694   2.328   2.843   8.257 -1.3736  0.9835  1.4816
  181SOPE  H16S20695   2.190   2.842   8.134  1.2503 -1.8225  0.8883
  181SOPE  C21720696   2.251   3.037   8.209 -0.8877 -0.3301 -0.4768
  181SOPE  H17R20697   2.313   3.100   8.141 -0.4970 -0.0250  0.1568
  181SOPE  H17S20698   2.279   3.071   8.311  0.2239 -2.0499 -0.1576
  181SOPE  C21820699   2.101   3.076   8.186  0.3205  0.2151  0.1844
  181SOPE  H18R20700   2.076   3.060   8.079 -1.5985 -1.1034  0.7907
  181SOPE  H18S20701   2.082   3.181   8.217 -1.1202  0.3062 -0.9332
  181SOPE  H18T20702   2.037   3.021   8.258 -0.1774  0.5101 -0.0310
  181SOPE   C3320703   2.538   3.161   6.930 -0.2103 -0.1892  0.4048
  181SOPE   H3X20704   2.443   3.208   6.897 -0.8331 -1.7665 -0.1314
  181SOPE   H3Y20705   2.606   3.235   6.979  0.5663  0.5186 -1.6482
  181SOPE   C3420706   2.505   3.064   7.034  0.0306  0.3172 -0.2120
  181SOPE   H4X20707   2.602   3.017   7.057  1.0929  1.8092 -1.4301
  181SOPE   H4Y20708   2.426   2.993   7.000  0.7102 -1.0586  0.9733
  181SOPE   C3520709   2.451   3.141   7.159  0.1910 -0.1924 -0.4192
  181SOPE   H5X20710   2.366   3.205   7.128  0.9443  1.1611  0.2013
  181SOPE   H5Y20711   2.530   3.200   7.210  0.9446  0.1632 -1.9337
  181SOPE   C3620712   2.376   3.048   7.262 -0.8102  0.4626  0.5836
  181SOPE   H6X20713   2.444   2.971   7.306  1.6608  2.0280 -0.2778
  181SOPE   H6Y20714   2.310   2.989   7.195  1.2364 -3.0428  1.3369
  181SOPE   C3720715   2.296   3.128   7.363  0.6429 -0.7162  0.0258
  181SOPE   H7X20716   2.201   3.080   7.394  1.1453 -2.5694 -1.1860
  181SOPE   H7Y20717   2.272   3.226   7.315  2.6339  0.3567  1.0933
  181SOPE   C3820718   2.376   3.157   7.488 -0.2941  0.3924 -0.4723
  181SOPE   H8X20719   2.469   3.214   7.466 -0.7573  0.0591 -3.8284
  181SOPE   H8Y20720   2.410   3.056   7.521 -0.7673 -0.6068 -2.7855
  181SOPE   C3920721   2.289   3.228   7.589  0.0311 -0.0038  0.3127
  181SOPE   H9X20722   2.194   3.172   7.604  0.4969 -0.0192  4.3589
  181SOPE   H9Y20723   2.262   3.329   7.552  1.7221  0.2633 -0.2969
  181SOPE  C31020724   2.347   3.243   7.733  0.0323  0.5063  0.5805
  181SOPE  H10X20725   2.447   3.288   7.720  0.3268 -0.5444 -1.1791
  181SOPE  H10Y20726   2.368   3.140   7.769 -1.8158 -0.5931 -1.2016
  181SOPE  C31120727   2.254   3.330   7.814 -0.0277  0.4272  0.6582
  181SOPE  H11X20728   2.164   3.266   7.823  0.9694 -0.9328  1.0921
  181SOPE  H11Y20729   2.227   3.417   7.749 -0.1700 -0.2533 -0.2112
  181SOPE  C31220730   2.297   3.371   7.955  0.1697  0.3941 -0.2320
  181SOPE  H12X20731   2.384   3.440   7.942 -0.0651  0.5420 -1.1133
  181SOPE  H12Y20732   2.337   3.284   8.012 -0.7486  0.8322  1.1272
  181SOPE  C31320733   2.193   3.436   8.035  0.5087 -0.5195 -0.1628
  181SOPE  H13X20734   2.103   3.370   8.043 -1.0539  1.5244  0.1212
  181SOPE  H13Y20735   2.155   3.525   7.981 -0.2984 -1.0761 -0.5304
  181SOPE  C31420736   2.221   3.486   8.185  0.1927 -0.1615  0.7919
  181SOPE  H14X20737   2.293   3.570   8.178  3.1523 -2.6054 -0.0231
  181SOPE  H14Y20738   2.278   3.405   8.237  1.0899  0.0002  0.0771
  181SOPE  C31520739   2.096   3.538   8.264  0.3261  0.6169  0.6067
  181SOPE  H15X20740   2.018   3.458   8.263 -0.1485  1.0774 -0.9663
  181SOPE  H15Y20741   2.057   3.618   8.198  0.6893  0.0996 -0.2520
  181SOPE  C31620742   2.140   3.596   8.395  0.8780  0.2938 -0.1929
  181SOPE  H16X20743   2.212   3.680   8.381 -1.0475  2.2137  0.8438
  181SOPE  H16Y20744   2.184   3.518   8.460 -2.7388 -3.1765 -1.5023
  181SOPE  C31720745   2.023   3.647   8.484  0.1720 -0.8855  0.0542
  181SOPE  H17X20746   1.945   3.571   8.505  0.7466 -0.9300  2.3586
  181SOPE  H17Y20747   1.971   3.726   8.427  1.0853 -0.9453 -0.8817
  181SOPE  C31820748   2.051   3.691   8.625  0.1700  0.6035  0.0698
  181SOPE  H18X20749   2.136   3.761   8.635 -0.6811  1.9088 -1.4340
  181SOPE  H18Y20750   2.068   3.599   8.686  0.3589  1.1702  0.8827
  181SOPE  H18Z20751   1.961   3.733   8.674 -0.4837 -0.5711 -0.0778
  182SOPE     N20752   4.826   0.643   6.052 -0.4606  1.1190  0.5523
  182SOPE   HN120753   4.796   0.639   5.953  1.2284  0.5401  0.0272
  182SOPE   HN220754   4.758   0.596   6.115  0.9086 -1.3208  0.3482
  182SOPE   HN320755   4.830   0.742   6.083  0.9748  1.3237 -0.1843
  182SOPE   C1220756   4.953   0.571   6.092  0.7097 -0.5194  0.3456
  182SOPE  H12A20757   4.943   0.463   6.066  1.6091 -0.9127  1.5295
  182SOPE  H12B20758   4.961   0.576   6.203  0.7092  0.5175  0.3052
  182SOPE   C1120759   5.080   0.619   6.020  0.6059 -0.1721 -0.0722
  182SOPE  H11A20760   5.089   0.728   5.999  0.4180 -0.1610 -0.0995
  182SOPE  H11B20761   5.102   0.568   5.924 -0.2732  0.0267 -0.3932
  182SOPE     P20762   5.267   0.478   6.109  0.5480  0.9270  0.0006
  182SOPE   O1320763   5.356   0.504   5.996  0.0658 -0.6089 -0.3062
  182SOPE   O1420764   5.192   0.354   6.107  0.5684  0.3268  0.5082
  182SOPE   O1220765   5.175   0.596   6.122  0.0839 -0.4845 -0.1404
  182SOPE   O1120766   5.358   0.473   6.237 -0.6858  0.9015 -0.2278
  182SOPE    C120767   5.353   0.587   6.324  0.2490 -0.7912  0.1582
  182SOPE    HA20768   5.253   0.622   6.357  1.0533  0.1033  1.7287
  182SOPE    HB20769   5.405   0.674   6.279 -1.1011 -0.1699 -0.2736
  182SOPE    C220770   5.435   0.564   6.456  0.5224 -1.0119 -0.2917
  182SOPE    HS20771   5.441   0.667   6.496 -1.8932 -0.8577 -0.1583
  182SOPE   O2120772   5.571   0.510   6.451 -0.1645 -0.3602  0.0249
  182SOPE   C2120773   5.658   0.599   6.391  0.3166  0.2843 -0.6781
  182SOPE   O2220774   5.625   0.710   6.355 -0.1942  0.2017 -0.0678
  182SOPE   C2220775   5.798   0.540   6.393 -0.0996 -0.7992  0.8467
  182SOPE   H2R20776   5.837   0.560   6.291 -0.9124  2.5036  1.0808
  182SOPE   H2S20777   5.801   0.430   6.408 -1.8035 -0.8619  0.8420
  182SOPE    C320778   5.356   0.490   6.570 -0.4312  0.3980 -0.3577
  182SOPE    HX20779   5.352   0.384   6.538  2.4491  0.2286 -0.4091
  182SOPE    HY20780   5.252   0.530   6.568 -1.2917 -1.4494  2.2507
  182SOPE   O3120781   5.432   0.504   6.686  0.2126  0.2671 -0.0233
  182SOPE   C3120782   5.420   0.614   6.767  0.4958  0.1664  0.2179
  182SOPE   O3220783   5.344   0.704   6.738  0.2943  0.3349 -0.3024
  182SOPE   C3220784   5.520   0.617   6.886 -0.1782  0.3379 -0.6980
  182SOPE   H2X20785   5.591   0.698   6.859 -1.1193  1.1081 -0.9334
  182SOPE   H2Y20786   5.574   0.520   6.886 -0.1933  0.3307 -0.4027
  182SOPE   C2320787   5.894   0.619   6.488  0.8306 -0.2247  0.0892
  182SOPE   H3R20788   5.888   0.728   6.468  0.9262  0.2913  2.5631
  182SOPE   H3S20789   5.993   0.571   6.473  1.1250 -0.1993  1.7439
  182SOPE   C2420790   5.847   0.587   6.630  0.0853  0.6051 -0.4936
  182SOPE   H4R20791   5.753   0.645   6.647 -0.3483  0.0086 -0.8274
  182SOPE   H4S20792   5.817   0.481   6.641  3.1377 -0.3980 -0.9016
  182SOPE   C2520793   5.947   0.613   6.749 -0.7245 -0.0806  0.0237
  182SOPE   H5R20794   6.037   0.552   6.730  0.3704  1.1843  0.9737
  182SOPE   H5S20795   5.980   0.719   6.757 -0.7688 -0.0473 -0.2062
  182SOPE   C2620796   5.877   0.568   6.874 -0.3271 -0.3853 -0.4323
  182SOPE   H6R20797   5.787   0.632   6.888 -1.1613 -0.5837 -3.9912
  182SOPE   H6S20798   5.832   0.468   6.856  0.7592 -1.2440  1.3002
  182SOPE   C2720799   5.965   0.560   6.992  0.2614  0.2678 -0.7130
  182SOPE   H7R20800   6.030   0.470   6.985 -1.9658 -1.5036  0.1819
  182SOPE   H7S20801   6.031   0.650   6.986 -0.3003  0.9630  1.9649
  182SOPE   C2820802   5.873   0.561   7.112 -0.4162  0.2939 -0.2586
  182SOPE   H8R20803   5.819   0.658   7.123 -0.8062  0.1441 -0.7922
  182SOPE   H8S20804   5.797   0.480   7.099 -1.3841  1.5025 -2.8522
  182SOPE   C2920805   5.966   0.542   7.233  0.4303  0.6551  0.8887
  182SOPE   H9120806   6.045   0.618   7.241  1.5609 -0.1723 -1.5934
  182SOPE  C21020807   5.967   0.445   7.330 -0.5507 -0.4462 -0.1741
  182SOPE  H10120808   6.058   0.444   7.392 -0.8677 -1.1204  0.2791
  182SOPE  C21120809   5.870   0.333   7.351 -0.0438 -0.3624 -0.0336
  182SOPE  H11R20810   5.886   0.250   7.279 -1.2757  0.4523 -1.2766
  182SOPE  H11S20811   5.765   0.365   7.336 -0.0804  0.0420  0.9787
  182SOPE  C21220812   5.888   0.282   7.497 -0.4226 -0.2861  0.4687
  182SOPE  H12R20813   5.994   0.260   7.523 -0.3314  1.0527  1.3540
  182SOPE  H12S20814   5.837   0.184   7.512 -1.4863  0.2304  0.2896
  182SOPE  C21320815   5.850   0.381   7.608 -0.1697 -0.8375  0.5801
  182SOPE  H13R20816   5.741   0.399   7.596 -0.3593 -1.7677  0.8509
  182SOPE  H13S20817   5.905   0.477   7.594  0.3955 -1.2751 -0.2940
  182SOPE  C21420818   5.879   0.327   7.750  1.2348  0.4003 -0.2541
  182SOPE  H14R20819   5.976   0.276   7.738 -0.0780 -2.0205 -1.2577
  182SOPE  H14S20820   5.808   0.243   7.762  1.2512 -0.0943 -2.9606
  182SOPE  C21520821   5.878   0.431   7.863 -0.5266  0.0831  0.3354
  182SOPE  H15R20822   5.946   0.515   7.835  1.0082 -0.7881  1.3453
  182SOPE  H15S20823   5.937   0.387   7.946  1.4659  1.3768 -0.3069
  182SOPE  C21620824   5.744   0.500   7.905  0.0468 -0.5394  0.0431
  182SOPE  H16R20825   5.686   0.524   7.814  0.0170  0.9206  0.4213
  182SOPE  H16S20826   5.768   0.592   7.962  1.7922 -0.2812 -1.0250
  182SOPE  C21720827   5.655   0.413   7.986  0.1980 -0.1203  0.0223
  182SOPE  H17R20828   5.707   0.372   8.076  2.1268  0.8720 -0.5901
  182SOPE  H17S20829   5.628   0.332   7.914 -1.6405  1.6507 -1.4076
  182SOPE  C21820830   5.523   0.487   8.009 -0.2194 -0.0663  0.1578
  182SOPE  H18R20831   5.469   0.508   7.914  0.2628  2.1899  0.3252
  182SOPE  H18S20832   5.542   0.574   8.076  1.3364  0.7171 -1.2320
  182SOPE  H18T20833   5.453   0.420   8.063 -1.2838  0.8134 -0.0828
  182SOPE   C3320834   5.450   0.641   7.017 -0.3127  0.1258  0.1074
  182SOPE   H3X20835   5.368   0.567   7.032 -1.4653  1.5618  1.3098
  182SOPE   H3Y20836   5.404   0.742   7.014 -1.7414 -0.5217 -1.0366
  182SOPE   C3420837   5.541   0.644   7.140  0.0491  0.0220 -0.5415
  182SOPE   H4X20838   5.610   0.731   7.140  0.2362 -0.0947  0.9042
  182SOPE   H4Y20839   5.599   0.550   7.148  0.9151  0.5429 -0.6305
  182SOPE   C3520840   5.457   0.667   7.262 -0.1660 -0.5588  0.0731
  182SOPE   H5X20841   5.383   0.585   7.275 -0.5428  0.0055  1.7522
  182SOPE   H5Y20842   5.412   0.765   7.237  1.5407 -0.0476 -1.1225
  182SOPE   C3620843   5.529   0.664   7.397  0.5371 -0.4599 -0.2039
  182SOPE   H6X20844   5.584   0.570   7.414  0.3761 -0.6070 -0.4882
  182SOPE   H6Y20845   5.453   0.668   7.478  1.6728 -1.7524  0.9696
  182SOPE   C3720846   5.616   0.791   7.405 -0.1674 -0.3373 -0.7550
  182SOPE   H7X20847   5.552   0.881   7.416 -0.2592 -0.7000  3.3024
  182SOPE   H7Y20848   5.685   0.788   7.319 -0.0040  3.1148 -0.8840
  182SOPE   C3820849   5.705   0.786   7.536  0.2305 -0.4109 -0.6543
  182SOPE   H8X20850   5.801   0.734   7.516 -0.0011 -1.6219  1.1327
  182SOPE   H8Y20851   5.659   0.720   7.613  2.5043 -1.6272 -0.2363
  182SOPE   C3920852   5.713   0.929   7.595 -0.2222 -0.1582  0.2364
  182SOPE   H9X20853   5.611   0.964   7.619  0.0183 -0.4376  1.7767
  182SOPE   H9Y20854   5.768   0.998   7.528 -0.3981  2.6456  2.7927
  182SOPE  C31020855   5.796   0.927   7.728 -0.1434  0.2082 -1.1295
  182SOPE  H10X20856   5.822   1.034   7.740 -1.1540  0.3557 -0.1227
  182SOPE  H10Y20857   5.892   0.872   7.711 -0.8980 -1.6392  0.2170
  182SOPE  C31120858   5.732   0.867   7.847  0.0332  0.1908 -0.5856
  182SOPE  H11X20859   5.729   0.757   7.832  0.3829  0.3941 -2.2822
  182SOPE  H11Y20860   5.627   0.903   7.862 -0.1780 -1.2086  1.7747
  182SOPE  C31220861   5.809   0.906   7.972 -0.7044  0.5023 -0.3275
  182SOPE  H12X20862   5.817   1.014   7.996  0.9580 -0.2088  2.7582
  182SOPE  H12Y20863   5.915   0.881   7.952 -0.6497 -1.3541  1.8922
  182SOPE  C31320864   5.752   0.845   8.099  0.5432  0.1828 -0.5347
  182SOPE  H13X20865   5.829   0.837   8.180  1.0016 -0.8727 -1.0644
  182SOPE  H13Y20866   5.717   0.740   8.092 -1.1262  0.7660 -1.4938
  182SOPE  C31420867   5.626   0.922   8.135 -0.3142  0.9079  0.3909
  182SOPE  H14X20868   5.550   0.897   8.058  0.4502  0.2225 -0.1563
  182SOPE  H14Y20869   5.634   1.033   8.138  2.7934  0.7843 -0.2959
  182SOPE  C31520870   5.565   0.890   8.275  0.1808 -0.5298  0.4163
  182SOPE  H15X20871   5.477   0.955   8.294  0.9571  0.4507  0.8416
  182SOPE  H15Y20872   5.652   0.933   8.331 -0.3188  0.9444  0.1145
  182SOPE  C31620873   5.548   0.748   8.323  0.2244  1.0296 -0.0338
  182SOPE  H16X20874   5.639   0.685   8.310  0.9832  1.9877  0.4789
  182SOPE  H16Y20875   5.474   0.695   8.260 -1.5603  0.3556  2.4667
  182SOPE  C31720876   5.490   0.741   8.466  0.4983 -0.6521 -0.1659
  182SOPE  H17X20877   5.391   0.792   8.475 -0.4857 -2.5624  0.5432
  182SOPE  H17Y20878   5.562   0.785   8.538 -0.0260 -2.5572  1.6508
  182SOPE  C31820879   5.455   0.600   8.510 -0.0166  0.3276  0.4262
  182SOPE  H18X20880   5.546   0.537   8.519 -1.4879 -1.8220  1.0516
  182SOPE  H18Y20881   5.392   0.547   8.435  2.6218 -0.3411 -1.4694
  182SOPE  H18Z20882   5.400   0.599   8.606 -0.8434 -1.0973 -0.0190
  183SOPE     N20883   6.654   4.696   6.545  0.2725 -0.9192 -0.4080
  183SOPE   HN120884   6.666   4.708   6.443  1.3567  1.0668 -0.1188
  183SOPE   HN220885   6.591   4.772   6.578  1.6152  0.3140 -0.5980
  183SOPE   HN320886   6.751   4.713   6.580 -0.0414 -0.4080  0.2569
  183SOPE   C1220887   6.596   4.558   6.566  0.3045 -0.0400  0.1424
  183SOPE  H12A20888   6.503   4.546   6.508 -0.6750  2.0981  1.1600
  183SOPE  H12B20889   6.584   4.550   6.676 -1.5156  2.3231  0.1992
  183SOPE   C1120890   6.696   4.455   6.521 -0.0179 -0.5447 -0.4014
  183SOPE  H11A20891   6.704   4.458   6.410 -0.3040  0.2620 -0.4097
  183SOPE  H11B20892   6.652   4.355   6.538 -1.9545  0.4439  0.7375
  183SOPE     P20893   6.939   4.374   6.550 -0.4504 -0.0265 -0.4208
  183SOPE   O1320894   7.062   4.452   6.559  0.1443  0.6460 -0.4863
  183SOPE   O1420895   6.919   4.300   6.429 -0.4992  0.0423 -0.6179
  183SOPE   O1220896   6.819   4.471   6.582 -0.8261  0.4251 -0.1165
  183SOPE   O1120897   6.937   4.281   6.683 -0.1617  0.0861  1.0836
  183SOPE    C120898   7.022   4.164   6.691 -0.0629 -0.6338 -1.0098
  183SOPE    HA20899   7.053   4.126   6.591 -1.1975 -0.9226 -1.2609
  183SOPE    HB20900   6.965   4.076   6.725  1.6131 -1.2472  0.3709
  183SOPE    C220901   7.149   4.182   6.782 -0.2768  0.0506  0.1757
  183SOPE    HS20902   7.182   4.078   6.808  0.7800  0.2455 -0.3384
  183SOPE   O2120903   7.133   4.255   6.904 -0.1023  0.0903 -0.0097
  183SOPE   C2120904   7.060   4.192   6.995  0.5039 -1.0300 -0.5287
  183SOPE   O2220905   7.019   4.080   6.986 -0.4528 -0.1432  0.0712
  183SOPE   C2220906   7.037   4.289   7.110  0.2134 -0.2940 -0.2840
  183SOPE   H2R20907   6.947   4.351   7.093 -0.4227 -0.3806  2.3333
  183SOPE   H2S20908   7.123   4.359   7.117 -0.4207  0.3344  2.3502
  183SOPE    C320909   7.262   4.246   6.704 -0.2629 -0.4399  0.2741
  183SOPE    HX20910   7.239   4.353   6.682  0.0526 -0.5401 -0.5867
  183SOPE    HY20911   7.259   4.201   6.603 -3.4181 -0.1749  0.1663
  183SOPE   O3120912   7.396   4.257   6.762 -0.2944 -0.2501 -0.4987
  183SOPE   C3120913   7.474   4.148   6.748  0.1908 -0.1716  0.2681
  183SOPE   O3220914   7.441   4.049   6.683 -0.2261  0.3626  0.0815
  183SOPE   C3220915   7.609   4.157   6.828  0.2761  0.5761 -0.0657
  183SOPE   H2X20916   7.664   4.253   6.813  3.6850 -0.9957  1.3504
  183SOPE   H2Y20917   7.675   4.076   6.790  1.5004  0.9817  1.1386
  183SOPE   C2320918   7.026   4.216   7.245  0.4152  0.1678 -0.1197
  183SOPE   H3R20919   7.125   4.168   7.261  0.0117 -0.7279 -0.2816
  183SOPE   H3S20920   6.948   4.138   7.253 -1.4441  2.0446  0.9589
  183SOPE   C2420921   7.013   4.310   7.356 -1.0069  0.0501 -0.5490
  183SOPE   H4R20922   7.089   4.391   7.350 -0.4936 -0.3955 -0.1402
  183SOPE   H4S20923   6.909   4.349   7.349 -1.8231 -1.7111  0.8802
  183SOPE   C2520924   7.022   4.240   7.494 -0.5076 -0.2668 -0.6333
  183SOPE   H5R20925   6.950   4.157   7.506  0.0736 -0.7075 -0.1548
  183SOPE   H5S20926   7.122   4.200   7.520 -0.4637  0.9162  1.2324
  183SOPE   C2620927   6.987   4.345   7.605 -0.7401 -0.1423  0.0558
  183SOPE   H6R20928   7.065   4.423   7.609  0.0678 -0.9534  0.5891
  183SOPE   H6S20929   6.890   4.396   7.589 -0.3836  0.7170  0.6001
  183SOPE   C2720930   6.987   4.286   7.749  0.1714 -0.8037 -0.2861
  183SOPE   H7R20931   7.089   4.250   7.776  0.3741  0.7140  1.1668
  183SOPE   H7S20932   6.970   4.368   7.822  1.3554 -2.4199  1.9425
  183SOPE   C2820933   6.889   4.180   7.789  0.2435  0.9776 -0.1946
  183SOPE   H8R20934   6.927   4.088   7.739  0.9624  0.7613  0.7084
  183SOPE   H8S20935   6.907   4.154   7.896  1.1495 -0.6351 -0.7096
  183SOPE   C2920936   6.741   4.205   7.779 -0.2763  0.3556  0.7888
  183SOPE   H9120937   6.694   4.159   7.691 -1.2436  3.1284 -0.2759
  183SOPE  C21020938   6.658   4.275   7.857 -0.2111  0.0271  0.5405
  183SOPE  H10120939   6.553   4.261   7.827  0.2789  0.2739 -1.4313
  183SOPE  C21120940   6.705   4.352   7.977  0.4026  0.9795 -0.6835
  183SOPE  H11R20941   6.681   4.460   7.977 -0.2818  0.8807  1.2426
  183SOPE  H11S20942   6.816   4.348   7.984  0.2948  0.5752  2.3938
  183SOPE  C21220943   6.660   4.290   8.111  0.4654 -0.1585  0.2913
  183SOPE  H12R20944   6.742   4.320   8.179  1.7066 -0.9814 -0.8082
  183SOPE  H12S20945   6.675   4.180   8.121  2.0669  0.1872  2.2066
  183SOPE  C21320946   6.528   4.327   8.159  0.4829 -0.3174  0.0976
  183SOPE  H13R20947   6.447   4.326   8.083  1.5132  1.0550 -1.0699
  183SOPE  H13S20948   6.531   4.432   8.193 -0.4334 -0.8653  2.0204
  183SOPE  C21420949   6.483   4.251   8.290  0.2121 -0.7885  0.0277
  183SOPE  H14R20950   6.568   4.246   8.361  1.1751  2.2648 -0.7920
  183SOPE  H14S20951   6.473   4.144   8.260 -0.8839 -1.1072  1.4249
  183SOPE  C21520952   6.354   4.302   8.359 -1.0436 -0.4539  0.6863
  183SOPE  H15R20953   6.273   4.300   8.284 -0.6379 -0.4914  0.2416
  183SOPE  H15S20954   6.375   4.406   8.391 -0.1199 -0.8956  1.5883
  183SOPE  C21620955   6.306   4.216   8.477 -0.0133  0.4586 -0.6448
  183SOPE  H16R20956   6.317   4.111   8.444  0.3158 -0.0992  1.1712
  183SOPE  H16S20957   6.200   4.242   8.497  0.2562  0.1891  1.3063
  183SOPE  C21720958   6.383   4.246   8.605  0.0372 -0.1777 -0.1665
  183SOPE  H17R20959   6.337   4.341   8.639 -1.7122 -0.9383 -0.2787
  183SOPE  H17S20960   6.492   4.260   8.589 -0.1198  2.1039  0.4226
  183SOPE  C21820961   6.372   4.138   8.710 -0.2190 -0.8114 -0.3322
  183SOPE  H18R20962   6.265   4.120   8.735 -0.7712  1.8949 -0.4167
  183SOPE  H18S20963   6.430   4.164   8.801 -0.9741  0.5374 -0.2110
  183SOPE  H18T20964   6.413   4.041   8.674  2.2141 -0.3038  0.9087
  183SOPE   C3320965   7.599   4.136   6.979  0.0141  0.4025  0.2409
  183SOPE   H3X20966   7.545   4.221   7.025 -1.2718 -0.5707  0.5937
  183SOPE   H3Y20967   7.702   4.151   7.016 -0.5034  0.5984  1.6382
  183SOPE   C3420968   7.532   4.007   7.024 -0.4431  0.4142  0.1156
  183SOPE   H4X20969   7.559   3.917   6.965 -1.1083 -1.4810  2.5491
  183SOPE   H4Y20970   7.422   4.013   7.010 -0.4718 -1.3890 -0.6917
  183SOPE   C3520971   7.566   3.968   7.170 -0.1189 -0.4884  0.3300
  183SOPE   H5X20972   7.665   4.013   7.194 -0.2630 -0.8598  1.6555
  183SOPE   H5Y20973   7.565   3.857   7.180  2.4909 -0.7623 -1.4330
  183SOPE   C3620974   7.477   4.041   7.273  0.2143 -0.5771  0.0603
  183SOPE   H6X20975   7.370   4.024   7.251  0.1552  0.5652 -0.6622
  183SOPE   H6Y20976   7.483   4.151   7.258 -2.8239 -0.2341  0.8272
  183SOPE   C3720977   7.520   4.005   7.415 -0.2741  0.5971 -0.0838
  183SOPE   H7X20978   7.625   4.034   7.440  0.1070 -0.1602 -0.7638
  183SOPE   H7Y20979   7.514   3.895   7.423  0.8737  0.3804 -1.7494
  183SOPE   C3820980   7.429   4.072   7.520  0.2408  0.3250  0.3022
  183SOPE   H8X20981   7.319   4.087   7.511 -0.1913 -0.4905  3.0093
  183SOPE   H8Y20982   7.477   4.172   7.525 -1.1921  1.1621 -1.6709
  183SOPE   C3920983   7.443   4.006   7.657  0.0078 -0.9072 -0.4218
  183SOPE   H9X20984   7.550   3.997   7.688  0.0518 -0.1493 -0.3241
  183SOPE   H9Y20985   7.404   3.902   7.656 -2.0343 -0.2116  0.7540
  183SOPE  C31020986   7.369   4.075   7.779 -0.1692 -0.0509 -0.1431
  183SOPE  H10X20987   7.269   4.106   7.740 -0.0342 -0.4051 -0.7811
  183SOPE  H10Y20988   7.429   4.165   7.806  0.7106 -0.2012 -1.5204
  183SOPE  C31120989   7.334   3.970   7.889 -0.5836  0.2947 -0.3972
  183SOPE  H11X20990   7.419   3.903   7.913  0.0951  1.1320 -0.4043
  183SOPE  H11Y20991   7.261   3.899   7.846  1.5515 -1.9561 -0.4892
  183SOPE  C31220992   7.275   4.023   8.023 -0.3408 -0.3650 -0.1138
  183SOPE  H12X20993   7.174   4.066   8.008 -0.3716  0.5482  2.1980
  183SOPE  H12Y20994   7.344   4.103   8.059 -0.6709 -0.5296  0.9205
  183SOPE  C31320995   7.256   3.907   8.127  0.4180 -0.3356  0.1611
  183SOPE  H13X20996   7.316   3.815   8.107  0.8931 -0.9543  3.7332
  183SOPE  H13Y20997   7.152   3.869   8.137 -0.4033  2.0898  1.4098
  183SOPE  C31420998   7.304   3.946   8.269 -0.3953  0.8801  0.4242
  183SOPE  H14X20999   7.409   3.968   8.242 -0.8991 -0.7108 -3.3473
  183SOPE  H14Y21000   7.309   3.856   8.335  0.6724  1.1439  0.7211
  183SOPE  C31521001   7.246   4.072   8.350 -0.0818  0.1144  0.4258
  183SOPE  H15X21002   7.136   4.060   8.350 -0.0175 -0.8915  2.5760
  183SOPE  H15Y21003   7.269   4.168   8.299  0.8651  0.0977  0.8039
  183SOPE  C31621004   7.305   4.089   8.491  0.0374 -0.4410  0.7768
  183SOPE  H16X21005   7.272   4.005   8.556 -1.8009 -2.1348 -2.1658
  183SOPE  H16Y21006   7.266   4.184   8.534 -0.7854  1.0591 -2.9632
  183SOPE  C31721007   7.461   4.106   8.507  0.2709 -0.8310  0.1091
  183SOPE  H17X21008   7.484   4.205   8.462  0.0670 -0.7116  0.2613
  183SOPE  H17Y21009   7.516   4.030   8.448  0.2306 -0.8484  0.0943
  183SOPE  C31821010   7.514   4.098   8.650  0.0005 -0.1105  0.0468
  183SOPE  H18X21011   7.624   4.088   8.654 -0.1743 -2.7725  0.0913
  183SOPE  H18Y21012   7.467   4.015   8.707  0.3248 -1.3065 -1.3592
  183SOPE  H18Z21013   7.486   4.187   8.710 -1.6063 -0.5910  0.0681
  184SOPE     N21014   2.605   6.730   5.935 -0.6157 -0.2283  0.0836
  184SOPE   HN121015   2.683   6.665   5.959  0.7324  1.4916  0.5953
  184SOPE   HN221016   2.649   6.823   5.950 -1.8336  0.1024  2.1173
  184SOPE   HN321017   2.534   6.739   6.011 -1.3881  0.6631 -0.7180
  184SOPE   C1221018   2.529   6.695   5.805 -0.4119 -0.2505  0.3372
  184SOPE  H12A21019   2.499   6.590   5.823 -0.1095 -0.0751  2.0125
  184SOPE  H12B21020   2.605   6.702   5.723 -0.2022 -0.2569  0.5300
  184SOPE   C1121021   2.415   6.792   5.777 -0.0804  0.9002 -0.5832
  184SOPE  H11A21022   2.397   6.792   5.668 -2.2080  1.8807 -0.2767
  184SOPE  H11B21023   2.449   6.890   5.819 -0.5722  0.0258  2.0653
  184SOPE     P21024   2.247   6.804   5.979 -0.1439 -0.3464 -0.3755
  184SOPE   O1321025   2.103   6.772   6.003  0.0645 -0.2456 -0.4594
  184SOPE   O1421026   2.290   6.944   5.989 -0.1645  0.0862  0.1850
  184SOPE   O1221027   2.295   6.744   5.838 -0.1078 -0.1730  0.2713
  184SOPE   O1121028   2.351   6.724   6.080  0.0219  0.2623 -0.7091
  184SOPE    C121029   2.285   6.603   6.132 -0.1652  0.1938  0.0112
  184SOPE    HA21030   2.365   6.527   6.146  0.7057  0.9399 -0.7722
  184SOPE    HB21031   2.213   6.554   6.063 -0.3903  1.2520 -0.5231
  184SOPE    C221032   2.218   6.635   6.269  0.5884  0.7053 -0.0720
  184SOPE    HS21033   2.166   6.731   6.252 -0.3161  0.4674  1.1809
  184SOPE   O2121034   2.320   6.659   6.378  0.3369 -0.0120  0.3288
  184SOPE   C2121035   2.289   6.735   6.483  0.4371 -0.4487  0.0990
  184SOPE   O2221036   2.198   6.821   6.486 -0.1919 -0.0242  0.7062
  184SOPE   C2221037   2.395   6.718   6.595  1.1192 -0.8815 -0.2538
  184SOPE   H2R21038   2.464   6.804   6.581  0.8820 -0.8058 -1.0170
  184SOPE   H2S21039   2.439   6.616   6.589 -0.0118 -1.4824  1.1567
  184SOPE    C321040   2.114   6.522   6.317 -0.4626 -0.2208  0.0320
  184SOPE    HX21041   2.148   6.416   6.314 -0.4649 -0.2625  1.0839
  184SOPE    HY21042   2.026   6.518   6.250 -1.6609 -0.8257  1.5893
  184SOPE   O3121043   2.075   6.544   6.448 -0.0271  0.0823 -0.1592
  184SOPE   C3121044   1.967   6.625   6.465  0.0016 -0.6311  0.1472
  184SOPE   O3221045   1.911   6.678   6.368  0.4283  0.2976 -0.7563
  184SOPE   C3221046   1.934   6.651   6.612  0.7223  0.7850  0.4226
  184SOPE   H2X21047   1.891   6.752   6.624 -3.3801 -0.8523  1.3977
  184SOPE   H2Y21048   2.031   6.648   6.667  1.3537  0.3685 -0.6831
  184SOPE   C2321049   2.326   6.736   6.733 -0.5904 -0.2798 -0.1800
  184SOPE   H3R21050   2.255   6.651   6.732 -2.7201  1.4197  0.0878
  184SOPE   H3S21051   2.265   6.829   6.732  0.2021  0.2580 -1.5547
  184SOPE   C2421052   2.418   6.724   6.851 -0.0835 -0.4683 -0.4145
  184SOPE   H4R21053   2.463   6.623   6.850 -0.2430 -0.5810  1.1648
  184SOPE   H4S21054   2.495   6.804   6.860 -0.8545  0.2103  0.3296
  184SOPE   C2521055   2.339   6.725   6.986  0.2205  0.0291 -0.0359
  184SOPE   H5R21056   2.303   6.830   6.996  0.8596  0.2313  0.2405
  184SOPE   H5S21057   2.253   6.656   6.972 -0.2349  0.5717  0.0516
  184SOPE   C2621058   2.423   6.682   7.107  0.2695 -0.7228  0.1933
  184SOPE   H6R21059   2.355   6.678   7.195 -1.9731  1.0751 -1.3427
  184SOPE   H6S21060   2.472   6.584   7.093 -2.1606 -1.9832 -0.0029
  184SOPE   C2721061   2.528   6.792   7.133 -0.7228  0.5529  0.0294
  184SOPE   H7R21062   2.616   6.792   7.065  0.7289  0.1157  1.8340
  184SOPE   H7S21063   2.479   6.887   7.103  0.3552  1.0278 -0.2864
  184SOPE   C2821064   2.574   6.809   7.282  0.0747 -0.2182 -0.4772
  184SOPE   H8R21065   2.608   6.913   7.301  1.9105 -0.9409  0.4524
  184SOPE   H8S21066   2.478   6.786   7.332  0.5375 -0.3987  0.3415
  184SOPE   C2921067   2.677   6.713   7.330  0.0677 -0.5375  0.4290
  184SOPE   H9121068   2.773   6.704   7.278  0.1321 -1.6824  0.7078
  184SOPE  C21021069   2.665   6.618   7.418  0.9354 -0.1340  0.9313
  184SOPE  H10121070   2.750   6.556   7.447  0.1603 -2.0592 -0.6948
  184SOPE  C21121071   2.543   6.594   7.503 -0.4834 -0.0037 -0.6605
  184SOPE  H11R21072   2.545   6.486   7.531 -1.6729  0.4047  1.2264
  184SOPE  H11S21073   2.446   6.614   7.453 -0.1021  0.5821 -1.1823
  184SOPE  C21221074   2.542   6.670   7.638 -0.0921  0.1703 -0.2205
  184SOPE  H12R21075   2.496   6.769   7.620  2.7065  1.6131  0.1440
  184SOPE  H12S21076   2.646   6.683   7.673 -0.1426 -2.5139  1.1742
  184SOPE  C21321077   2.455   6.597   7.735 -0.1522  0.5546  0.1013
  184SOPE  H13R21078   2.492   6.494   7.750 -1.5776 -0.0407 -0.2560
  184SOPE  H13S21079   2.356   6.593   7.683 -0.3662  0.9498  0.4707
  184SOPE  C21421080   2.450   6.666   7.869  0.0402  0.2930  0.0312
  184SOPE  H14R21081   2.435   6.775   7.856 -1.6599  0.0661 -0.1246
  184SOPE  H14S21082   2.547   6.659   7.922 -0.4798 -0.5134  0.9234
  184SOPE  C21521083   2.352   6.602   7.960  0.2272 -0.0246 -0.1569
  184SOPE  H15R21084   2.265   6.560   7.905 -0.0747 -2.0864  1.7320
  184SOPE  H15S21085   2.308   6.674   8.032 -2.6253 -1.9583  0.2340
  184SOPE  C21621086   2.406   6.482   8.045  0.1567 -0.5269  0.4577
  184SOPE  H16R21087   2.366   6.485   8.148  1.1093 -0.1532  0.8301
  184SOPE  H16S21088   2.517   6.489   8.048  0.1650 -1.1017  1.6577
  184SOPE  C21721089   2.365   6.346   7.983 -0.2399 -0.3103  0.6664
  184SOPE  H17R21090   2.396   6.342   7.877 -2.1891 -1.3515  0.0831
  184SOPE  H17S21091   2.255   6.360   7.995 -0.0828  0.7790  0.9388
  184SOPE  C21821092   2.411   6.218   8.053  0.1306 -0.4154  0.2979
  184SOPE  H18R21093   2.520   6.201   8.065 -0.2072 -3.8069 -0.4415
  184SOPE  H18S21094   2.358   6.136   8.000 -1.1043  0.0674  0.7305
  184SOPE  H18T21095   2.364   6.224   8.153  0.8021 -1.3488  0.6875
  184SOPE   C3321096   1.820   6.548   6.645 -0.3712 -0.0464 -0.3041
  184SOPE   H3X21097   1.855   6.444   6.634  0.6162  0.0114  1.7669
  184SOPE   H3Y21098   1.731   6.566   6.580 -1.1780 -0.9105  0.5354
  184SOPE   C3421099   1.785   6.553   6.797 -0.4130  0.1043  0.6221
  184SOPE   H4X21100   1.689   6.500   6.817 -0.0043  0.0423  2.6669
  184SOPE   H4Y21101   1.770   6.655   6.837  2.3060 -0.0641  2.2911
  184SOPE   C3521102   1.888   6.482   6.892  0.3516 -0.0404  0.0886
  184SOPE   H5X21103   1.978   6.540   6.866  0.1430  0.3301  0.1772
  184SOPE   H5Y21104   1.906   6.375   6.868 -2.1015 -0.1318 -1.8004
  184SOPE   C3621105   1.849   6.500   7.041 -0.5739 -0.1513 -0.8995
  184SOPE   H6X21106   1.763   6.433   7.065  0.9642 -3.3833 -3.5315
  184SOPE   H6Y21107   1.831   6.608   7.055 -0.3570 -0.2412  0.1451
  184SOPE   C3721108   1.978   6.482   7.132 -0.1819  0.1482 -0.2366
  184SOPE   H7X21109   2.046   6.566   7.109 -1.1074  1.8605  2.7794
  184SOPE   H7Y21110   2.021   6.380   7.127 -3.0810 -1.2310  0.5552
  184SOPE   C3821111   1.938   6.505   7.276  0.0572 -0.0114  0.1405
  184SOPE   H8X21112   1.856   6.432   7.292 -0.1012  0.3274  0.8979
  184SOPE   H8Y21113   1.898   6.607   7.294  2.0204  1.2763 -2.0927
  184SOPE   C3921114   2.044   6.464   7.376 -0.6639 -0.1766  0.0719
  184SOPE   H9X21115   2.121   6.544   7.371 -0.3743 -0.5273 -2.2416
  184SOPE   H9Y21116   2.108   6.376   7.357  0.7702  0.7351  0.5511
  184SOPE  C31021117   1.991   6.457   7.520 -0.5041  0.5390  0.3383
  184SOPE  H10X21118   1.905   6.388   7.516 -0.6102  0.6886 -0.0080
  184SOPE  H10Y21119   1.948   6.556   7.548  0.3125  0.9909  0.0198
  184SOPE  C31121120   2.093   6.421   7.633 -0.2405 -0.0633 -0.1558
  184SOPE  H11X21121   2.168   6.503   7.637  0.1839 -0.1802 -3.0969
  184SOPE  H11Y21122   2.135   6.320   7.614 -1.6166 -0.7006  0.0956
  184SOPE  C31221123   2.038   6.416   7.771  0.0645 -0.1184 -0.3297
  184SOPE  H12X21124   2.115   6.368   7.834 -1.1107 -0.8781  0.5772
  184SOPE  H12Y21125   1.951   6.349   7.787 -0.5723  0.1090 -2.5206
  184SOPE  C31321126   2.000   6.557   7.823  0.5165  0.1351 -0.4232
  184SOPE  H13X21127   1.912   6.592   7.766 -1.3072 -2.7511  0.3794
  184SOPE  H13Y21128   2.073   6.636   7.796  0.6272  0.1311 -0.1373
  184SOPE  C31421129   1.972   6.572   7.972  0.4067  0.5795 -0.5302
  184SOPE  H14X21130   1.976   6.677   8.008  1.2007  0.6526 -0.8141
  184SOPE  H14Y21131   2.058   6.522   8.023  0.1558  0.9952  0.3245
  184SOPE  C31521132   1.846   6.496   8.016 -0.1178 -0.7325 -0.2154
  184SOPE  H15X21133   1.835   6.396   7.969 -0.7828 -0.2985 -1.0149
  184SOPE  H15Y21134   1.764   6.556   7.970  0.0671  1.1431  1.7068
  184SOPE  C31621135   1.808   6.502   8.166  0.4804  0.4432 -0.4812
  184SOPE  H16X21136   1.807   6.611   8.190 -2.5496  0.5794 -0.8458
  184SOPE  H16Y21137   1.890   6.460   8.227 -0.0433  0.1626  0.0354
  184SOPE  C31721138   1.674   6.438   8.204 -0.1020 -0.0038 -0.6978
  184SOPE  H17X21139   1.663   6.345   8.144 -0.3928  1.4467 -3.0146
  184SOPE  H17Y21140   1.596   6.512   8.175  2.8841  2.7951 -2.1346
  184SOPE  C31821141   1.655   6.386   8.345 -0.3812  0.7343 -0.1737
  184SOPE  H18X21142   1.741   6.327   8.384 -1.1778  0.1162  0.6941
  184SOPE  H18Y21143   1.556   6.341   8.366  0.2249  0.0241  1.2803
  184SOPE  H18Z21144   1.659   6.468   8.419  0.5628 -0.8386  1.6015
  185SAPI   C1221145   5.157   2.559  10.466 -0.7795 -0.2635  0.8342
  185SAPI    H221146   5.135   2.468  10.408  1.3299 -1.2988  1.5474
  185SAPI    O221147   5.240   2.511  10.569 -0.8429  0.5981  0.5991
  185SAPI   HO221148   5.300   2.444  10.535 -0.2831  0.6441  1.4584
  185SAPI   C1321149   5.227   2.664  10.376 -0.1159 -0.3628  0.2908
  185SAPI    H321150   5.155   2.658  10.291 -0.1623  2.2956  0.0840
  185SAPI    O321151   5.353   2.610  10.323  0.7736 -0.5135  0.2563
  185SAPI   HO321152   5.371   2.667  10.248 -0.3222  0.2244  0.5189
  185SAPI   C1421153   5.241   2.803  10.446 -0.3305 -0.8643  0.2259
  185SAPI    H421154   5.335   2.797  10.506 -0.3346  1.4195  0.5298
  185SAPI    O421155   5.260   2.911  10.350 -0.1406  0.9197 -0.2953
  185SAPI   HO421156   5.188   2.902  10.288 -1.1133  0.2330  0.8855
  185SAPI   C1521157   5.129   2.843  10.544 -0.3130  0.0057  0.1537
  185SAPI    H521158   5.052   2.892  10.480 -1.8205 -0.9189  1.2019
  185SAPI    O521159   5.186   2.928  10.643 -0.0497  0.3843 -0.1305
  185SAPI   HO521160   5.154   3.017  10.628 -0.8822  0.5844  2.4459
  185SAPI   C1621161   5.054   2.723  10.617  0.5864 -0.1585 -0.1323
  185SAPI    H621162   5.114   2.683  10.702  0.6352  1.1231  0.4584
  185SAPI    O621163   4.939   2.767  10.686  0.4403  0.5456  0.9141
  185SAPI   HO621164   4.865   2.713  10.657 -0.9115  1.8122  1.8760
  185SAPI   C1121165   5.022   2.617  10.516 -0.6422 -0.4952  0.0828
  185SAPI    H121166   4.976   2.660  10.424  2.3034 -1.5920 -2.0631
  185SAPI     P21167   4.783   2.493  10.552  0.2052  0.1505  0.0243
  185SAPI   O1321168   4.732   2.623  10.595 -0.1756 -0.8363  0.1382
  185SAPI   O1421169   4.734   2.369  10.622  0.5193  0.0926 -0.2617
  185SAPI   O1221170   4.951   2.506  10.564  0.2691  0.1936  0.1770
  185SAPI   O1121171   4.764   2.476  10.395 -0.1120  0.5295  0.6639
  185SAPI    C121172   4.827   2.364  10.325 -0.3589 -0.4324  0.2440
  185SAPI    HA21173   4.917   2.322  10.375 -0.4747 -1.9335 -0.7652
  185SAPI    HB21174   4.750   2.284  10.320  0.9216 -1.6809  0.0026
  185SAPI    C221175   4.885   2.392  10.185  0.0501 -0.7819  0.7315
  185SAPI    HS21176   4.979   2.448  10.204  0.5460 -0.1350 -2.9041
  185SAPI   O2121177   4.802   2.456  10.090  0.9807 -0.3268  0.5324
  185SAPI   C2121178   4.823   2.586  10.076 -0.2707 -0.3363  0.3445
  185SAPI   O2221179   4.905   2.652  10.135  0.6359 -0.5293 -0.1058
  185SAPI   C2221180   4.721   2.643   9.977  0.3107 -0.0161  0.5732
  185SAPI   H2R21181   4.694   2.573   9.894 -1.1185  2.8691 -1.5732
  185SAPI   H2S21182   4.624   2.657  10.030  0.0728 -0.4131  0.2519
  185SAPI    C321183   4.943   2.264  10.114 -0.1884  0.1369  1.3285
  185SAPI    HX21184   4.851   2.203  10.099 -0.2690  0.6699 -0.5605
  185SAPI    HY21185   5.008   2.210  10.186 -0.2183 -0.9593  0.5587
  185SAPI   O3121186   5.002   2.277   9.981  0.2053 -0.3616  0.0642
  185SAPI   C3121187   5.133   2.304   9.985 -0.2971 -0.5221 -0.3300
  185SAPI   O3221188   5.206   2.303  10.081  0.0937 -0.1020  0.1644
  185SAPI   C3221189   5.176   2.334   9.843  0.8394 -0.6323  0.0620
  185SAPI   H2X21190   5.087   2.308   9.782  1.7683 -2.3427 -0.6195
  185SAPI   H2Y21191   5.254   2.262   9.811  0.0283 -2.3786  1.8024
  185SAPI   C2321192   4.759   2.780   9.903  0.5012 -0.1162  0.1934
  185SAPI   H3R21193   4.771   2.858   9.981  1.4815  0.5358 -0.5775
  185SAPI   H3S21194   4.672   2.806   9.838  0.9506 -1.4236 -0.9976
  185SAPI   C2421195   4.869   2.771   9.799  0.0819  0.0373  0.2650
  185SAPI   H4R21196   4.839   2.701   9.718 -0.8173  2.4259 -1.5898
  185SAPI   H4S21197   4.959   2.735   9.852  0.7539 -0.6860 -1.2796
  185SAPI   C2521198   4.891   2.910   9.739  0.0305  0.0034 -0.4573
  185SAPI   H5R21199   4.894   2.985   9.820 -0.7407  0.0918 -0.5063
  185SAPI   C2621200   4.889   2.937   9.605 -0.0222  0.1310 -0.0434
  185SAPI   H6R21201   4.897   3.041   9.569  0.3112 -0.0287 -0.4422
  185SAPI   C2721202   4.898   2.827   9.501 -0.9053 -0.2360  0.3201
  185SAPI   H7R21203   4.911   2.723   9.539 -0.5991  0.0384  0.9808
  185SAPI   H7S21204   4.995   2.836   9.448 -1.6485  3.9808 -0.6830
  185SAPI   C2821205   4.778   2.833   9.404 -0.3581  0.5551 -0.5189
  185SAPI   H8R21206   4.676   2.812   9.440 -1.1818  1.3320 -2.2975
  185SAPI   C2921207   4.794   2.854   9.273  0.4556  0.1103  0.4531
  185SAPI   H9R21208   4.703   2.852   9.212  0.2613  0.7257  0.7185
  185SAPI  C21021209   4.919   2.876   9.190 -0.1887 -0.2226 -0.7026
  185SAPI  H10R21210   4.929   2.800   9.109 -0.5789 -2.7863  1.4827
  185SAPI  H10S21211   5.008   2.856   9.254 -1.2667  2.2037  1.7354
  185SAPI  C21121212   4.942   3.020   9.155  0.1551 -0.0895 -0.3195
  185SAPI  H11R21213   4.943   3.084   9.244  0.0770 -0.8713  0.2534
  185SAPI  C21221214   4.949   3.076   9.031  0.1452  0.8623  0.8391
  185SAPI  H12R21215   4.973   3.182   9.016 -0.0186  0.5769 -2.2473
  185SAPI  C21321216   4.926   2.991   8.904  0.5590  0.2736  0.4187
  185SAPI  H13R21217   4.884   2.894   8.938 -1.3000  0.4094 -1.2763
  185SAPI  H13S21218   5.028   2.966   8.869  0.4164 -1.2700  1.0451
  185SAPI  C21421219   4.836   3.054   8.799 -0.2217  0.4172 -0.6456
  185SAPI  H14R21220   4.733   3.073   8.831 -0.2974  0.3865 -0.8706
  185SAPI  C21521221   4.877   3.090   8.674  0.2727 -0.7075 -0.6582
  185SAPI  H15R21222   4.810   3.153   8.614 -1.7596 -0.8495  1.3335
  185SAPI  C21621223   5.008   3.077   8.606 -0.5042 -0.3334 -0.3276
  185SAPI  H16R21224   5.083   3.025   8.670  1.0928 -0.1727 -1.9701
  185SAPI  H16S21225   5.052   3.171   8.565 -0.2867  0.2479  1.1664
  185SAPI  C21721226   4.992   2.982   8.487  0.2408 -0.3599  0.3375
  185SAPI  H17R21227   4.946   2.889   8.527  0.0617 -0.2639  0.3554
  185SAPI  H17S21228   5.096   2.954   8.459  0.2635 -0.8769  0.9232
  185SAPI  C21821229   4.901   3.042   8.371 -0.4987 -0.2651 -0.9317
  185SAPI  H18R21230   4.910   3.152   8.380 -3.7881  0.0122  0.6177
  185SAPI  H18S21231   4.794   3.036   8.401 -0.3669  2.6328  0.4620
  185SAPI  C21921232   4.932   2.987   8.233  0.4446  0.6756  0.9571
  185SAPI  H19R21233   4.891   2.884   8.234 -0.7275  1.1153  2.7239
  185SAPI  H19S21234   5.042   2.983   8.216  0.5118 -1.8917  1.4868
  185SAPI  C22021235   4.866   3.059   8.114  1.0883 -0.3355 -0.4109
  185SAPI  H20R21236   4.755   3.073   8.118  1.2344  1.6120 -1.7608
  185SAPI  H20S21237   4.891   3.001   8.023 -1.5244 -0.4284 -1.1783
  185SAPI  H20T21238   4.905   3.162   8.101 -1.7439  0.6618 -2.2200
  185SAPI   C3321239   5.221   2.480   9.825 -0.4478 -0.6455  0.0249
  185SAPI   H3X21240   5.305   2.507   9.893  1.6024  0.4616 -2.7629
  185SAPI   H3Y21241   5.136   2.546   9.850  1.5962  1.4851  1.8696
  185SAPI   C3421242   5.258   2.521   9.686 -0.0382 -0.0404  0.1063
  185SAPI   H4X21243   5.275   2.630   9.672 -2.2960  0.4277  0.6243
  185SAPI   H4Y21244   5.162   2.495   9.638  0.5907 -1.2030 -0.5696
  185SAPI   C3521245   5.378   2.444   9.627 -0.0777  0.0953  1.1322
  185SAPI   H5X21246   5.355   2.335   9.625 -0.0015  0.0930 -0.6543
  185SAPI   H5Y21247   5.465   2.449   9.696 -0.9202  0.7996  2.1900
  185SAPI   C3621248   5.417   2.489   9.491  0.0638 -0.2351  0.0056
  185SAPI   H6X21249   5.485   2.418   9.438 -0.2542 -0.5882  0.0649
  185SAPI   H6Y21250   5.464   2.589   9.498 -0.2006 -0.0278 -1.0131
  185SAPI   C3721251   5.304   2.495   9.386 -0.2404 -0.4889 -0.0809
  185SAPI   H7X21252   5.237   2.579   9.414 -1.3486 -1.5067  0.4084
  185SAPI   H7Y21253   5.246   2.401   9.370 -1.4656  0.7538 -4.4425
  185SAPI   C3821254   5.357   2.526   9.243  0.4124 -0.8885 -0.6207
  185SAPI   H8X21255   5.396   2.429   9.205  1.3442 -0.2298 -1.3828
  185SAPI   H8Y21256   5.426   2.613   9.247 -1.5681  0.8220 -1.5241
  185SAPI   C3921257   5.235   2.566   9.159  0.4309  0.0198 -0.4781
  185SAPI   H9X21258   5.212   2.672   9.184  2.2920  0.5280 -0.7466
  185SAPI   H9Y21259   5.148   2.504   9.187 -0.4022  0.6620 -1.5431
  185SAPI  C31021260   5.256   2.543   9.013 -0.8841 -0.6485  0.0947
  185SAPI  H10X21261   5.271   2.434   9.002 -1.2930 -0.9435  2.2068
  185SAPI  H10Y21262   5.348   2.605   8.998  0.5810 -2.8265 -0.3893
  185SAPI  C31121263   5.138   2.574   8.924 -0.1202 -0.5882 -0.2489
  185SAPI  H11X21264   5.095   2.674   8.941  1.4950  0.3325 -1.3063
  185SAPI  H11Y21265   5.052   2.504   8.926  0.3603 -1.2073 -0.6534
  185SAPI  C31221266   5.188   2.570   8.776  0.8735 -0.0900  0.0686
  185SAPI  H12X21267   5.232   2.470   8.757  0.2013 -0.7227  1.6456
  185SAPI  H12Y21268   5.277   2.636   8.763  1.7869 -1.6674 -2.2350
  185SAPI  C31321269   5.078   2.621   8.684 -0.2781 -0.2568  1.1804
  185SAPI  H13X21270   5.041   2.725   8.697 -0.7385 -0.2401 -0.0644
  185SAPI  H13Y21271   4.986   2.560   8.700  1.2529 -2.7175  1.0747
  185SAPI  C31421272   5.129   2.605   8.541 -0.7369  0.0955 -0.8179
  185SAPI  H14X21273   5.214   2.533   8.541 -0.4471  0.4376 -0.8858
  185SAPI  H14Y21274   5.173   2.705   8.524  0.0146 -0.2343 -0.8647
  185SAPI  C31521275   5.013   2.560   8.453 -0.2989 -0.1511  0.1287
  185SAPI  H15X21276   4.919   2.618   8.467 -1.6382 -2.3177  0.6720
  185SAPI  H15Y21277   4.985   2.455   8.475 -3.6680  0.3637 -1.1189
  185SAPI  C31621278   5.062   2.559   8.308 -0.7412 -0.1362  0.1485
  185SAPI  H16X21279   5.132   2.474   8.291 -0.0604  0.8527 -2.6439
  185SAPI  H16Y21280   5.137   2.642   8.306  0.0534 -0.8388  0.2145
  185SAPI  C31721281   4.965   2.565   8.188  0.4657 -0.5271 -0.2830
  185SAPI  H17X21282   5.013   2.592   8.092 -1.4266  1.7636 -0.6673
  185SAPI  H17Y21283   4.898   2.651   8.206  0.0820 -0.6573 -1.0479
  185SAPI  C31821284   4.878   2.442   8.169 -0.0115  0.4445  0.9238
  185SAPI  H18X21285   4.943   2.353   8.164 -0.5006  0.1226 -0.1155
  185SAPI  H18Y21286   4.829   2.450   8.069  1.9870  0.7321 -0.0735
  185SAPI  H18Z21287   4.797   2.433   8.245 -0.8777 -0.2254 -0.0535
  186SAPI   C1221288   5.427   1.865  10.670 -0.3015 -0.4791  0.0640
  186SAPI    H221289   5.373   1.816  10.586 -2.4337 -0.3246  1.2753
  186SAPI    O221290   5.330   1.848  10.773 -0.2259  0.3838 -0.0656
  186SAPI   HO221291   5.278   1.926  10.795 -0.1104  0.4468 -0.0132
  186SAPI   C1321292   5.566   1.805  10.705  0.6194 -0.4058  0.5679
  186SAPI    H321293   5.632   1.833  10.620 -1.0842 -0.1645 -0.7328
  186SAPI    O321294   5.560   1.658  10.706 -0.4455 -0.2948 -0.5816
  186SAPI   HO321295   5.494   1.623  10.766  0.8746  0.0156  1.1611
  186SAPI   C1421296   5.626   1.865  10.835 -0.0227 -0.0627  0.1590
  186SAPI    H421297   5.552   1.835  10.912 -0.4788  2.4024  0.7522
  186SAPI    O421298   5.759   1.813  10.858 -0.7946  0.1577 -0.3112
  186SAPI   HO421299   5.813   1.853  10.788  0.0940 -0.4688 -0.0028
  186SAPI   C1521300   5.623   2.019  10.845 -0.7033  0.2173  0.4049
  186SAPI    H521301   5.720   2.049  10.802  0.5850 -2.7536  0.9670
  186SAPI    O521302   5.636   2.068  10.978 -0.5085  0.4512 -0.3450
  186SAPI   HO521303   5.569   2.028  11.033 -2.0992  0.2771 -2.2667
  186SAPI   C1621304   5.515   2.095  10.766 -0.2569  0.9072 -0.2483
  186SAPI    H621305   5.432   2.115  10.836  0.6220 -0.3851  1.2133
  186SAPI    O621306   5.557   2.225  10.724 -0.3634 -0.1749  1.0754
  186SAPI   HO621307   5.477   2.260  10.683 -0.9763 -0.9944  1.5561
  186SAPI   C1121308   5.446   2.018  10.645  0.2312  0.5133  0.1310
  186SAPI    H121309   5.522   2.019  10.564  0.8269 -0.9490  0.6403
  186SAPI     P21310   5.309   2.176  10.465 -0.2390  0.1734  0.3395
  186SAPI   O1321311   5.381   2.308  10.490 -0.1951  0.4300  0.2920
  186SAPI   O1421312   5.165   2.190  10.439 -0.2838  0.1294 -0.1617
  186SAPI   O1221313   5.323   2.080  10.604 -0.1466  0.2931  0.5186
  186SAPI   O1121314   5.379   2.073  10.364  0.4134  0.1545 -0.0287
  186SAPI    C121315   5.323   1.951  10.316 -0.2448  0.1756  0.2403
  186SAPI    HA21316   5.339   1.865  10.385 -2.0708 -2.2719 -2.1485
  186SAPI    HB21317   5.214   1.949  10.294  0.0416 -0.9566 -1.3223
  186SAPI    C221318   5.389   1.910  10.187  0.4005 -0.0752  0.9588
  186SAPI    HS21319   5.342   1.820  10.141 -0.7585  0.4759  1.0214
  186SAPI   O2121320   5.525   1.889  10.200 -0.1010 -0.1596 -0.4163
  186SAPI   C2121321   5.565   1.773  10.259  0.1514 -0.0725  0.2038
  186SAPI   O2221322   5.495   1.679  10.287  0.4083 -1.2210 -0.5538
  186SAPI   C2221323   5.708   1.769  10.292 -0.3267 -0.0522  0.2592
  186SAPI   H2R21324   5.748   1.866  10.327 -2.2981  0.3714  1.5146
  186SAPI   H2S21325   5.714   1.699  10.379  0.3056 -1.2772 -0.7332
  186SAPI    C321326   5.379   2.020  10.080  1.2739 -0.8018  0.1611
  186SAPI    HX21327   5.444   2.102  10.119 -1.1333  1.0820  0.4770
  186SAPI    HY21328   5.275   2.060  10.080  1.7901  0.5937  0.1297
  186SAPI   O3121329   5.394   1.968   9.950  0.0102  0.7234  0.0988
  186SAPI   C3121330   5.494   2.018   9.876 -0.1635 -0.5703  0.7778
  186SAPI   O3221331   5.570   2.105   9.916  0.0405  0.0632  0.4999
  186SAPI   C3221332   5.516   1.946   9.739 -0.1364  0.2716  0.3294
  186SAPI   H2X21333   5.428   1.881   9.720 -2.0642  2.7515  0.2251
  186SAPI   H2Y21334   5.608   1.886   9.758  1.0718  2.1247  0.6807
  186SAPI   C2321335   5.801   1.718  10.183 -0.2554  0.5718 -0.0914
  186SAPI   H3R21336   5.744   1.664  10.104 -1.9320 -0.5880  1.8042
  186SAPI   H3S21337   5.855   1.636  10.234 -0.6903 -0.7984 -1.7414
  186SAPI   C2421338   5.900   1.815  10.124 -0.8824 -0.6430  0.9612
  186SAPI   H4R21339   5.952   1.871  10.205  0.7471  0.4166 -0.7243
  186SAPI   H4S21340   5.842   1.903  10.089 -0.0580 -0.4189  0.1063
  186SAPI   C2521341   6.011   1.745  10.046  0.3380  0.8192 -0.0410
  186SAPI   H5R21342   6.082   1.688  10.107  0.6206 -0.0210 -1.1262
  186SAPI   C2621343   6.025   1.759   9.915 -0.0387  0.3891  0.1216
  186SAPI   H6R21344   6.099   1.705   9.855 -1.0970 -0.1052 -0.7795
  186SAPI   C2721345   5.935   1.836   9.819  0.2105 -0.2444  0.2310
  186SAPI   H7R21346   5.991   1.916   9.767 -1.2825 -0.1238 -1.2546
  186SAPI   H7S21347   5.852   1.888   9.871  0.9327  0.4585  0.7051
  186SAPI   C2821348   5.856   1.751   9.727  0.2091  0.6952  0.2869
  186SAPI   H8R21349   5.789   1.683   9.782  0.0651  0.6672  0.0805
  186SAPI   C2921350   5.854   1.750   9.593  0.2741 -0.1570  0.4603
  186SAPI   H9R21351   5.792   1.672   9.545  1.4082 -0.5702 -0.3677
  186SAPI  C21021352   5.918   1.840   9.489 -0.8038  0.1897 -0.8110
  186SAPI  H10R21353   5.987   1.910   9.540 -1.4526  0.4402 -0.2653
  186SAPI  H10S21354   5.835   1.903   9.448 -0.4001  1.8082  0.7467
  186SAPI  C21121355   6.002   1.777   9.384 -0.2214  0.1682  0.4032
  186SAPI  H11R21356   6.057   1.690   9.423 -1.2426 -1.8479 -2.3717
  186SAPI  C21221357   6.004   1.806   9.255  0.7254  0.2043  0.7005
  186SAPI  H12R21358   6.078   1.760   9.188 -0.4429  0.0932 -0.5512
  186SAPI  C21321359   5.928   1.917   9.179 -0.5230 -0.2567  0.0817
  186SAPI  H13R21360   5.997   1.994   9.138  0.0398 -0.5831  0.3949
  186SAPI  H13S21361   5.866   1.970   9.255 -1.5253 -1.0952 -0.1340
  186SAPI  C21421362   5.843   1.852   9.069  0.3155 -0.0499 -0.8464
  186SAPI  H14R21363   5.764   1.787   9.108  2.8419 -3.0945 -0.4283
  186SAPI  C21521364   5.850   1.851   8.937  0.6024  0.1418  0.4338
  186SAPI  H15R21365   5.777   1.791   8.880  1.4593 -1.3421  0.8574
  186SAPI  C21621366   5.965   1.909   8.860  0.2273 -0.3294 -0.0322
  186SAPI  H16R21367   6.036   1.962   8.927 -0.0484 -1.0999  0.8917
  186SAPI  H16S21368   5.928   1.980   8.784 -0.3303 -1.7872 -1.1687
  186SAPI  C21721369   6.050   1.806   8.777 -0.2478 -0.7510 -0.0550
  186SAPI  H17R21370   5.978   1.755   8.710 -1.1345 -0.1444  0.4125
  186SAPI  H17S21371   6.092   1.724   8.839  0.3937 -1.4559 -1.3746
  186SAPI  C21821372   6.172   1.877   8.704  0.5333 -0.3245 -0.8210
  186SAPI  H18R21373   6.236   1.800   8.655 -0.7035 -0.4749 -2.2394
  186SAPI  H18S21374   6.233   1.926   8.783 -1.5288 -0.2108  0.7821
  186SAPI  C21921375   6.125   1.972   8.599  0.2427 -0.6355  0.3875
  186SAPI  H19R21376   6.082   2.063   8.646  1.0326  0.2238 -0.5205
  186SAPI  H19S21377   6.050   1.923   8.533 -0.8921 -0.9976  1.8718
  186SAPI  C22021378   6.225   2.045   8.509 -0.2819  0.2065  0.2289
  186SAPI  H20R21379   6.177   2.119   8.442  0.9525 -0.7325 -1.7865
  186SAPI  H20S21380   6.276   1.973   8.441 -1.5178 -1.2185  0.7700
  186SAPI  H20T21381   6.298   2.082   8.585 -3.3609  3.2048  2.0151
  186SAPI   C3321382   5.543   2.050   9.625  0.1840  0.0388 -0.2429
  186SAPI   H3X21383   5.643   2.097   9.637  1.8525 -2.9884 -1.1121
  186SAPI   H3Y21384   5.471   2.134   9.636  0.4834  0.3990 -1.0310
  186SAPI   C3421385   5.537   1.983   9.488  0.6415  0.7598 -0.0811
  186SAPI   H4X21386   5.430   1.959   9.468  0.2395  1.5936  0.9555
  186SAPI   H4Y21387   5.595   1.888   9.485 -1.2254 -0.4701 -4.3772
  186SAPI   C3521388   5.592   2.067   9.366 -0.0170 -0.6060 -0.5145
  186SAPI   H5X21389   5.702   2.081   9.371 -0.0708 -0.4293  0.3041
  186SAPI   H5Y21390   5.559   2.173   9.375 -3.2038 -1.3614 -1.7107
  186SAPI   C3621391   5.547   2.038   9.222 -0.0570  0.6048  0.7066
  186SAPI   H6X21392   5.436   2.042   9.211  0.0875 -1.3465 -3.6927
  186SAPI   H6Y21393   5.568   1.932   9.196  1.3896  1.3287 -1.3098
  186SAPI   C3721394   5.626   2.125   9.120  0.4262  0.8313  0.1313
  186SAPI   H7X21395   5.735   2.110   9.133  0.0180 -1.1955  1.7175
  186SAPI   H7Y21396   5.620   2.230   9.156  1.0229  1.0180 -0.3116
  186SAPI   C3821397   5.574   2.093   8.984  0.5203 -0.8692  0.2169
  186SAPI   H8X21398   5.468   2.126   8.989  0.9402  0.3898  1.5624
  186SAPI   H8Y21399   5.590   1.984   8.969  0.5424 -0.6082 -2.1463
  186SAPI   C3921400   5.648   2.170   8.872 -0.4367  0.0743  0.0647
  186SAPI   H9X21401   5.637   2.098   8.788 -2.3867  1.3728 -0.8693
  186SAPI   H9Y21402   5.756   2.186   8.895 -0.5450 -0.1765  0.7852
  186SAPI  C31021403   5.578   2.304   8.832 -0.1073 -0.7370 -0.1931
  186SAPI  H10X21404   5.578   2.363   8.926  1.9941 -1.5758  0.3977
  186SAPI  H10Y21405   5.474   2.274   8.810 -1.0321  2.4025 -0.5327
  186SAPI  C31121406   5.641   2.375   8.712 -0.3230 -0.4061 -0.2953
  186SAPI  H11X21407   5.651   2.298   8.632 -0.1779 -0.9550  0.2405
  186SAPI  H11Y21408   5.739   2.417   8.744  0.1619 -1.8619  0.2253
  186SAPI  C31221409   5.545   2.488   8.657 -0.1194 -0.2240 -0.0567
  186SAPI  H12X21410   5.534   2.550   8.748 -0.6760 -0.9867  0.4060
  186SAPI  H12Y21411   5.455   2.432   8.627  0.6076 -1.0629 -0.7363
  186SAPI  C31321412   5.616   2.565   8.538  0.7602 -0.5074 -0.3651
  186SAPI  H13X21413   5.715   2.593   8.582  0.9233  0.2031 -1.1698
  186SAPI  H13Y21414   5.559   2.655   8.507 -0.1927 -0.4085  1.5341
  186SAPI  C31421415   5.636   2.492   8.409  0.6054  0.4580  0.1520
  186SAPI  H14X21416   5.538   2.472   8.361  0.5319  0.9622  0.0931
  186SAPI  H14Y21417   5.694   2.398   8.423 -1.2329 -0.5616  1.2648
  186SAPI  C31521418   5.707   2.580   8.315 -0.0334 -0.6653  0.5964
  186SAPI  H15X21419   5.788   2.632   8.371 -0.8571  1.6609 -0.2265
  186SAPI  H15Y21420   5.633   2.659   8.289 -0.4916 -1.5243 -0.8467
  186SAPI  C31621421   5.764   2.512   8.188  0.3130 -0.0160 -0.7739
  186SAPI  H16X21422   5.814   2.417   8.217 -0.0369  0.1273  0.3254
  186SAPI  H16Y21423   5.839   2.583   8.147 -1.9216  1.4861 -2.5165
  186SAPI  C31721424   5.664   2.489   8.075 -0.2904 -0.2646 -0.6005
  186SAPI  H17X21425   5.570   2.443   8.111 -0.9790  0.6250 -1.2011
  186SAPI  H17Y21426   5.706   2.420   7.999  2.4471  3.3112 -2.6967
  186SAPI  C31821427   5.614   2.619   8.007  0.1485 -0.9918  0.2535
  186SAPI  H18X21428   5.591   2.589   7.902  2.1546 -2.1822  0.1005
  186SAPI  H18Y21429   5.698   2.690   7.992  0.0519 -0.6775  1.1630
  186SAPI  H18Z21430   5.528   2.655   8.067 -3.4842 -4.8383 -2.0832
  187SAPI   C1221431   6.370   0.182   6.361 -0.2058 -0.0735 -0.3835
  187SAPI    H221432   6.305   0.217   6.444 -0.0074 -0.0538 -0.2344
  187SAPI    O221433   6.509   0.194   6.401 -0.4567 -0.3845 -0.1845
  187SAPI   HO221434   6.533   0.287   6.401  1.5392 -0.8094 -1.9999
  187SAPI   C1321435   6.339   0.044   6.325  1.0329  0.1646  0.4157
  187SAPI    H321436   6.245   0.040   6.265  0.7644  0.2220  0.8312
  187SAPI    O321437   6.315  -0.035   6.437 -0.0724 -0.3901 -0.8660
  187SAPI   HO321438   6.231  -0.079   6.422 -1.9258  2.1102  1.3104
  187SAPI   C1421439   6.444  -0.021   6.237  0.2958 -0.0882  0.3631
  187SAPI    H421440   6.539  -0.029   6.294  2.2631 -1.7309 -2.8196
  187SAPI    O421441   6.415  -0.155   6.197 -0.4280  0.2879 -0.5690
  187SAPI   HO421442   6.420  -0.203   6.280  0.2178  1.3603  0.0247
  187SAPI   C1521443   6.469   0.051   6.108 -0.1682 -0.0490 -0.4678
  187SAPI    H521444   6.396   0.017   6.032 -1.3518 -0.8684  0.9928
  187SAPI    O521445   6.603   0.015   6.067  0.1674 -0.0829  0.0774
  187SAPI   HO521446   6.598  -0.074   6.030 -0.1366 -0.7616  1.6624
  187SAPI   C1621447   6.452   0.206   6.118 -0.3035  0.7916 -0.1858
  187SAPI    H621448   6.552   0.244   6.146  1.4698 -0.7630 -3.7129
  187SAPI    O621449   6.413   0.265   5.995 -0.1328 -0.0678  0.6185
  187SAPI   HO621450   6.337   0.214   5.967 -1.6543  1.3133  1.9921
  187SAPI   C1121451   6.352   0.261   6.232 -0.4434  0.7013 -0.5350
  187SAPI    H121452   6.249   0.253   6.191 -0.2747  0.9356 -1.0233
  187SAPI     P21453   6.254   0.503   6.296 -0.3185 -0.5138  0.2557
  187SAPI   O1321454   6.135   0.423   6.345 -0.7463  0.7191  0.9935
  187SAPI   O1421455   6.232   0.577   6.165  0.0506  0.1115  0.5792
  187SAPI   O1221456   6.375   0.400   6.257 -0.7927 -0.2287 -0.3026
  187SAPI   O1121457   6.309   0.610   6.401  0.2217  0.4062  0.4217
  187SAPI    C121458   6.261   0.619   6.537 -0.2013 -0.2799 -0.9924
  187SAPI    HA21459   6.215   0.720   6.546  3.6213  1.4284  1.9554
  187SAPI    HB21460   6.185   0.545   6.570  1.8545 -2.3514 -0.6219
  187SAPI    C221461   6.383   0.593   6.640  0.3985 -0.1048  0.0877
  187SAPI    HS21462   6.356   0.653   6.730  0.3803  1.4471 -0.9278
  187SAPI   O2121463   6.506   0.651   6.591  0.0116  0.0034 -0.5497
  187SAPI   C2121464   6.514   0.788   6.579 -1.1524 -0.1860 -0.2432
  187SAPI   O2221465   6.422   0.864   6.597 -0.0581 -0.6304 -0.0896
  187SAPI   C2221466   6.668   0.818   6.570  0.0047 -0.5785  0.4563
  187SAPI   H2R21467   6.731   0.742   6.520  2.4434  1.3109  0.4674
  187SAPI   H2S21468   6.685   0.912   6.513 -0.6146 -0.8445 -0.1779
  187SAPI    C321469   6.396   0.446   6.677  0.0799 -0.7114 -0.4983
  187SAPI    HX21470   6.452   0.392   6.597  2.1345 -0.3031  0.5965
  187SAPI    HY21471   6.294   0.404   6.678 -0.4807  0.5921 -1.0230
  187SAPI   O3121472   6.448   0.417   6.810 -0.3348  0.6514 -0.4047
  187SAPI   C3121473   6.572   0.374   6.807  0.3159  0.0997 -0.5943
  187SAPI   O3221474   6.646   0.366   6.709 -0.2059 -0.0949 -0.2278
  187SAPI   C3221475   6.613   0.331   6.944 -0.5163 -0.2610 -0.0039
  187SAPI   H2X21476   6.541   0.255   6.980  1.2456 -2.1128 -0.2335
  187SAPI   H2Y21477   6.622   0.416   7.016  1.1504 -0.7517  0.4118
  187SAPI   C2321478   6.726   0.862   6.709  0.3819 -0.0105 -0.3550
  187SAPI   H3R21479   6.657   0.933   6.759  1.5025  1.5149 -0.9012
  187SAPI   H3S21480   6.822   0.916   6.691  0.4392  0.7344  1.9619
  187SAPI   C2421481   6.750   0.748   6.814 -0.8109 -0.9868 -0.4660
  187SAPI   H4R21482   6.657   0.687   6.825 -1.9930  0.6563 -1.0030
  187SAPI   H4S21483   6.761   0.796   6.913  1.0398 -1.5832 -0.3468
  187SAPI   C2521484   6.861   0.656   6.780 -0.2722  0.4876  0.2220
  187SAPI   H5R21485   6.847   0.564   6.720  3.0284 -0.6957  1.0440
  187SAPI   C2621486   6.988   0.684   6.807 -0.4897  0.1043 -0.4773
  187SAPI   H6R21487   7.061   0.608   6.775 -1.7289 -0.9737 -0.8538
  187SAPI   C2721488   7.043   0.795   6.881 -0.1226 -0.1886 -0.3447
  187SAPI   H7R21489   7.005   0.888   6.834  1.2463  0.1411 -0.8453
  187SAPI   H7S21490   7.152   0.801   6.859  0.1072  0.0059  0.7798
  187SAPI   C2821491   7.017   0.787   7.032 -0.3799 -0.2016 -0.1144
  187SAPI   H8R21492   6.987   0.690   7.074  0.6799  0.3460  2.0333
  187SAPI   C2921493   7.029   0.895   7.117 -0.7796 -0.6613  0.1468
  187SAPI   H9R21494   7.019   0.883   7.225 -0.6590  1.4413  0.4321
  187SAPI  C21021495   7.053   1.041   7.083 -0.0833 -0.4002  0.1745
  187SAPI  H10R21496   6.964   1.091   7.126 -0.7488 -0.6272 -0.9038
  187SAPI  H10S21497   7.051   1.054   6.972  3.6976 -0.6382 -0.0779
  187SAPI  C21121498   7.187   1.106   7.120 -0.3438 -0.2770  0.2331
  187SAPI  H11R21499   7.264   1.079   7.047 -0.3389 -1.3081  0.5984
  187SAPI  C21221500   7.236   1.159   7.242  0.6986  0.2258  0.4801
  187SAPI  H12R21501   7.342   1.186   7.251  1.6545 -3.0365  0.1445
  187SAPI  C21321502   7.150   1.172   7.365 -0.2949  0.1191 -0.1594
  187SAPI  H13R21503   7.053   1.118   7.366  0.4071 -1.1796 -0.1817
  187SAPI  H13S21504   7.127   1.280   7.382 -1.1669 -0.0545 -0.1925
  187SAPI  C21421505   7.223   1.128   7.492 -0.0854 -0.0659  0.5689
  187SAPI  H14R21506   7.325   1.095   7.466 -0.9374 -1.8311 -0.7837
  187SAPI  C21521507   7.194   1.148   7.625 -0.6835 -0.0585  0.1693
  187SAPI  H15R21508   7.274   1.118   7.695  1.2198  1.1731 -1.3996
  187SAPI  C21621509   7.068   1.216   7.669 -0.4894  0.5464  0.2082
  187SAPI  H16R21510   7.036   1.147   7.751 -1.0198 -0.8932 -1.1678
  187SAPI  H16S21511   6.989   1.210   7.591  0.5168 -0.7039 -0.7574
  187SAPI  C21721512   7.095   1.362   7.707 -0.6677  0.0494 -0.1836
  187SAPI  H17R21513   7.163   1.407   7.631  3.3894 -1.9457  1.9398
  187SAPI  H17S21514   7.156   1.380   7.797 -0.2946  0.1503 -0.4550
  187SAPI  C21821515   6.962   1.436   7.717  0.4840  0.4477  0.0153
  187SAPI  H18R21516   6.902   1.388   7.797 -0.7990 -0.6522 -1.5492
  187SAPI  H18S21517   6.913   1.446   7.618 -0.6474 -1.5061  0.3135
  187SAPI  C21921518   6.982   1.583   7.765  0.2182 -0.0964 -0.4336
  187SAPI  H19R21519   6.882   1.631   7.775 -0.7668 -1.9891 -0.7020
  187SAPI  H19S21520   7.035   1.625   7.676  1.6880 -1.8302 -0.4292
  187SAPI  C22021521   7.057   1.629   7.895  0.9441  0.6590  0.2474
  187SAPI  H20R21522   6.979   1.615   7.973 -0.9607  2.0019 -1.3271
  187SAPI  H20S21523   7.069   1.739   7.901 -1.6520  0.9315  2.4213
  187SAPI  H20T21524   7.154   1.577   7.911  0.3666 -0.1239  1.3792
  187SAPI   C3321525   6.755   0.259   6.936  0.2288  0.3761 -0.2562
  187SAPI   H3X21526   6.829   0.295   6.862  1.0300  0.9699  0.8002
  187SAPI   H3Y21527   6.737   0.150   6.926  0.0060  0.2474  1.2948
  187SAPI   C3421528   6.832   0.261   7.066 -0.7952 -0.4745 -0.6901
  187SAPI   H4X21529   6.850   0.366   7.096  0.1620 -1.1890  1.5087
  187SAPI   H4Y21530   6.935   0.220   7.053  0.3821  1.2062  2.2027
  187SAPI   C3521531   6.761   0.201   7.190 -0.7614 -0.2003  0.6665
  187SAPI   H5X21532   6.745   0.091   7.181 -0.8639 -0.4339  3.0697
  187SAPI   H5Y21533   6.660   0.243   7.204 -0.4055  0.5659  0.9783
  187SAPI   C3621534   6.848   0.206   7.316  0.0955 -0.1618 -0.1285
  187SAPI   H6X21535   6.906   0.299   7.302  0.5207 -0.4310 -0.1765
  187SAPI   H6Y21536   6.917   0.118   7.316  0.4233  0.0416 -2.5164
  187SAPI   C3721537   6.767   0.233   7.442 -0.3279  0.3490 -0.3907
  187SAPI   H7X21538   6.741   0.139   7.495  1.3515 -1.0201 -1.8561
  187SAPI   H7Y21539   6.673   0.286   7.416 -0.0825  0.5275 -0.9386
  187SAPI   C3821540   6.840   0.312   7.552  0.4754  0.0111  0.6480
  187SAPI   H8X21541   6.851   0.415   7.513 -0.7096 -1.1482 -3.2281
  187SAPI   H8Y21542   6.945   0.279   7.570  0.3066 -0.5898  0.5457
  187SAPI   C3921543   6.760   0.309   7.683 -0.4051  0.8654 -0.1478
  187SAPI   H9X21544   6.764   0.206   7.726 -1.1458  1.7633  2.2391
  187SAPI   H9Y21545   6.659   0.349   7.664 -1.1395  1.4792  3.9714
  187SAPI  C31021546   6.826   0.402   7.792 -0.3496 -0.2481 -0.3405
  187SAPI  H10X21547   6.818   0.508   7.760 -0.3065 -0.1838 -0.1386
  187SAPI  H10Y21548   6.937   0.403   7.789 -0.2387  4.2254 -0.3742
  187SAPI  C31121549   6.767   0.363   7.931  0.2921  0.1193  0.3347
  187SAPI  H11X21550   6.785   0.256   7.955 -1.4421 -0.0496  0.9713
  187SAPI  H11Y21551   6.660   0.374   7.907  0.1954  1.6549  1.3147
  187SAPI  C31221552   6.810   0.447   8.056 -0.6930 -0.7334  0.3730
  187SAPI  H12X21553   6.785   0.554   8.040  1.8716 -0.0140  0.7528
  187SAPI  H12Y21554   6.918   0.436   8.077 -0.3036  0.2741 -0.9645
  187SAPI  C31321555   6.726   0.397   8.175  0.1467 -0.1036 -0.5704
  187SAPI  H13X21556   6.746   0.473   8.254 -2.3798  0.8859 -0.8043
  187SAPI  H13Y21557   6.761   0.295   8.202  0.9867  0.1282 -0.7422
  187SAPI  C31421558   6.573   0.397   8.169 -0.1082 -0.1911  0.6815
  187SAPI  H14X21559   6.539   0.444   8.075  0.1332 -1.3782 -0.0254
  187SAPI  H14Y21560   6.529   0.460   8.249 -0.6019 -0.2444  0.4503
  187SAPI  C31521561   6.512   0.262   8.199  0.8948  0.0694 -0.3032
  187SAPI  H15X21562   6.560   0.212   8.286 -0.2634 -1.1749 -0.3435
  187SAPI  H15Y21563   6.524   0.196   8.110 -1.0059 -0.6725 -0.0651
  187SAPI  C31621564   6.354   0.276   8.223 -0.5009  0.3077 -0.0842
  187SAPI  H16X21565   6.349   0.364   8.290  2.4524 -1.3190  2.5347
  187SAPI  H16Y21566   6.329   0.184   8.280 -0.1200  0.1534 -0.1595
  187SAPI  C31721567   6.264   0.267   8.100 -0.3920 -0.1792  0.2921
  187SAPI  H17X21568   6.290   0.349   8.029 -0.1088 -0.9993 -0.5756
  187SAPI  H17Y21569   6.161   0.282   8.138  0.4204  3.9118  1.3562
  187SAPI  C31821570   6.281   0.132   8.020 -0.0845 -0.3416 -0.6800
  187SAPI  H18X21571   6.239   0.060   8.093 -2.4884 -0.1780 -1.8129
  187SAPI  H18Y21572   6.385   0.102   7.994  0.2106  2.0900 -2.6716
  187SAPI  H18Z21573   6.220   0.135   7.928 -2.3165  2.1326  0.7353
  188SAPI   C1221574   2.074   5.231   6.161 -0.0066 -0.5145 -0.4858
  188SAPI    H221575   2.029   5.190   6.255 -1.3906 -1.5422 -1.5558
  188SAPI    O221576   2.145   5.130   6.088 -0.8833 -0.4355 -0.2161
  188SAPI   HO221577   2.189   5.066   6.144  0.5122  0.3318 -0.3835
  188SAPI   C1321578   1.956   5.285   6.086  0.0522  0.1556 -0.3894
  188SAPI    H321579   1.911   5.363   6.152  2.4594 -0.4524  2.1616
  188SAPI    O321580   1.858   5.184   6.068 -0.0378 -0.0963 -0.0841
  188SAPI   HO321581   1.915   5.108   6.053  0.4336  0.4494 -1.1361
  188SAPI   C1421582   1.981   5.350   5.946 -0.5607 -0.3213 -0.4466
  188SAPI    H421583   2.004   5.263   5.880  2.3744  0.7699 -1.0295
  188SAPI    O421584   1.868   5.431   5.902  0.1220  0.5828 -0.4876
  188SAPI   HO421585   1.830   5.480   5.975 -1.0007 -0.7170 -0.1717
  188SAPI   C1521586   2.108   5.433   5.941  0.0257  0.3371 -0.2899
  188SAPI    H521587   2.070   5.533   5.968 -0.7429 -0.5647  2.2776
  188SAPI    O521588   2.160   5.462   5.808 -0.0686  0.1435 -0.8529
  188SAPI   HO521589   2.121   5.545   5.779 -0.3876  0.1279 -0.4785
  188SAPI   C1621590   2.219   5.398   6.045  0.3107 -0.0438 -0.2355
  188SAPI    H621591   2.286   5.324   5.996  0.8066  0.5536 -0.4790
  188SAPI    O621592   2.295   5.512   6.071  0.1511  0.1091 -0.1068
  188SAPI   HO621593   2.361   5.483   6.135  0.0705 -1.1756 -0.5902
  188SAPI   C1121594   2.168   5.348   6.181 -0.9744  0.1382 -1.5483
  188SAPI    H121595   2.115   5.432   6.229  1.0377  0.6612 -0.1024
  188SAPI     P21596   2.419   5.284   6.272  0.0646 -0.6054  0.1203
  188SAPI   O1321597   2.455   5.223   6.147 -0.6187  0.2739  0.2107
  188SAPI   O1421598   2.490   5.242   6.388  0.6701  0.0439 -0.3632
  188SAPI   O1221599   2.261   5.313   6.292  0.3313  0.0456  0.4106
  188SAPI   O1121600   2.466   5.438   6.249  0.1887 -0.4784  0.1829
  188SAPI    C121601   2.480   5.516   6.363  0.0157  0.2475  0.6822
  188SAPI    HA21602   2.429   5.485   6.457 -0.3887  3.4690  1.6526
  188SAPI    HB21603   2.589   5.522   6.385  0.4365  2.9636 -1.6791
  188SAPI    C221604   2.436   5.665   6.341  0.6217 -0.1047 -0.2698
  188SAPI    HS21605   2.333   5.657   6.300  0.0484  0.0844  1.1107
  188SAPI   O2121606   2.540   5.706   6.247 -0.3579 -0.1039 -0.4032
  188SAPI   C2121607   2.507   5.814   6.187 -0.4447 -0.2909 -0.3000
  188SAPI   O2221608   2.408   5.884   6.207  0.2739  0.3521  0.2028
  188SAPI   C2221609   2.607   5.856   6.080 -0.8305 -0.2642 -0.2569
  188SAPI   H2R21610   2.622   5.776   6.005 -0.7364  1.8951 -2.6959
  188SAPI   H2S21611   2.574   5.953   6.036  1.4488  2.1853  2.9444
  188SAPI    C321612   2.431   5.750   6.476 -0.4109 -0.4023  0.9514
  188SAPI    HX21613   2.412   5.856   6.448  2.2428  0.3205  1.6022
  188SAPI    HY21614   2.535   5.754   6.514 -0.8924 -2.5702  2.6688
  188SAPI   O3121615   2.349   5.702   6.584  0.3947  0.7803 -0.2065
  188SAPI   C3121616   2.216   5.727   6.581 -0.1620  0.0867 -0.3401
  188SAPI   O3221617   2.157   5.775   6.486 -0.1942 -0.3170 -0.4777
  188SAPI   C3221618   2.153   5.692   6.718  0.0874  0.3152  0.3040
  188SAPI   H2X21619   2.120   5.587   6.704  2.2293 -0.1849 -1.6065
  188SAPI   H2Y21620   2.077   5.770   6.740 -0.7710 -0.3875 -0.0935
  188SAPI   C2321621   2.752   5.892   6.131 -0.3436  0.2316  0.1299
  188SAPI   H3R21622   2.816   5.895   6.041 -3.7276 -0.7301 -2.5160
  188SAPI   H3S21623   2.784   5.803   6.189 -0.5007  0.4922  0.6230
  188SAPI   C2421624   2.760   6.022   6.218  0.3348 -0.9945 -0.4040
  188SAPI   H4R21625   2.863   6.025   6.259  0.1971  2.6706  0.0051
  188SAPI   H4S21626   2.704   6.011   6.314 -0.0905  0.5613 -0.4458
  188SAPI   C2521627   2.723   6.147   6.139  0.1103  0.0807 -0.4174
  188SAPI   H5R21628   2.791   6.164   6.053 -0.3890 -1.2393 -1.1086
  188SAPI   C2621629   2.618   6.227   6.164  0.6008  0.1180 -0.0732
  188SAPI   H6R21630   2.603   6.316   6.100 -2.1320  1.4802  2.2160
  188SAPI   C2721631   2.514   6.196   6.273  0.1099  0.0170  0.6170
  188SAPI   H7R21632   2.504   6.086   6.286 -0.9581 -0.0011 -0.2201
  188SAPI   H7S21633   2.412   6.229   6.245  0.7296 -0.2329 -2.2343
  188SAPI   C2821634   2.544   6.260   6.409  0.3717  0.0242 -0.2862
  188SAPI   H8R21635   2.638   6.315   6.420  1.3684 -1.6144 -0.3614
  188SAPI   C2921636   2.468   6.237   6.520 -0.8140 -0.0762  0.0270
  188SAPI   H9R21637   2.500   6.290   6.611  0.6315 -1.0057  0.1048
  188SAPI  C21021638   2.346   6.155   6.538 -0.1560 -0.3050 -0.2251
  188SAPI  H10R21639   2.374   6.077   6.612 -1.0318  0.4288  0.9275
  188SAPI  H10S21640   2.321   6.096   6.447  0.0448 -0.2009 -0.3472
  188SAPI  C21121641   2.232   6.239   6.591 -0.4211  0.2374  0.0854
  188SAPI  H11R21642   2.157   6.283   6.524 -2.9819 -0.1608  2.5056
  188SAPI  C21221643   2.207   6.255   6.724 -0.4836  0.0022  0.1088
  188SAPI  H12R21644   2.121   6.321   6.741 -0.5753 -0.0051 -0.3312
  188SAPI  C21321645   2.280   6.212   6.848  0.5323  0.7313  1.2855
  188SAPI  H13R21646   2.382   6.179   6.819  0.6629  1.4698  0.8897
  188SAPI  H13S21647   2.246   6.114   6.888 -0.9016  0.3838 -0.6158
  188SAPI  C21421648   2.296   6.309   6.951 -0.4586  0.7507 -0.5849
  188SAPI  H14R21649   2.308   6.412   6.913 -1.8178  0.8291 -0.8395
  188SAPI  C21521650   2.286   6.288   7.085  0.4035  0.1045 -0.4126
  188SAPI  H15R21651   2.320   6.370   7.150 -1.5539 -0.1447  0.9847
  188SAPI  C21621652   2.259   6.159   7.161  0.1541  0.5477 -0.3295
  188SAPI  H16R21653   2.243   6.074   7.091  1.9838 -0.6812  0.6707
  188SAPI  H16S21654   2.160   6.178   7.208  0.3602 -0.5098  0.5503
  188SAPI  C21721655   2.368   6.133   7.262 -0.4036  0.0481 -1.1090
  188SAPI  H17R21656   2.462   6.168   7.214 -0.0314  0.4044 -0.1602
  188SAPI  H17S21657   2.359   6.023   7.275 -2.8434  0.2997 -0.1037
  188SAPI  C21821658   2.349   6.206   7.399 -0.5826  0.5512  0.0189
  188SAPI  H18R21659   2.244   6.209   7.435  0.4565  3.0902  3.3224
  188SAPI  H18S21660   2.374   6.314   7.392 -0.3802  0.4769 -0.4505
  188SAPI  C21921661   2.427   6.135   7.507  0.5422  1.0922 -0.3584
  188SAPI  H19R21662   2.534   6.155   7.484  1.4466 -2.1930  0.4691
  188SAPI  H19S21663   2.409   6.026   7.502 -1.9819  1.4234  0.3365
  188SAPI  C22021664   2.407   6.182   7.647 -0.1139 -0.6614 -0.7578
  188SAPI  H20R21665   2.465   6.128   7.725  1.4531  0.4137 -1.1179
  188SAPI  H20S21666   2.301   6.157   7.668 -0.0697 -0.4019 -0.2145
  188SAPI  H20T21667   2.436   6.289   7.649 -3.1384  0.2641 -1.4639
  188SAPI   C3321668   2.259   5.713   6.829  0.4765  0.2401 -0.4241
  188SAPI   H3X21669   2.297   5.817   6.820  3.1576 -0.7366 -1.3634
  188SAPI   H3Y21670   2.352   5.656   6.811  1.2229  1.2504  0.0741
  188SAPI   C3421671   2.204   5.681   6.974 -0.1012  0.2092  0.8377
  188SAPI   H4X21672   2.185   5.574   6.998 -0.1487  0.3625  1.5146
  188SAPI   H4Y21673   2.109   5.733   7.000 -0.3637  0.1761 -0.0109
  188SAPI   C3521674   2.307   5.715   7.082 -0.1858 -0.7473  0.2098
  188SAPI   H5X21675   2.331   5.823   7.081 -0.4629 -0.6536  1.9595
  188SAPI   H5Y21676   2.399   5.655   7.067  0.4014  0.3017 -0.5130
  188SAPI   C3621677   2.241   5.684   7.216 -0.4805 -0.1939 -0.2332
  188SAPI   H6X21678   2.245   5.573   7.213 -0.8055 -0.2382  0.8218
  188SAPI   H6Y21679   2.136   5.719   7.218 -0.9122 -1.4823  0.2229
  188SAPI   C3721680   2.315   5.736   7.341 -0.0670  0.2571  0.0800
  188SAPI   H7X21681   2.296   5.845   7.334 -0.6382  0.0420 -2.7444
  188SAPI   H7Y21682   2.424   5.721   7.324 -0.0148  1.8879 -1.2525
  188SAPI   C3821683   2.272   5.677   7.479 -0.0376 -0.0311 -0.0705
  188SAPI   H8X21684   2.301   5.573   7.505  2.9825  0.6634 -0.2865
  188SAPI   H8Y21685   2.160   5.676   7.481 -0.0874 -1.2596 -1.4885
  188SAPI   C3921686   2.322   5.762   7.602  0.8453 -0.5531  0.0466
  188SAPI   H9X21687   2.278   5.864   7.596  3.6727  0.7597 -0.0344
  188SAPI   H9Y21688   2.429   5.779   7.577 -0.0966  1.2469 -3.2604
  188SAPI  C31021689   2.304   5.701   7.738 -0.1214 -0.2806  0.7271
  188SAPI  H10X21690   2.357   5.604   7.753  1.1553  0.1767 -0.6792
  188SAPI  H10Y21691   2.195   5.687   7.756 -0.0467 -2.5136 -0.2695
  188SAPI  C31121692   2.349   5.804   7.842 -0.7018  0.6894 -0.4805
  188SAPI  H11X21693   2.292   5.899   7.831 -0.6347  0.8561  0.5498
  188SAPI  H11Y21694   2.454   5.838   7.836 -0.4483  0.9316  3.2665
  188SAPI  C31221695   2.324   5.751   7.981 -0.2843 -0.0560 -0.5992
  188SAPI  H12X21696   2.376   5.653   7.991 -1.6880 -0.6810  1.1524
  188SAPI  H12Y21697   2.218   5.729   8.002  0.0305 -2.3621 -1.2028
  188SAPI  C31321698   2.386   5.845   8.088  0.1347  0.0572 -0.0215
  188SAPI  H13X21699   2.322   5.935   8.095  0.6548  0.3956  0.4689
  188SAPI  H13Y21700   2.484   5.887   8.057 -0.0307 -0.6532 -1.6205
  188SAPI  C31421701   2.406   5.779   8.224 -0.3346  0.7484 -0.1247
  188SAPI  H14X21702   2.492   5.709   8.218  1.2958  2.4941  1.6423
  188SAPI  H14Y21703   2.312   5.725   8.248 -0.6054  1.6468  0.8733
  188SAPI  C31521704   2.430   5.887   8.342 -0.7313 -0.0263  0.1754
  188SAPI  H15X21705   2.429   5.837   8.442 -1.3713  0.6717  0.5250
  188SAPI  H15Y21706   2.367   5.976   8.323  2.2661  1.6194 -2.9233
  188SAPI  C31621707   2.571   5.949   8.338 -0.0323 -0.4013 -0.2575
  188SAPI  H16X21708   2.582   5.983   8.233  0.6598 -2.2350 -0.8002
  188SAPI  H16Y21709   2.643   5.866   8.354 -1.2336 -1.1752  1.4421
  188SAPI  C31721710   2.587   6.078   8.429 -0.3710  0.1476 -0.0627
  188SAPI  H17X21711   2.565   6.053   8.535  0.3621  2.4699  0.6964
  188SAPI  H17Y21712   2.503   6.142   8.393  0.4647 -0.0742 -2.6042
  188SAPI  C31821713   2.725   6.144   8.418  0.5528  0.5684 -0.1661
  188SAPI  H18X21714   2.757   6.181   8.318  4.2524 -2.7280 -0.4583
  188SAPI  H18Y21715   2.810   6.091   8.466  0.7515 -0.4061 -1.5130
  188SAPI  H18Z21716   2.706   6.227   8.489 -0.3239  1.1277 -1.0290
  189POPC     N21717   4.957   1.544  10.672 -0.3159  0.6058  0.5204
  189POPC   C1221718   4.816   1.577  10.616 -0.0583 -0.1976 -0.6468
  189POPC  H12A21719   4.840   1.604  10.514  0.8653 -0.4977 -0.5186
  189POPC  H12B21720   4.769   1.656  10.674  0.4605  1.0869 -1.8936
  189POPC   C1321721   5.023   1.464  10.566  0.3497  0.1796  0.7530
  189POPC  H13A21722   4.953   1.384  10.543 -0.0034  1.0340 -1.3291
  189POPC  H13B21723   5.039   1.520  10.476  1.6486 -0.0685  0.8214
  189POPC  H13C21724   5.121   1.436  10.600  1.1867  2.5655  0.4455
  189POPC   C1421725   5.034   1.670  10.690  0.5148  0.3385  0.1455
  189POPC  H14A21726   4.982   1.745  10.748 -3.7016 -0.2884 -2.3428
  189POPC  H14B21727   5.139   1.656  10.711  0.3455  0.7008  1.2787
  189POPC  H14C21728   5.042   1.726  10.598  0.9906  0.1410  0.0630
  189POPC   C1521729   4.950   1.472  10.803 -0.1976 -0.7136  0.2054
  189POPC  H15A21730   4.882   1.388  10.807 -2.5085  1.1105  1.0961
  189POPC  H15B21731   4.907   1.536  10.878 -3.4245 -0.8359 -1.3929
  189POPC  H15C21732   5.050   1.446  10.835  0.8493  2.0510 -0.5549
  189POPC   C1121733   4.707   1.471  10.590  0.5371  0.3796  0.8980
  189POPC  H11A21734   4.668   1.441  10.690 -2.1700  0.2080 -0.1247
  189POPC  H11B21735   4.741   1.382  10.532  0.5426  1.2095 -0.4040
  189POPC     P21736   4.596   1.520  10.374  0.3447 -0.4304 -0.1706
  189POPC   O1321737   4.733   1.533  10.321 -0.5423 -0.0961  0.5052
  189POPC   O1421738   4.500   1.619  10.322  0.2798 -0.0808  0.5954
  189POPC   O1221739   4.597   1.537  10.525  0.0772  0.3632 -0.3811
  189POPC   O1121740   4.544   1.378  10.348 -0.4373 -0.5820 -0.1908
  189POPC    C121741   4.632   1.280  10.294 -0.3942 -1.8168 -0.4143
  189POPC    HA21742   4.594   1.180  10.322 -0.8306 -0.9555  2.3945
  189POPC    HB21743   4.732   1.296  10.341 -1.3301  1.4280  0.7784
  189POPC    C221744   4.626   1.284  10.144  0.7093  0.8534 -0.5166
  189POPC    HS21745   4.655   1.388  10.117  0.2618  0.7240 -1.5347
  189POPC   O2121746   4.490   1.265  10.115  0.1952  0.4334 -0.0047
  189POPC   C2121747   4.448   1.315  10.005  0.3972 -0.5385  0.6426
  189POPC   O2221748   4.510   1.392   9.937 -0.5249  0.3134 -0.2123
  189POPC   C2221749   4.305   1.270   9.981  0.5756  0.7873 -0.6113
  189POPC   H2R21750   4.244   1.337  10.046  0.3078 -0.7507  0.8040
  189POPC   H2S21751   4.287   1.167  10.021  1.1095  0.9199 -0.0148
  189POPC    C321752   4.706   1.163  10.077 -0.5439 -0.4057  0.6702
  189POPC    HX21753   4.668   1.063  10.106  0.9236 -1.3716 -0.5832
  189POPC    HY21754   4.813   1.163  10.109 -0.2442 -0.3668 -0.3199
  189POPC   O3121755   4.702   1.183   9.933  0.4167  0.6863  0.3393
  189POPC   C3121756   4.776   1.279   9.884 -0.2121 -0.2517  0.3203
  189POPC   O3221757   4.860   1.339   9.941  0.3562 -0.0971  0.7053
  189POPC   C3221758   4.747   1.289   9.733 -0.4644 -0.5841  0.1544
  189POPC   H2X21759   4.663   1.362   9.727 -0.2844  0.0737  3.8107
  189POPC   H2Y21760   4.708   1.195   9.689 -0.0379  0.5787 -2.9974
  189POPC   C2321761   4.245   1.276   9.841  0.1537 -0.9217  0.7316
  189POPC   H3R21762   4.259   1.378   9.797 -1.7636 -0.3586  1.3166
  189POPC   H3S21763   4.136   1.257   9.851 -0.3508  0.7515 -0.9361
  189POPC   C2421764   4.306   1.183   9.733 -0.2593  0.4388  0.9380
  189POPC   H4R21765   4.266   1.082   9.758  0.6018  0.8359  4.4213
  189POPC   H4S21766   4.417   1.179   9.744 -0.3051 -1.1807  1.0495
  189POPC   C2521767   4.259   1.215   9.588 -0.5272 -0.0675 -0.5222
  189POPC   H5R21768   4.284   1.317   9.553  2.2942  0.2225  1.9544
  189POPC   H5S21769   4.148   1.210   9.594 -0.5793 -2.2309 -2.0021
  189POPC   C2621770   4.302   1.108   9.483  0.0292 -0.5035 -0.2640
  189POPC   H6R21771   4.254   1.018   9.526  0.5333 -0.5066  0.3006
  189POPC   H6S21772   4.411   1.089   9.485 -0.0672 -0.9915  1.4589
  189POPC   C2721773   4.236   1.127   9.341  0.6712 -0.3772  0.7023
  189POPC   H7R21774   4.279   1.221   9.302 -1.1370  0.1047 -0.2340
  189POPC   H7S21775   4.129   1.150   9.362  1.0256  2.1640  0.0158
  189POPC   C2821776   4.247   1.007   9.248 -0.3026  0.5556 -0.5771
  189POPC   H8R21777   4.179   1.031   9.163  0.0895  2.2802 -0.4477
  189POPC   H8S21778   4.208   0.920   9.304 -1.6866  1.4159 -0.1304
  189POPC   C2921779   4.389   0.995   9.211  0.3990 -0.3789 -0.2034
  189POPC   H9121780   4.452   0.930   9.272  0.9166  1.4033  1.2336
  189POPC  C21021781   4.447   1.038   9.097 -0.2160 -0.1307  0.5895
  189POPC  H10121782   4.557   1.037   9.095 -0.2260  0.2300 -0.5095
  189POPC  C21121783   4.380   1.131   9.003 -0.3917  1.0271 -0.2201
  189POPC  H11R21784   4.455   1.197   8.957  1.3134  0.2680  1.3490
  189POPC  H11S21785   4.310   1.193   9.063 -0.8088  0.0531  0.3367
  189POPC  C21221786   4.294   1.055   8.905  0.0524  0.0903  0.0621
  189POPC  H12R21787   4.235   1.132   8.850  1.0568  1.1275  0.3809
  189POPC  H12S21788   4.232   0.986   8.965 -0.6848  1.4284  0.8992
  189POPC  C21321789   4.376   0.974   8.808 -0.1132 -0.2114  0.1399
  189POPC  H13R21790   4.478   0.953   8.847 -0.4893 -0.0501  1.2249
  189POPC  H13S21791   4.389   1.031   8.713  0.6631  1.4433  1.1863
  189POPC  C21421792   4.317   0.835   8.791 -0.7800 -0.1749 -0.0013
  189POPC  H14R21793   4.209   0.837   8.766 -0.5972  0.0740 -0.7993
  189POPC  H14S21794   4.321   0.768   8.880 -3.3666 -0.4819 -0.0567
  189POPC  C21521795   4.376   0.753   8.680  0.1119 -0.1808 -0.3065
  189POPC  H15R21796   4.333   0.799   8.589  1.2818  1.3962 -0.1084
  189POPC  H15S21797   4.333   0.651   8.688  0.9567 -0.4298  1.6388
  189POPC  C21621798   4.530   0.748   8.673 -0.0505 -0.2028 -0.2555
  189POPC  H16R21799   4.567   0.719   8.773  0.6892  2.2026  0.2302
  189POPC  H16S21800   4.557   0.853   8.649 -2.6547  1.1052  1.9576
  189POPC  C21721801   4.568   0.647   8.564  0.1826 -0.2372  0.0728
  189POPC  H17R21802   4.503   0.661   8.476  1.2463  0.7500 -0.5879
  189POPC  H17S21803   4.558   0.543   8.602 -0.6217 -0.2104 -0.0501
  189POPC  C21821804   4.708   0.661   8.505 -0.1982  0.0830 -0.1684
  189POPC  H18R21805   4.747   0.566   8.462 -0.4638 -1.1140  2.0656
  189POPC  H18S21806   4.781   0.695   8.581 -0.1727 -2.0441  0.8486
  189POPC  H18T21807   4.704   0.733   8.420 -1.5049  0.2584  0.0131
  189POPC   C3321808   4.874   1.335   9.645 -0.4374  0.0614  0.2793
  189POPC   H3X21809   4.926   1.240   9.620  0.4032  0.5464  0.1713
  189POPC   H3Y21810   4.936   1.414   9.692 -1.2718 -0.9383  3.3052
  189POPC   C3421811   4.829   1.387   9.503 -0.0809 -0.5876  0.1991
  189POPC   H4X21812   4.897   1.469   9.474 -0.4838 -0.2818  0.1156
  189POPC   H4Y21813   4.730   1.436   9.518 -0.8305 -2.4880  2.0050
  189POPC   C3521814   4.814   1.273   9.404 -0.1019  0.5269 -0.4649
  189POPC   H5X21815   4.731   1.204   9.431  0.6995  0.2145  1.3873
  189POPC   H5Y21816   4.907   1.212   9.402 -0.5077 -0.0884 -2.3961
  189POPC   C3621817   4.785   1.325   9.265  0.3138 -0.0738 -0.3738
  189POPC   H6X21818   4.704   1.400   9.266 -0.5007 -0.6985  4.3732
  189POPC   H6Y21819   4.741   1.242   9.205 -0.9122  1.2859 -1.4203
  189POPC   C3721820   4.908   1.370   9.192 -0.7833  0.2301  0.7097
  189POPC   H7X21821   4.991   1.299   9.214 -0.1418  0.9995  0.8327
  189POPC   H7Y21822   4.947   1.466   9.233  3.0841 -0.6427 -0.4866
  189POPC   C3821823   4.888   1.372   9.040  0.1084  0.2236 -0.3024
  189POPC   H8X21824   4.778   1.381   9.027 -0.5831 -1.7147  3.0150
  189POPC   H8Y21825   4.916   1.272   9.000 -0.8728 -0.4372  0.6128
  189POPC   C3921826   4.953   1.486   8.964  0.2557 -0.5573  0.8335
  189POPC   H9X21827   5.059   1.504   8.992  0.7458 -0.8116 -0.7336
  189POPC   H9Y21828   4.897   1.576   8.996 -0.0251  0.1015 -1.3746
  189POPC  C31021829   4.925   1.482   8.808 -0.8334  0.4492  0.0013
  189POPC  H10X21830   4.819   1.449   8.808 -0.3808 -1.0958  0.4646
  189POPC  H10Y21831   4.982   1.402   8.756  2.1436  1.3552  1.6659
  189POPC  C31121832   4.937   1.616   8.732 -0.2765  0.0464 -0.3272
  189POPC  H11X21833   5.037   1.664   8.733 -0.1272 -0.2568 -0.4546
  189POPC  H11Y21834   4.873   1.687   8.788  1.3822  1.5885 -0.2778
  189POPC  C31221835   4.880   1.608   8.593 -0.4577 -0.6431 -0.1713
  189POPC  H12X21836   4.844   1.709   8.563 -1.7198 -0.8016  0.7674
  189POPC  H12Y21837   4.798   1.535   8.580 -0.4114 -1.0536  1.5497
  189POPC  C31321838   4.992   1.569   8.480  1.6236  0.2766 -0.2800
  189POPC  H13X21839   5.025   1.466   8.503 -0.1308  0.0223  1.3628
  189POPC  H13Y21840   5.080   1.635   8.494  1.1079  1.6728 -2.8588
  189POPC  C31421841   4.947   1.581   8.333 -0.4653  0.1972 -0.6759
  189POPC  H14X21842   5.034   1.593   8.264 -1.3159  1.5118 -1.5600
  189POPC  H14Y21843   4.902   1.682   8.332  1.3330  1.0961  1.1037
  189POPC  C31521844   4.857   1.463   8.275 -0.5093 -0.3152 -0.3676
  189POPC  H15X21845   4.763   1.462   8.335 -0.8002  0.4079 -0.8000
  189POPC  H15Y21846   4.882   1.358   8.302 -1.9873 -0.6263 -0.1259
  189POPC  C31621847   4.824   1.484   8.127 -0.3217  1.0136  0.1396
  189POPC  H16X21848   4.766   1.393   8.099 -2.5104  2.1216  0.8424
  189POPC  H16Y21849   4.907   1.504   8.056 -1.6892  1.2267 -1.4631
  189POPC  H16Z21850   4.757   1.567   8.097 -0.1291  1.5968  1.2889
  190POPC     N21851   4.303   4.342  10.647 -0.2599 -0.2685  0.4807
  190POPC   C1221852   4.190   4.379  10.742  0.5614 -0.5191  0.2569
  190POPC  H12A21853   4.149   4.474  10.710  1.6584  0.1773  0.8328
  190POPC  H12B21854   4.229   4.409  10.838  1.0910  0.8726 -0.3680
  190POPC   C1321855   4.378   4.224  10.693 -0.3382 -0.5671 -0.0736
  190POPC  H13A21856   4.446   4.235  10.776 -0.0490  0.2190 -0.4050
  190POPC  H13B21857   4.300   4.152  10.708 -1.8414  0.9760 -0.1307
  190POPC  H13C21858   4.442   4.202  10.609 -1.8827  2.9448 -2.3999
  190POPC   C1421859   4.255   4.314  10.508  0.1746 -0.0879  0.7812
  190POPC  H14A21860   4.220   4.407  10.466  2.1424  1.0155  1.4495
  190POPC  H14B21861   4.330   4.263  10.450 -1.4492 -0.6549 -0.9187
  190POPC  H14C21862   4.168   4.251  10.519  0.3410 -0.2628  1.1283
  190POPC   C1521863   4.402   4.451  10.645 -0.4198  0.4704  0.5642
  190POPC  H15A21864   4.430   4.479  10.746 -0.9452  4.3922 -0.2005
  190POPC  H15B21865   4.355   4.534  10.594 -0.1743  0.0631 -0.3496
  190POPC  H15C21866   4.482   4.423  10.578 -0.6898 -2.6307  1.3809
  190POPC   C1121867   4.089   4.262  10.767 -0.5034 -0.7757  0.1958
  190POPC  H11A21868   4.022   4.299  10.848 -0.8004  1.6262 -1.0494
  190POPC  H11B21869   4.132   4.166  10.800 -0.8002 -0.1638  2.5454
  190POPC     P21870   3.905   4.116  10.672  0.3953 -0.0333  0.5588
  190POPC   O1321871   3.812   4.160  10.772 -0.0417 -0.5140 -0.1468
  190POPC   O1421872   3.980   3.990  10.697  0.3101  0.1497 -0.0341
  190POPC   O1221873   4.008   4.237  10.653 -0.6266  0.5261 -0.3541
  190POPC   O1121874   3.835   4.098  10.530  0.2057  0.8348 -0.1464
  190POPC    C121875   3.881   4.157  10.408 -0.5073 -0.1308 -0.3942
  190POPC    HA21876   3.992   4.152  10.399 -0.4623  0.3827 -0.1560
  190POPC    HB21877   3.870   4.267  10.415  1.9477  0.1126  1.3168
  190POPC    C221878   3.834   4.087  10.276  0.1242 -0.2202  0.3208
  190POPC    HS21879   3.907   4.090  10.192 -1.2877  0.3909 -0.9303
  190POPC   O2121880   3.712   4.150  10.231 -0.0906  0.3459  0.5023
  190POPC   C2121881   3.714   4.271  10.186 -0.0292  1.2523 -0.7548
  190POPC   O2221882   3.815   4.337  10.167  0.2363  0.1112  0.1150
  190POPC   C2221883   3.576   4.315  10.159  0.2031  0.2697  0.3232
  190POPC   H2R21884   3.529   4.319  10.259  1.2319  1.2591  0.7834
  190POPC   H2S21885   3.514   4.247  10.097 -1.0296  0.5570  1.2118
  190POPC    C321886   3.786   3.945  10.296  0.5480  0.3373 -0.7768
  190POPC    HX21887   3.697   3.936  10.361  1.0727 -2.1267 -0.2897
  190POPC    HY21888   3.868   3.885  10.343 -0.8587 -2.5774 -1.7872
  190POPC   O3121889   3.739   3.901  10.165  0.1799  0.1101 -0.2350
  190POPC   C3121890   3.835   3.847  10.083  0.2747 -0.6712 -1.0915
  190POPC   O3221891   3.948   3.808  10.118  0.4929  0.1663 -0.3640
  190POPC   C3221892   3.787   3.836   9.941 -0.1665  0.3066 -0.2490
  190POPC   H2X21893   3.701   3.766   9.943 -0.9365  1.2402  1.6917
  190POPC   H2Y21894   3.880   3.804   9.889 -0.9250 -3.3081  0.3906
  190POPC   C2321895   3.574   4.460  10.104 -0.6218  0.5294  0.2691
  190POPC   H3R21896   3.630   4.531  10.169 -0.1615 -1.1192  1.7627
  190POPC   H3S21897   3.474   4.507  10.119  0.2536  2.0976  1.4543
  190POPC   C2421898   3.616   4.459   9.948 -0.0353 -0.4525 -0.7204
  190POPC   H4R21899   3.719   4.418   9.949 -0.7538 -2.3302 -0.7992
  190POPC   H4S21900   3.606   4.560   9.902 -2.1249 -0.1781  0.1927
  190POPC   C2521901   3.519   4.371   9.866 -0.0499  0.2662 -0.7297
  190POPC   H5R21902   3.414   4.402   9.882 -0.8931 -2.0469 -1.4211
  190POPC   H5S21903   3.530   4.263   9.893 -0.9657 -0.0500 -1.5585
  190POPC   C2621904   3.540   4.365   9.715  0.0652  0.3560 -0.7516
  190POPC   H6R21905   3.636   4.314   9.693 -0.0650 -0.8430  1.2237
  190POPC   H6S21906   3.534   4.465   9.667 -0.4886 -0.2544 -1.9942
  190POPC   C2721907   3.433   4.268   9.664  0.0624 -0.1632  0.3280
  190POPC   H7R21908   3.340   4.288   9.721 -0.4787  1.9717 -1.1806
  190POPC   H7S21909   3.450   4.159   9.681 -0.0128 -0.3548 -0.7329
  190POPC   C2821910   3.400   4.292   9.513 -0.0648  1.0472  0.7584
  190POPC   H8R21911   3.389   4.398   9.482  0.5085  0.0595 -3.5053
  190POPC   H8S21912   3.299   4.249   9.492  1.0359 -2.0478  1.2191
  190POPC   C2921913   3.501   4.220   9.417  0.0878 -0.5890 -0.8684
  190POPC   H9121914   3.568   4.145   9.461  0.8051  0.7298  0.4181
  190POPC  C21021915   3.526   4.253   9.290 -0.0023  0.7408 -0.2340
  190POPC  H10121916   3.613   4.201   9.245 -0.2936  0.3779 -0.3874
  190POPC  C21121917   3.463   4.346   9.194  0.6841 -0.1978  0.4557
  190POPC  H11R21918   3.504   4.449   9.189 -1.4605  0.6714 -0.8928
  190POPC  H11S21919   3.356   4.368   9.215  0.6207 -1.2485  1.3630
  190POPC  C21221920   3.443   4.277   9.054 -0.0323  0.3331 -0.6025
  190POPC  H12R21921   3.388   4.180   9.053 -0.3286  0.4679 -2.7233
  190POPC  H12S21922   3.549   4.261   9.023  0.6004  0.5211  1.3519
  190POPC  C21321923   3.366   4.360   8.956 -0.4609  0.5036 -0.0164
  190POPC  H13R21924   3.399   4.466   8.944 -1.5073  0.9068  0.4875
  190POPC  H13S21925   3.261   4.361   8.993  0.0089  3.4284  1.5739
  190POPC  C21421926   3.379   4.292   8.815  0.4761  0.2384  0.3466
  190POPC  H14R21927   3.314   4.201   8.814  2.3075 -1.1748  2.0200
  190POPC  H14S21928   3.482   4.252   8.800  0.6174  0.4886  0.6550
  190POPC  C21521929   3.348   4.381   8.691  0.1904  0.5781  0.0843
  190POPC  H15R21930   3.438   4.447   8.690 -0.7288  1.9567  2.0083
  190POPC  H15S21931   3.259   4.445   8.712 -0.4486 -0.0692 -0.6430
  190POPC  C21621932   3.330   4.305   8.562 -0.5304  0.3094 -0.1029
  190POPC  H16R21933   3.250   4.229   8.573 -1.1558  1.0047  0.2410
  190POPC  H16S21934   3.433   4.269   8.540  0.6603  3.5793 -0.3941
  190POPC  C21721935   3.294   4.385   8.428 -0.4259  0.2226  0.1209
  190POPC  H17R21936   3.204   4.448   8.447 -2.6410 -3.1383  1.8232
  190POPC  H17S21937   3.269   4.310   8.350 -2.4374 -1.1792  1.9959
  190POPC  C21821938   3.398   4.473   8.365 -0.6670 -0.2817 -0.2830
  190POPC  H18R21939   3.360   4.515   8.269  0.6785 -0.1793 -0.7903
  190POPC  H18S21940   3.487   4.408   8.349 -0.9939 -0.3042 -2.2654
  190POPC  H18T21941   3.427   4.558   8.430  1.8721 -0.4713 -1.0751
  190POPC   C3321942   3.736   3.973   9.884 -0.2152 -0.2075  0.1654
  190POPC   H3X21943   3.809   4.056   9.891  0.2273 -0.5513 -0.2942
  190POPC   H3Y21944   3.647   3.997   9.945  0.3939  1.8245  0.3269
  190POPC   C3421945   3.706   3.959   9.734  0.4752 -0.8706 -0.3079
  190POPC   H4X21946   3.792   3.913   9.681  2.6616  1.4748  0.9582
  190POPC   H4Y21947   3.697   4.059   9.688 -0.0909  0.0663  1.7033
  190POPC   C3521948   3.580   3.874   9.712 -0.4174 -0.4956 -0.4469
  190POPC   H5X21949   3.492   3.917   9.764 -0.5250 -3.3439  2.0255
  190POPC   H5Y21950   3.580   3.770   9.753 -1.4331  0.1335  1.2458
  190POPC   C3621951   3.543   3.853   9.564  0.0572  1.2639 -0.3848
  190POPC   H6X21952   3.518   3.952   9.520 -1.5704  0.8973 -0.3396
  190POPC   H6Y21953   3.458   3.782   9.565  0.2956  0.9757 -0.1574
  190POPC   C3721954   3.653   3.777   9.480  0.6939  0.1002 -0.0376
  190POPC   H7X21955   3.678   3.692   9.547 -0.5192 -2.2861 -2.4357
  190POPC   H7Y21956   3.739   3.846   9.465  2.1373 -1.1976  1.8502
  190POPC   C3821957   3.599   3.716   9.353  1.2448 -0.2533  0.4948
  190POPC   H8X21958   3.517   3.646   9.381  1.2135  0.2685  1.7884
  190POPC   H8Y21959   3.677   3.654   9.303 -2.0078 -2.0308 -2.8823
  190POPC   C3921960   3.555   3.829   9.254 -0.1668  0.1296 -0.3841
  190POPC   H9X21961   3.474   3.890   9.301  0.0292  0.3505 -0.3289
  190POPC   H9Y21962   3.502   3.767   9.179 -0.9545 -1.4879  1.4295
  190POPC  C31021963   3.661   3.921   9.204 -0.0109 -0.2305 -0.3026
  190POPC  H10X21964   3.731   3.947   9.285 -0.0424 -2.1899  0.4037
  190POPC  H10Y21965   3.619   4.009   9.150  3.1706  2.5029  1.3663
  190POPC  C31121966   3.747   3.862   9.088  0.3209  0.6683 -0.0852
  190POPC  H11X21967   3.745   3.753   9.112 -0.4914 -0.1451 -3.3011
  190POPC  H11Y21968   3.854   3.891   9.093  0.1433  1.8668 -2.2257
  190POPC  C31221969   3.690   3.907   8.954  0.3794 -0.3014 -0.2889
  190POPC  H12X21970   3.683   4.018   8.954 -3.0755 -0.3736 -1.2565
  190POPC  H12Y21971   3.585   3.869   8.957  0.4911 -0.6463 -0.7252
  190POPC  C31321972   3.773   3.843   8.847  0.1428  0.1133 -0.2283
  190POPC  H13X21973   3.761   3.734   8.863 -2.4227  0.4494  0.5393
  190POPC  H13Y21974   3.881   3.868   8.852  0.0945  0.1726  0.7068
  190POPC  C31421975   3.723   3.852   8.702  0.0754 -0.2158  0.0299
  190POPC  H14X21976   3.783   3.799   8.624 -2.8708 -0.3299 -2.3666
  190POPC  H14Y21977   3.727   3.959   8.672  1.7098  0.2199  1.6082
  190POPC  C31521978   3.587   3.789   8.678  0.7213  0.0586  0.1417
  190POPC  H15X21979   3.521   3.845   8.747  2.9364  2.3282  0.5837
  190POPC  H15Y21980   3.577   3.682   8.706 -0.3013 -0.2785 -1.3980
  190POPC  C31621981   3.535   3.811   8.533 -0.2684 -0.2048 -0.3666
  190POPC  H16X21982   3.544   3.919   8.511 -0.8375  0.8229  3.6812
  190POPC  H16Y21983   3.426   3.792   8.525 -0.7827  1.0373  2.5284
  190POPC  H16Z21984   3.588   3.739   8.466 -1.6092 -3.4558  1.7836
  191POPC     N21985   2.558   3.828   6.045 -0.4394 -0.0777 -0.5169
  191POPC   C1221986   2.597   3.704   6.132  0.1344 -0.6871 -0.7656
  191POPC  H12A21987   2.704   3.693   6.140  0.6677  1.9735 -2.6256
  191POPC  H12B21988   2.567   3.610   6.088 -3.3144  0.0833 -0.3221
  191POPC   C1321989   2.629   3.815   5.916 -0.4253  0.3731 -0.1583
  191POPC  H13A21990   2.600   3.898   5.853 -0.2055 -0.7083 -1.7172
  191POPC  H13B21991   2.736   3.810   5.928 -0.4064 -0.0239 -0.5177
  191POPC  H13C21992   2.607   3.718   5.876  0.2803 -0.3187  1.0681
  191POPC   C1421993   2.411   3.826   6.023  0.1218  0.3036  0.0983
  191POPC  H14A21994   2.374   3.915   5.975 -2.7093  0.8081  2.8876
  191POPC  H14B21995   2.382   3.734   5.974 -0.3955 -0.3218  1.5212
  191POPC  H14C21996   2.371   3.829   6.123 -1.7859  1.4094 -0.6486
  191POPC   C1521997   2.612   3.946   6.120  0.6934  0.5855  0.6570
  191POPC  H15A21998   2.585   4.042   6.079  0.6881  0.7733  1.0964
  191POPC  H15B21999   2.720   3.942   6.120  0.7170  1.1483  0.3478
  191POPC  H15C22000   2.583   3.941   6.224 -0.8819 -1.4147  0.2022
  191POPC   C1122001   2.539   3.695   6.276  0.3811 -0.1902  0.7458
  191POPC  H11A22002   2.519   3.791   6.329  1.6834  0.5777 -0.1047
  191POPC  H11B22003   2.619   3.643   6.333  1.4955 -1.5163 -1.8582
  191POPC     P22004   2.400   3.475   6.239  0.3060 -0.2228  0.1958
  191POPC   O1322005   2.457   3.457   6.100  0.3131  0.1542  0.1297
  191POPC   O1422006   2.258   3.435   6.254  0.2623  0.4467  0.2549
  191POPC   O1222007   2.413   3.621   6.285  0.1307 -0.0997  0.2763
  191POPC   O1122008   2.481   3.402   6.355  0.0926  0.2416 -0.4748
  191POPC    C122009   2.419   3.379   6.483 -0.4596 -0.1444  0.1082
  191POPC    HA22010   2.481   3.301   6.532  0.0433 -0.9273 -1.6659
  191POPC    HB22011   2.320   3.329   6.483  0.6456 -2.4736  0.9708
  191POPC    C222012   2.417   3.502   6.578  0.6100 -0.7086  0.0623
  191POPC    HS22013   2.352   3.578   6.531  2.4733 -0.0879 -1.6485
  191POPC   O2122014   2.549   3.560   6.609 -0.1974 -0.3436 -0.0955
  191POPC   C2122015   2.543   3.681   6.671  0.1913  0.1623  0.2823
  191POPC   O2222016   2.441   3.746   6.685 -0.1904  0.1085 -0.2555
  191POPC   C2222017   2.680   3.723   6.710  0.0412  0.4184 -0.4335
  191POPC   H2R22018   2.736   3.755   6.620 -0.7369  0.8091 -0.7932
  191POPC   H2S22019   2.737   3.642   6.761  0.0205  1.2603  0.9924
  191POPC    C322020   2.349   3.468   6.706 -0.0864  0.3332 -0.2200
  191POPC    HX22021   2.329   3.558   6.768  0.8825  0.6264 -0.3252
  191POPC    HY22022   2.430   3.411   6.757  0.3341  1.9020  0.9499
  191POPC   O3122023   2.226   3.390   6.684 -0.4369 -0.1020  0.1745
  191POPC   C3122024   2.180   3.344   6.807  0.0006  0.1821  0.2417
  191POPC   O3222025   2.233   3.356   6.918  0.3653  0.7171 -0.1112
  191POPC   C3222026   2.035   3.287   6.782 -0.6208 -0.5291 -0.5586
  191POPC   H2X22027   2.038   3.201   6.852  0.6374 -2.0542 -2.3937
  191POPC   H2Y22028   2.049   3.254   6.677  0.3567 -0.1239 -0.5691
  191POPC   C2322029   2.676   3.860   6.795 -0.0674  0.5496 -0.3594
  191POPC   H3R22030   2.613   3.931   6.738 -0.5199  0.2036 -0.2993
  191POPC   H3S22031   2.781   3.895   6.797  0.4476 -0.9198 -0.5378
  191POPC   C2422032   2.622   3.830   6.931 -0.4087 -0.2674 -0.0438
  191POPC   H4R22033   2.659   3.736   6.975 -0.3041  0.1836  0.8489
  191POPC   H4S22034   2.512   3.816   6.919 -0.6514  1.9283 -0.7856
  191POPC   C2522035   2.644   3.956   7.006  0.4219 -0.3879 -0.1539
  191POPC   H5R22036   2.614   4.048   6.951 -1.9577 -1.2733 -0.4457
  191POPC   H5S22037   2.750   3.962   7.040  0.3441  1.6456 -0.1759
  191POPC   C2622038   2.562   3.979   7.137  0.1737  0.1854  0.0921
  191POPC   H6R22039   2.565   3.888   7.200  0.4964  0.1910  0.0864
  191POPC   H6S22040   2.462   4.019   7.109 -0.3274 -1.1387 -0.0481
  191POPC   C2722041   2.621   4.094   7.225 -0.9258  0.2621 -0.1594
  191POPC   H7R22042   2.586   4.194   7.190 -0.2135  0.9201  0.9509
  191POPC   H7S22043   2.732   4.093   7.222 -0.8614  1.8093  0.5232
  191POPC   C2822044   2.590   4.091   7.376 -0.3020  1.1930  0.1813
  191POPC   H8R22045   2.481   4.077   7.392 -0.1990 -1.6805 -0.9649
  191POPC   H8S22046   2.623   4.185   7.424 -1.6404  2.2283 -0.8901
  191POPC   C2922047   2.655   3.977   7.451 -0.8358 -0.7498 -0.2561
  191POPC   H9122048   2.708   3.903   7.390  4.1447  0.7401  1.7267
  191POPC  C21022049   2.690   3.986   7.583 -0.1329  0.0008 -0.5105
  191POPC  H10122050   2.728   3.895   7.632 -0.1071 -0.8997 -2.1528
  191POPC  C21122051   2.632   4.092   7.673 -0.1583 -0.5738  0.7283
  191POPC  H11R22052   2.527   4.067   7.700  0.0627 -1.1772  1.0560
  191POPC  H11S22053   2.640   4.192   7.627  0.1485 -0.3502  1.2590
  191POPC  C21222054   2.714   4.088   7.807  0.1360  0.8271 -0.1043
  191POPC  H12R22055   2.687   4.179   7.864  1.1241  0.0936  1.5958
  191POPC  H12S22056   2.825   4.088   7.796  0.7887  2.9034  4.3750
  191POPC  C21322057   2.687   3.958   7.891  0.3550 -0.2374 -0.2189
  191POPC  H13R22058   2.720   3.865   7.840  0.5929  1.4099 -3.3649
  191POPC  H13S22059   2.578   3.955   7.910  0.1313  3.0422 -0.4898
  191POPC  C21422060   2.767   3.964   8.023 -0.1564  0.1976 -0.2523
  191POPC  H14R22061   2.743   4.063   8.066 -1.2503  0.8703 -2.2709
  191POPC  H14S22062   2.872   3.972   7.986 -0.0093 -1.4372 -0.2857
  191POPC  C21522063   2.737   3.845   8.121  0.2801 -0.4972  0.1724
  191POPC  H15R22064   2.829   3.808   8.171 -0.1784 -0.9436  0.6870
  191POPC  H15S22065   2.702   3.749   8.077  1.0959 -0.5640 -0.3618
  191POPC  C21622066   2.653   3.893   8.231 -0.1427  0.2532 -0.2757
  191POPC  H16R22067   2.681   3.997   8.261 -0.6022 -0.6245  3.6684
  191POPC  H16S22068   2.671   3.828   8.319 -1.4048 -0.0855 -0.2569
  191POPC  C21722069   2.499   3.900   8.220  0.1764 -0.7724 -0.5587
  191POPC  H17R22070   2.463   3.809   8.166 -0.7551 -0.2348 -0.8725
  191POPC  H17S22071   2.495   3.991   8.157  0.7263 -0.0899  0.3727
  191POPC  C21822072   2.412   3.919   8.352 -0.3985 -0.4415 -0.1035
  191POPC  H18R22073   2.429   3.828   8.413  0.2899 -1.6518 -2.0070
  191POPC  H18S22074   2.306   3.927   8.322 -0.2371 -0.4846 -0.6992
  191POPC  H18T22075   2.426   4.013   8.409  2.2951 -0.6193 -0.3437
  191POPC   C3322076   1.924   3.397   6.789  0.2884  0.3884 -0.9138
  191POPC   H3X22077   1.831   3.338   6.804  2.0851 -2.5611 -0.5443
  191POPC   H3Y22078   1.920   3.456   6.695  3.0522 -0.7035 -1.8032
  191POPC   C3422079   1.924   3.487   6.907 -0.3087 -0.0499 -0.5479
  191POPC   H4X22080   2.002   3.566   6.900 -1.2439  0.9818  0.3290
  191POPC   H4Y22081   1.943   3.431   7.002 -1.9644 -2.0385 -1.3167
  191POPC   C3522082   1.795   3.569   6.950  0.3611 -0.3930 -0.2191
  191POPC   H5X22083   1.717   3.498   6.985 -2.4494  1.1790 -2.8493
  191POPC   H5Y22084   1.764   3.613   6.854 -0.0839  0.4552  0.3035
  191POPC   C3622085   1.840   3.674   7.052  0.2153  0.5391  0.1882
  191POPC   H6X22086   1.896   3.751   6.994  0.3752  0.1646 -0.1615
  191POPC   H6Y22087   1.913   3.634   7.126 -0.2442  1.0998  0.9512
  191POPC   C3722088   1.723   3.737   7.133 -0.5203  0.8695  0.6700
  191POPC   H7X22089   1.645   3.778   7.064 -0.5883  1.0600  0.8579
  191POPC   H7Y22090   1.763   3.825   7.188  1.5864 -0.9751  2.2223
  191POPC   C3822091   1.651   3.652   7.238 -0.2002  0.1317 -0.3528
  191POPC   H8X22092   1.616   3.559   7.189 -0.1250 -0.5216  0.8184
  191POPC   H8Y22093   1.559   3.705   7.270 -0.6920  0.8260 -2.7198
  191POPC   C3922094   1.748   3.624   7.356  0.4043 -0.2678 -0.8989
  191POPC   H9X22095   1.795   3.717   7.395  0.9515 -0.0889 -1.9407
  191POPC   H9Y22096   1.825   3.557   7.311  0.7909 -0.4577  0.0249
  191POPC  C31022097   1.666   3.574   7.482  0.0991 -0.0858  0.0793
  191POPC  H10X22098   1.641   3.466   7.476 -1.1819  0.1366  0.9935
  191POPC  H10Y22099   1.571   3.632   7.492  0.6674  0.8186  0.3731
  191POPC  C31122100   1.734   3.618   7.613 -0.2805  0.3644  0.1760
  191POPC  H11X22101   1.737   3.729   7.604 -1.5011  0.3909 -0.1806
  191POPC  H11Y22102   1.841   3.591   7.626 -0.7489 -2.1901 -0.6435
  191POPC  C31222103   1.670   3.557   7.743 -0.5855  0.1540 -0.1506
  191POPC  H12X22104   1.647   3.451   7.716 -1.0905  0.5516 -1.3575
  191POPC  H12Y22105   1.565   3.594   7.753 -0.5154  0.2293  0.3193
  191POPC  C31322106   1.750   3.570   7.874  0.2968  0.6702 -0.1686
  191POPC  H13X22107   1.766   3.679   7.890  2.5783  0.2862  0.5857
  191POPC  H13Y22108   1.852   3.526   7.863 -0.6689 -2.1380  1.1247
  191POPC  C31422109   1.680   3.503   7.993 -0.2326  0.5589 -0.3680
  191POPC  H14X22110   1.570   3.504   7.981 -0.2473  0.0233 -0.2926
  191POPC  H14Y22111   1.707   3.567   8.079  0.5226  1.4100 -1.2133
  191POPC  C31522112   1.720   3.358   8.011 -1.0120  0.2798  0.6525
  191POPC  H15X22113   1.822   3.333   7.976 -1.5519 -0.8732 -0.2018
  191POPC  H15Y22114   1.657   3.307   7.934  0.7229  1.6920 -1.8649
  191POPC  C31622115   1.703   3.307   8.154 -0.5937 -0.8783  0.4720
  191POPC  H16X22116   1.769   3.219   8.168  1.1490 -0.0139 -1.7509
  191POPC  H16Y22117   1.596   3.287   8.178 -0.7867 -0.2213  0.1761
  191POPC  H16Z22118   1.738   3.391   8.217  1.1606  0.8427 -2.5721
  192POPC     N22119   4.837   5.491   6.079  0.1698  0.1316 -0.0417
  192POPC   C1222120   4.836   5.450   6.219  0.0200 -0.0373  0.1196
  192POPC  H12A22121   4.901   5.503   6.286 -0.9491 -0.7047  1.6532
  192POPC  H12B22122   4.890   5.356   6.226  0.2930  0.0654 -0.5343
  192POPC   C1322123   4.770   5.391   5.990  0.1949 -0.1963 -0.3336
  192POPC  H13A22124   4.717   5.433   5.906 -0.7586  3.2840  1.8062
  192POPC  H13B22125   4.838   5.313   5.961 -0.3594  0.0713 -2.4738
  192POPC  H13C22126   4.698   5.336   6.049 -0.4450 -0.1338 -1.0391
  192POPC   C1422127   4.770   5.627   6.059 -0.5283  0.1078 -0.4350
  192POPC  H14A22128   4.810   5.701   6.127  0.7949 -1.3027  0.3862
  192POPC  H14B22129   4.777   5.663   5.958  1.5330  1.7150  0.1990
  192POPC  H14C22130   4.664   5.618   6.077 -0.5593  1.0734 -0.0806
  192POPC   C1522131   4.978   5.494   6.026  0.1761 -0.0389 -0.1953
  192POPC  H15A22132   4.973   5.504   5.919  1.5823  1.8654 -0.1411
  192POPC  H15B22133   5.042   5.414   6.060  2.1835  2.1900  1.6050
  192POPC  H15C22134   5.037   5.575   6.067  0.7899 -1.4849  1.9704
  192POPC   C1122135   4.703   5.431   6.289  0.2199 -0.2179  0.2568
  192POPC  H11A22136   4.654   5.531   6.286 -0.0070 -0.3037  0.9509
  192POPC  H11B22137   4.715   5.400   6.395 -0.5042 -0.9318  0.1331
  192POPC     P22138   4.484   5.307   6.272  0.0861  0.2098 -0.0897
  192POPC   O1322139   4.447   5.166   6.272 -0.2230  0.1326 -0.0038
  192POPC   O1422140   4.393   5.390   6.189 -0.0672 -0.8272 -0.4935
  192POPC   O1222141   4.630   5.322   6.223  0.1312  0.0496  0.4162
  192POPC   O1122142   4.484   5.368   6.414 -0.0422 -0.1402  1.1217
  192POPC    C122143   4.505   5.296   6.534 -0.5466 -0.3223  0.3514
  192POPC    HA22144   4.605   5.248   6.522 -0.1237  0.7027 -0.4743
  192POPC    HB22145   4.420   5.230   6.561 -1.0319  0.8616  1.8443
  192POPC    C222146   4.502   5.402   6.648  0.2320 -0.3946  0.3496
  192POPC    HS22147   4.598   5.452   6.672  0.4661 -1.4249  1.6731
  192POPC   O2122148   4.446   5.339   6.769  0.3058 -0.0035 -0.0437
  192POPC   C2122149   4.516   5.238   6.815 -0.1473 -0.0255  0.7593
  192POPC   O2222150   4.626   5.200   6.776  0.4150 -0.5299 -0.6058
  192POPC   C2222151   4.446   5.185   6.937  0.3120  0.1815  0.3704
  192POPC   H2R22152   4.385   5.095   6.914  2.8593 -1.2185 -1.4656
  192POPC   H2S22153   4.387   5.274   6.965  1.0709  0.3702  1.4203
  192POPC    C322154   4.410   5.524   6.614 -0.6196  0.4027  0.9264
  192POPC    HX22155   4.311   5.478   6.591  0.1883 -1.0154  0.1298
  192POPC    HY22156   4.456   5.576   6.527 -0.9269  0.1992  0.6361
  192POPC   O3122157   4.413   5.618   6.727 -0.1454 -0.2360 -0.1382
  192POPC   C3122158   4.299   5.635   6.789 -0.0132  0.2749 -0.4408
  192POPC   O3222159   4.190   5.581   6.768  0.5832 -0.2912 -0.3279
  192POPC   C3222160   4.322   5.745   6.893 -0.0835 -1.0522  0.2993
  192POPC   H2X22161   4.316   5.836   6.830  0.2726 -1.8722 -0.9527
  192POPC   H2Y22162   4.425   5.734   6.934  1.3760  1.6772 -2.2383
  192POPC   C2322163   4.538   5.143   7.051  0.9420 -0.0251 -0.0631
  192POPC   H3R22164   4.620   5.077   7.015 -0.7229 -1.6089 -1.1284
  192POPC   H3S22165   4.471   5.075   7.109  2.4263 -0.0360  1.7203
  192POPC   C2422166   4.576   5.259   7.141 -0.9201 -0.4167  0.0614
  192POPC   H4R22167   4.485   5.321   7.154 -1.3949 -0.3921 -2.6912
  192POPC   H4S22168   4.656   5.314   7.086 -0.5559 -2.1789 -1.2750
  192POPC   C2522169   4.634   5.221   7.270  0.7119  0.2474  0.0198
  192POPC   H5R22170   4.702   5.301   7.307  1.9308  0.6250 -2.8571
  192POPC   H5S22171   4.700   5.134   7.257 -0.6083 -0.7982  0.0785
  192POPC   C2622172   4.527   5.201   7.380 -0.4713 -0.3435 -0.8922
  192POPC   H6R22173   4.449   5.133   7.340  0.5955 -1.8453 -0.4936
  192POPC   H6S22174   4.487   5.303   7.399 -0.4893 -0.5897  0.5606
  192POPC   C2722175   4.587   5.145   7.506 -0.5847 -0.2441 -0.1196
  192POPC   H7R22176   4.680   5.201   7.531 -1.1688 -0.1114  1.9162
  192POPC   H7S22177   4.613   5.038   7.487  0.7814  0.1410 -0.5462
  192POPC   C2822178   4.511   5.142   7.641  0.2107  0.3439 -0.5122
  192POPC   H8R22179   4.570   5.078   7.710 -2.0742 -2.7642 -1.2223
  192POPC   H8S22180   4.418   5.084   7.621 -0.9209  2.1479 -0.7190
  192POPC   C2922181   4.484   5.277   7.692 -0.2657 -0.1906  0.0124
  192POPC   H9122182   4.410   5.336   7.634  1.4075  1.9978 -0.0356
  192POPC  C21022183   4.523   5.331   7.812  0.3015 -0.1951  1.1802
  192POPC  H10122184   4.491   5.432   7.845 -2.1871 -0.2962 -0.6363
  192POPC  C21122185   4.607   5.261   7.915 -0.1805 -0.3887 -0.1349
  192POPC  H11R22186   4.707   5.306   7.904 -1.0097  1.8319  0.8346
  192POPC  H11S22187   4.614   5.150   7.906 -2.1742 -0.5243 -0.5474
  192POPC  C21222188   4.535   5.273   8.045  0.4878 -0.2048  0.7721
  192POPC  H12R22189   4.436   5.224   8.033 -1.1360  2.5620  1.9275
  192POPC  H12S22190   4.508   5.379   8.063  1.9952  0.5529 -1.0437
  192POPC  C21322191   4.620   5.235   8.163  0.2084  0.3623 -0.5335
  192POPC  H13R22192   4.719   5.285   8.153  0.6639 -0.6121 -1.0797
  192POPC  H13S22193   4.651   5.128   8.156  1.7331  0.7759 -0.3965
  192POPC  C21422194   4.550   5.266   8.295  0.0497 -0.2194 -0.0251
  192POPC  H14R22195   4.455   5.210   8.304  0.9149 -1.8376 -0.4338
  192POPC  H14S22196   4.542   5.376   8.306  4.2595  0.6091 -2.6542
  192POPC  C21522197   4.615   5.229   8.426  0.2508  0.2786  0.2074
  192POPC  H15R22198   4.715   5.277   8.428 -0.0903  1.0407 -0.5022
  192POPC  H15S22199   4.622   5.120   8.445  0.4708  0.2433 -0.0709
  192POPC  C21622200   4.542   5.292   8.540  0.1655 -0.7201 -0.2911
  192POPC  H16R22201   4.578   5.396   8.559 -0.8919 -0.3492 -0.2907
  192POPC  H16S22202   4.566   5.232   8.630  1.2378 -0.8809 -0.6574
  192POPC  C21722203   4.393   5.311   8.532  0.1477  0.2462 -0.4302
  192POPC  H17R22204   4.349   5.211   8.512 -0.8603  0.4371  0.7584
  192POPC  H17S22205   4.368   5.386   8.454  0.0630  0.1878 -0.4585
  192POPC  C21822206   4.343   5.351   8.672 -0.2416 -0.4224 -0.1628
  192POPC  H18R22207   4.236   5.323   8.682 -0.6516  1.0801 -0.1330
  192POPC  H18S22208   4.341   5.462   8.669 -0.6556 -0.4414 -0.8593
  192POPC  H18T22209   4.409   5.320   8.756  0.3429  0.0803 -0.4376
  192POPC   C3322210   4.202   5.754   6.998 -0.2024  0.7989  0.3603
  192POPC   H3X22211   4.176   5.657   7.044  2.9588 -0.7121 -0.6967
  192POPC   H3Y22212   4.113   5.791   6.943  0.9314  1.7277 -0.9472
  192POPC   C3422213   4.239   5.853   7.108 -0.1770  0.1502 -0.2944
  192POPC   H4X22214   4.155   5.896   7.166  1.4253  0.0670  2.2405
  192POPC   H4Y22215   4.297   5.933   7.058  0.2464 -0.4284 -0.7458
  192POPC   C3522216   4.337   5.786   7.208 -0.0399 -0.3245  0.1586
  192POPC   H5X22217   4.412   5.858   7.249  0.5348 -1.1671  0.6297
  192POPC   H5Y22218   4.402   5.706   7.166 -0.1630 -0.1496 -0.3671
  192POPC   C3622219   4.253   5.730   7.324 -1.2876  0.4631 -0.3928
  192POPC   H6X22220   4.192   5.649   7.279  0.4159  0.8981 -3.7968
  192POPC   H6Y22221   4.195   5.816   7.363 -0.8057 -0.6276  3.0712
  192POPC   C3722222   4.348   5.674   7.429 -0.2991  0.4204  0.0638
  192POPC   H7X22223   4.419   5.754   7.459  0.7659  0.2088 -1.7726
  192POPC   H7Y22224   4.400   5.585   7.387  0.0454  0.4254  0.4710
  192POPC   C3822225   4.282   5.615   7.555  0.8205 -0.3760  0.2688
  192POPC   H8X22226   4.300   5.507   7.574  0.8180  0.1281  3.7566
  192POPC   H8Y22227   4.173   5.630   7.542  0.6319 -1.1369  0.9022
  192POPC   C3922228   4.326   5.678   7.690 -0.1041 -0.1046 -0.0976
  192POPC   H9X22229   4.296   5.785   7.698 -0.4019 -0.3162  2.7133
  192POPC   H9Y22230   4.436   5.670   7.704 -0.1724 -2.1841 -0.4024
  192POPC  C31022231   4.251   5.603   7.807  0.1416 -0.6717 -0.0675
  192POPC  H10X22232   4.275   5.495   7.814 -0.3387 -0.8660 -1.2471
  192POPC  H10Y22233   4.143   5.601   7.782 -0.3656  0.7123  1.7668
  192POPC  C31122234   4.268   5.666   7.939  1.3728 -0.3638 -0.1310
  192POPC  H11X22235   4.206   5.757   7.953 -2.4137 -2.9455  1.4583
  192POPC  H11Y22236   4.375   5.697   7.946  0.8686  1.2779  0.7238
  192POPC  C31222237   4.246   5.566   8.059  0.4141 -0.4805  0.3177
  192POPC  H12X22238   4.259   5.459   8.033 -1.7222 -1.0646  1.3679
  192POPC  H12Y22239   4.138   5.573   8.083  0.5180 -1.7913  1.3455
  192POPC  C31322240   4.324   5.586   8.186  0.0424 -0.7081 -0.3307
  192POPC  H13X22241   4.429   5.549   8.189 -0.0194 -0.8970  2.9628
  192POPC  H13Y22242   4.272   5.535   8.269  0.1691 -2.3114 -1.1932
  192POPC  C31422243   4.329   5.740   8.226  0.6024 -0.1652 -0.1172
  192POPC  H14X22244   4.236   5.791   8.195 -0.3404 -1.4603  0.4974
  192POPC  H14Y22245   4.422   5.761   8.168  0.4494  0.4445 -0.1459
  192POPC  C31522246   4.333   5.760   8.382 -1.1152  0.1450  0.1306
  192POPC  H15X22247   4.243   5.720   8.434  1.4350 -1.3067  3.8338
  192POPC  H15Y22248   4.333   5.869   8.406  0.3249  0.2539 -0.2779
  192POPC  C31622249   4.462   5.710   8.454 -0.0635  0.1197  0.1741
  192POPC  H16X22250   4.471   5.742   8.560 -3.0745 -0.1271  0.5925
  192POPC  H16Y22251   4.551   5.749   8.399 -1.3868  1.7398 -0.9178
  192POPC  H16Z22252   4.458   5.599   8.455  2.3420 -0.0390  1.0633
  193SOD    SOD22253   6.410   3.067  11.142 -0.0878 -0.1335  0.4346
  194SOD    SOD22254   3.916   4.378   5.833  0.2552  0.1064 -0.0500
  195SOD    SOD22255   4.863   3.627   3.234  0.3281 -0.2953 -0.4705
  196SOD    SOD22256   6.592   0.987  16.103 -0.3801 -0.1448 -0.5451
  197SOD    SOD22257   1.750   2.377  11.571 -0.1099  0.0562 -0.6866
  198SOD    SOD22258   1.290   2.896   5.026  0.1365 -0.3876 -0.6894
  199SOD    SOD22259   5.468   4.078   4.774  0.1638  0.3769 -0.3352
  200SOD    SOD22260   2.338   6.496  12.095  0.1076  0.7880 -0.1979
  201SOD    SOD22261   6.231   6.722  16.309 -0.5992 -0.0802  0.5374
  202SOD    SOD22262   1.081   5.352  16.912  0.3435 -0.2215 -0.1006
  203SOD    SOD22263   0.101   0.596  11.394 -0.6485 -0.3103  0.1661
  204SOD    SOD22264   3.831   1.663  11.218 -0.6002  0.2437  0.4727
  205SOD    SOD22265   1.514   5.572   2.785 -0.1078  0.0251  0.3164
  206SOD    SOD22266   2.713   2.591   1.240  0.1993  0.0837  0.4391
  207SOD    SOD22267   4.898   0.686   4.817 -0.0931  0.3041 -0.0298
  208SOD    SOD22268   4.584   1.979  12.487  0.1418 -0.0291  0.1220
  209SOD    SOD22269   1.540   4.257   1.716  0.4999  0.4726  0.0969
  210SOD    SOD22270   6.194   6.608  15.516  0.1773  0.1130 -0.5341
  211SOD    SOD22271   5.744   4.489   5.442  0.2284 -0.0335 -0.0134
  212SOD    SOD22272   0.627   1.017   6.634  0.2914  0.0506 -0.0217
  213SOD    SOD22273   5.558   3.534   3.872 -0.3290  0.0831 -0.1835
  214SOD    SOD22274   1.936   1.915  12.901  0.0257 -0.1438 -0.2277
  215SOD    SOD22275   1.250   3.624  16.740  0.0213 -0.6876 -0.0980
  216SOD    SOD22276   4.478   0.882  12.528  0.1456 -0.2645  0.8071
  217SOD    SOD22277   3.114   4.877   5.051  0.3285 -0.0360 -0.0583
  218SOD    SOD22278   3.752   0.549  16.043  0.5469 -0.2447  0.1393
  219SOD    SOD22279   1.344   3.274  12.683  0.6537  0.1635  0.2021
  220SOD    SOD22280   4.478   5.484  13.259  0.4098  0.4829 -0.3574
  221SOD    SOD22281   2.220   0.112  14.669  0.0585  0.1303 -0.5033
  222SOD    SOD22282   0.989   1.491   5.544 -0.3017 -0.2829  0.0994
  223SOD    SOD22283   0.578   0.263  14.112 -0.0469  0.3006 -0.1148
  224SOD    SOD22284   3.247   0.581  12.550  0.6830 -0.4138 -0.3166
  225SOD    SOD22285   2.084   5.504   5.364 -0.6967 -0.4799  0.1684
  226SOD    SOD22286   4.513   0.295  14.392 -0.1052  0.8280 -0.0848
  227SOD    SOD22287   3.052   0.927   2.075 -0.1388 -0.4297  0.1484
  228SOD    SOD22288   4.766   6.594   1.970  0.1535  0.2204 -0.2513
  229SOD    SOD22289   1.655   2.684  16.541  0.2045 -0.5071  0.1924
  230SOD    SOD22290   4.825   5.061   3.583  0.4618  0.2261  0.3783
  231SOD    SOD22291   2.098   4.365  13.784  0.1260 -0.2494 -0.0287
  232SOD    SOD22292   2.176   4.262   1.517  0.1558 -0.3611 -0.0735
  233SOD    SOD22293   6.541   5.456   5.426  0.0059  0.1247  0.1244
  234SOD    SOD22294   3.758   5.901  16.945 -0.0989  0.2790 -0.0509
  235SOD    SOD22295   1.501   2.898   0.578  0.3318  0.4754 -0.8825
  236SOD    SOD22296   0.512   2.196   2.380  0.1782  0.0490  0.0642
  237SOD    SOD22297   5.479   2.336   4.823  0.6884 -0.1722 -0.3710
  238SOD    SOD22298   1.105   1.104  11.758 -0.8339 -0.2350  0.2263
  239SOD    SOD22299   6.137   2.745  14.872 -0.2002  0.1980  0.2589
  240SOD    SOD22300   3.274   3.057  13.579  0.2277  0.4352  0.1686
  241SOD    SOD22301   5.020   2.470   2.785 -0.0200 -0.4964 -0.1147
  242SOD    SOD22302   0.056   3.110  16.816  0.0801 -0.1680  0.2867
  243SOD    SOD22303   1.083   3.231   5.752 -0.2558 -0.2260  0.1689
  244SOD    SOD22304   0.108   3.221  14.990 -0.3082 -0.3573  0.6458
  245SOD    SOD22305   2.240   4.491   4.102 -0.2249  0.0037 -0.5239
  246SOD    SOD22306   5.662   2.373   6.130  0.0955 -0.0482 -0.3998
  247SOD    SOD22307   3.304   5.852  15.321  0.5303  0.1792  0.4049
  248SOD    SOD22308   0.359   2.215   4.952 -0.1063  0.1124 -0.6375
  249SOD    SOD22309   1.483   4.279  14.374  0.1832 -0.3288  0.0403
  250SOD    SOD22310   5.852   0.645   4.086 -0.7039 -0.1215 -0.4494
  251SOD    SOD22311   5.668   2.385   1.522  0.1789  0.2665 -0.2250
  252SOD    SOD22312   3.511   1.331   1.511  0.5375 -0.5033  0.1142
  253SOD    SOD22313   5.939   4.134   5.863 -0.4884 -0.2120 -0.1785
  254SOD    SOD22314   4.774   0.109   0.990 -0.4480 -0.0870 -0.1225
  255SOD    SOD22315   0.840   5.088  12.085  0.5016  0.4614  0.0921
  256SOD    SOD22316   0.317   1.975  15.228 -0.0801  0.1859  0.6760
  257SOD    SOD22317   0.868   5.750   5.229  0.4711 -0.0472  0.1924
  258SOD    SOD22318   0.252   1.518  16.536  0.1352  0.0161  0.7433
  259SOD    SOD22319   3.659   4.572  12.863 -0.1271 -0.1174  0.0146
  260SOD    SOD22320   5.081   1.270  16.112  0.0499  0.1854 -0.1769
  261SOD    SOD22321   1.419   5.953  11.304 -0.9009  0.0755  0.0762
  262SOD    SOD22322   6.707   0.459   0.477 -0.7199  0.0895 -0.3257
  263SOD    SOD22323   2.729   4.286   0.425 -0.0633 -0.1439  0.4045
  264SOD    SOD22324   3.994   6.464   3.329 -0.3669  0.2949 -0.7045
  265SOD    SOD22325   5.311   5.720  11.673  0.0525  0.4594 -0.3745
  266SOD    SOD22326   5.488   3.369  12.221 -0.2854 -0.0169  0.5807
  267SOD    SOD22327   1.530   3.811   0.430 -0.1386 -0.0865  0.0178
  268SOD    SOD22328   3.217   2.001  15.747 -0.0453  0.0359  0.1980
  269SOD    SOD22329   5.879   4.501   0.394 -0.0897  0.2250 -0.0917
  270CLA    CLA22330   1.860   4.620   4.490  0.1624  0.2445  0.2325
  271CLA    CLA22331   1.561   0.246  14.702 -0.2590  0.1179 -0.3218
  272CLA    CLA22332   2.252   1.684   1.235 -0.0193 -0.0069 -0.1098
  273CLA    CLA22333   5.725   5.256  14.864  0.2953 -0.1171  0.5494
  274CLA    CLA22334   1.911   1.243  12.706 -0.2134  0.1877  0.0538
  275CLA    CLA22335   5.811   1.210   4.215  0.5032 -0.0086 -0.3179
  276CLA    CLA22336   4.320   0.497  16.053  0.1419  0.2842  0.0223
  277CLA    CLA22337   3.399   2.362   3.495  0.1297 -0.1457  0.3985
  278CLA    CLA22338   2.088   3.865  17.130 -0.1352 -0.3419  0.0818
  279CLA    CLA22339   0.195   2.241  17.228 -0.2796  0.3397  0.2523
  280CLA    CLA22340   4.447   2.247   2.205  0.2784 -0.0738 -0.4091
  281CLA    CLA22341   2.571   0.234  13.528 -0.2642  0.1578 -0.1371
  282CLA    CLA22342   1.916   4.226   1.468  0.0475 -0.1873 -0.0336
  283CLA    CLA22343   0.277   2.995  16.919  0.0995  0.0487  0.1564
  284CLA    CLA22344   3.248   6.329  13.101 -0.0573 -0.4065  0.2252
  285CLA    CLA22345   1.024   2.371   0.854  0.0551 -0.0214 -0.0493
  286CLA    CLA22346   5.030   4.825   5.609 -0.0911 -0.2959  0.1975
  287CLA    CLA22347   5.912   1.723  13.761  0.2908  0.1271  0.4684
  288CLA    CLA22348   4.739   5.133   4.473 -0.3928  0.0146 -0.1490
  289CLA    CLA22349   2.249   3.692   4.258  0.1004  0.0652 -0.5714
  290CLA    CLA22350   3.465   5.642  15.389  0.0309 -0.1937 -0.2796
  291CLA    CLA22351   0.647   5.063   4.779 -0.1002  0.2928 -0.0889
  292CLA    CLA22352   0.275   0.470   0.764 -0.3746 -0.3091 -0.0322
  293CLA    CLA22353   4.440   1.503  12.886  0.1016  0.0873 -0.1943
  294CLA    CLA22354   5.063   0.039  16.569 -0.1120  0.3646  0.1530
  295CLA    CLA22355   3.112   0.506  14.435  0.1075  0.1499  0.3750
  296CLA    CLA22356   5.190   1.462  13.865  0.3585  0.1107  0.0538
  297CLA    CLA22357   0.726   4.602  15.210  0.1146  0.2759 -0.0969
  298CLA    CLA22358   3.894   3.542  15.819 -0.0472  0.2850 -0.0734
  299CLA    CLA22359   4.440   4.775  15.399  0.2572  0.2482  0.0545
  300CLA    CLA22360   1.478   5.660  15.721  0.1219 -0.0621  0.2834
  301CLA    CLA22361   5.345   4.032   4.277  0.1419  0.3658  0.0116
  302CLA    CLA22362   1.905   4.198  13.904 -0.2389  0.2848  0.2011
  303CLA    CLA22363   5.359   5.696  14.519 -0.0342 -0.8285 -0.3405
  304CLA    CLA22364   1.132   5.611  13.599 -0.3205 -0.2676 -0.2528
  305CLA    CLA22365   4.589   3.742   0.752  0.4694 -0.2288 -0.1135
  306CLA    CLA22366   2.707   0.282   5.907 -0.0447  0.0121 -0.4456
  307CLA    CLA22367   0.525   2.196   3.283  0.3139  0.0726  0.0610
  308CLA    CLA22368   3.910   1.232   2.505  0.0898 -0.6562  0.1900
  309CLA    CLA22369   4.188   6.536   1.986 -0.0488  0.1469  0.3200
  310CLA    CLA22370   6.685   1.338  16.983  0.5916  0.2278  0.0690
  311CLA    CLA22371   3.392   1.423  12.585  0.3243 -0.2452 -0.2322
  312CLA    CLA22372   3.508   0.562   2.648 -0.0678 -0.0163  0.6374
  313CLA    CLA22373   6.606   5.355  16.731  0.1398 -0.1452 -0.2639
  314CLA    CLA22374   2.039   2.621  16.291  0.2198 -0.0734  0.1562
  315CLA    CLA22375   0.406   4.613   1.419  0.7206 -0.0632 -0.4012
  316CLA    CLA22376   6.282   0.186  15.872  0.0072  0.0120 -0.0824
  317CLA    CLA22377   3.534   1.772   2.468  0.2740 -0.4567 -0.4881
  318CLA    CLA22378   2.902   5.181   0.730  0.2965 -0.1839 -0.1186
  319CLA    CLA22379   3.589   0.471  16.559 -0.3863  0.3105 -0.1775
  320CLA    CLA22380   6.255   2.092  13.753  0.0291 -0.1414  0.1520
  321CLA    CLA22381   4.243   1.444   4.256  0.0981 -0.3880  0.2095
  322CLA    CLA22382   4.916   4.486   2.955  0.0721  0.1050  0.0254
  323TIP3   OH222383   3.889   5.713   3.522 -0.2588  0.0401 -0.6130
  323TIP3    H122384   3.966   5.769   3.534 -0.7550  1.0181 -1.6921
  323TIP3    H222385   3.900   5.641   3.584  0.7951  0.9366  0.2705
  324TIP3   OH222386   5.288   6.141  11.495 -0.8559 -0.2776 -0.1318
  324TIP3    H122387   5.323   6.218  11.541 -2.6715  0.7167 -0.2941
  324TIP3    H222388   5.325   6.147  11.407  0.5447 -0.7112  0.3997
  325TIP3   OH222389   1.855   0.241   4.340  0.3753  0.0323  0.1684
  325TIP3    H122390   1.884   0.323   4.378  0.2772  0.1278  0.0382
  325TIP3    H222391   1.824   0.189   4.414 -0.5666  0.5200  0.1373
  326TIP3   OH222392   5.793   4.304  14.259 -0.0029 -0.3666  0.2501
  326TIP3    H122393   5.826   4.388  14.293  1.2384 -1.4121  1.7586
  326TIP3    H222394   5.854   4.281  14.189 -0.1726 -0.1691  0.0339
  327TIP3   OH222395   5.262   0.145  11.515  0.3828  0.1965 -0.5935
  327TIP3    H122396   5.321   0.218  11.496 -0.0631  1.0566  1.1543
  327TIP3    H222397   5.200   0.180  11.579 -0.4080 -1.4561 -0.4052
  328TIP3   OH222398   3.432   5.311   1.175 -0.1442  0.1651  0.1940
  328TIP3    H122399   3.342   5.278   1.176 -0.6345  1.3996 -0.5432
  328TIP3    H222400   3.480   5.254   1.235 -1.3992 -0.5700  0.5212
  329TIP3   OH222401   5.518   0.400  15.778  0.1080 -0.2747  0.1157
  329TIP3    H122402   5.530   0.309  15.752  1.7715  0.3728 -1.6795
  329TIP3    H222403   5.426   0.420  15.756 -0.4504 -1.6528  1.1129
  330TIP3   OH222404   0.345   6.063   4.419 -0.2092 -0.5747  0.0826
  330TIP3    H122405   0.280   6.133   4.417 -2.1533 -2.1639  2.1483
  330TIP3    H222406   0.429   6.108   4.411 -1.4636  1.7203 -1.1083
  331TIP3   OH222407   4.409   4.711   1.704 -0.0544  0.1944 -0.1468
  331TIP3    H122408   4.438   4.626   1.669  0.3467  0.9683 -1.7943
  331TIP3    H222409   4.315   4.699   1.721  0.1676 -0.8223  0.4540
  332TIP3   OH222410   2.527   6.633  11.649  0.0821 -0.0737 -0.1080
  332TIP3    H122411   2.593   6.699  11.667 -0.0369  0.0150  0.0049
  332TIP3    H222412   2.560   6.586  11.573 -0.3870  0.8779 -0.9234
  333TIP3   OH222413   5.214   1.150   4.856  0.5661  0.6629  0.3234
  333TIP3    H122414   5.210   1.160   4.951  0.7767 -0.4191  0.4671
  333TIP3    H222415   5.217   1.239   4.822  0.3072  1.0687  1.3217
  334TIP3   OH222416   3.510   2.021   5.462 -0.6221  0.4772  0.2709
  334TIP3    H122417   3.421   2.012   5.427  0.4349 -1.7280 -2.1867
  334TIP3    H222418   3.561   2.055   5.389  0.7765  0.6373  1.2879
  335TIP3   OH222419   4.594   6.632   2.833 -0.1130 -0.3770 -0.1427
  335TIP3    H122420   4.643   6.563   2.879  0.9851  2.5588  3.6273
  335TIP3    H222421   4.503   6.617   2.860  0.1723 -0.1902  1.0016
  336TIP3   OH222422   6.459   1.250   4.055  0.2630  0.0889  0.3393
  336TIP3    H122423   6.372   1.285   4.074  0.2143  0.3442 -0.3222
  336TIP3    H222424   6.456   1.229   3.962 -0.4265 -3.6994  1.0692
  337TIP3   OH222425   5.051   6.433  13.098 -0.6151 -0.0611 -0.0646
  337TIP3    H122426   5.124   6.473  13.146  0.6386  0.1899 -2.0260
  337TIP3    H222427   5.030   6.354  13.147  1.5250 -0.5375  0.1917
  338TIP3   OH222428   0.163   4.933  15.480  0.3620 -0.2954  0.3884
  338TIP3    H122429   0.087   4.962  15.531 -0.7138 -1.0782 -0.7340
  338TIP3    H222430   0.141   4.845  15.451 -0.3740  1.0232 -3.7699
  339TIP3   OH222431   0.898   1.547  16.133  1.2115 -0.1297  0.2160
  339TIP3    H122432   0.977   1.548  16.186  1.6073  2.2430 -0.2938
  339TIP3    H222433   0.855   1.631  16.152 -0.5292 -0.8073 -0.4802
  340TIP3   OH222434   4.914   1.153   6.466  0.2206  0.2331  0.4095
  340TIP3    H122435   4.831   1.113   6.494 -0.3345  1.5877  0.7949
  340TIP3    H222436   4.911   1.151   6.371  0.3988 -1.0075  0.4194
  341TIP3   OH222437   0.131   1.516  13.548  0.6340  0.1608  0.0461
  341TIP3    H122438   0.170   1.577  13.486  0.6206  0.7493  0.6059
  341TIP3    H222439   0.037   1.532  13.542  0.5694 -0.3392 -0.3517
  342TIP3   OH222440   2.391   6.191  15.777  0.2180 -0.1183  0.7130
  342TIP3    H122441   2.425   6.219  15.862 -0.8146  2.0013  0.5078
  342TIP3    H222442   2.461   6.138  15.739  0.9896 -0.4991  2.5510
  343TIP3   OH222443   3.379   5.465   4.415  0.2824  0.8242 -0.1429
  343TIP3    H122444   3.466   5.426   4.430  0.5107  1.0759 -0.7782
  343TIP3    H222445   3.327   5.435   4.490  0.3284 -1.0626 -0.8120
  344TIP3   OH222446   5.869   3.838  14.909 -0.8047  0.1958 -0.4810
  344TIP3    H122447   5.825   3.760  14.944  0.4273 -0.2304  0.1947
  344TIP3    H222448   5.835   3.910  14.961 -0.7391 -0.1296  0.0297
  345TIP3   OH222449   1.631   6.561   0.913 -0.1556 -0.4500 -0.1728
  345TIP3    H122450   1.550   6.582   0.959 -0.7972 -0.8318 -1.1223
  345TIP3    H222451   1.679   6.644   0.913  0.5969 -0.7802  2.5565
  346TIP3   OH222452   1.052   5.233   5.035 -0.3328  0.0255 -0.3638
  346TIP3    H122453   0.967   5.196   5.055 -0.1393 -1.4172 -1.9958
  346TIP3    H222454   1.099   5.233   5.119 -1.5757 -0.0585  0.3498
  347TIP3   OH222455   5.206   6.704   4.632 -0.2464 -0.2534  0.2265
  347TIP3    H122456   5.208   6.775   4.568  0.8532 -0.9657 -0.5727
  347TIP3    H222457   5.272   6.729   4.697 -0.3047 -0.2488  0.2844
  348TIP3   OH222458   4.950   5.143  11.126 -0.7767  0.0191 -0.2147
  348TIP3    H122459   4.983   5.199  11.196 -1.7787 -0.9879  1.1292
  348TIP3    H222460   4.855   5.146  11.136 -0.8733 -1.6359 -0.2851
  349TIP3   OH222461   6.240   1.667   3.981  0.1745 -0.2353 -0.4358
  349TIP3    H122462   6.171   1.641   3.919  0.8445 -1.9855 -0.4844
  349TIP3    H222463   6.266   1.755   3.952 -0.6121 -0.3871 -1.6738
  350TIP3   OH222464   0.368   5.754   3.073 -0.0188 -0.3519 -0.3848
  350TIP3    H122465   0.328   5.681   3.025  0.3398 -0.5232 -0.4239
  350TIP3    H222466   0.319   5.831   3.043 -1.1655 -0.6996  0.4954
  351TIP3   OH222467   4.576   6.160   1.528  0.0666  0.0237  0.4589
  351TIP3    H122468   4.591   6.240   1.578 -0.0940 -1.5525  3.2408
  351TIP3    H222469   4.501   6.119   1.572 -0.8021 -0.9570 -1.8239
  352TIP3   OH222470   5.570   4.326   3.687  0.5068 -0.0766 -0.5315
  352TIP3    H122471   5.539   4.379   3.761 -1.2600 -1.3362 -0.3140
  352TIP3    H222472   5.524   4.363   3.611 -1.0509 -1.4408 -0.3237
  353TIP3   OH222473   2.537   3.585   0.713  0.2820 -0.1379  0.0034
  353TIP3    H122474   2.482   3.513   0.682  1.1303 -0.5486 -0.5973
  353TIP3    H222475   2.519   3.657   0.652 -1.1590  0.4396  1.0766
  354TIP3   OH222476   0.799   2.828   0.225  0.0443 -0.0675 -0.1594
  354TIP3    H122477   0.722   2.854   0.276  0.4756  0.1153  0.4197
  354TIP3    H222478   0.854   2.907   0.223  0.2472 -0.2175 -0.5001
  355TIP3   OH222479   0.096   4.374  14.494  0.5468 -0.3463 -0.0286
  355TIP3    H122480   0.067   4.298  14.544 -0.2017  0.2555  0.4903
  355TIP3    H222481   0.191   4.369  14.495  0.5057 -1.2910 -0.0377
  356TIP3   OH222482   5.946   5.281  14.005  0.2024 -0.1118 -0.1016
  356TIP3    H122483   5.891   5.214  13.965 -0.7960  1.2597 -1.1173
  356TIP3    H222484   6.035   5.259  13.978  0.1875 -2.1659  1.2750
  357TIP3   OH222485   1.628   1.202   3.181  0.6350 -0.3374  0.4472
  357TIP3    H122486   1.633   1.186   3.087 -0.5406 -1.1155  0.4965
  357TIP3    H222487   1.556   1.264   3.191  0.2445 -0.8602  0.8998
  358TIP3   OH222488   6.364   6.466   2.614  0.2903 -0.0502  0.0379
  358TIP3    H122489   6.296   6.477   2.681  0.3159  2.2664 -0.2284
  358TIP3    H222490   6.446   6.462   2.663  0.2503  0.9311  0.2035
  359TIP3   OH222491   3.077   1.420  12.636 -0.6301  0.4914  0.5523
  359TIP3    H122492   3.169   1.449  12.633 -0.7446  0.7707 -1.3200
  359TIP3    H222493   3.049   1.439  12.726  1.3449 -0.2818  1.3826
  360TIP3   OH222494   0.833   6.654   1.588 -0.5896  0.0137  0.1072
  360TIP3    H122495   0.874   6.584   1.638  1.7372  2.5169  1.9940
  360TIP3    H222496   0.844   6.628   1.497  1.7230 -1.2899  0.6751
  361TIP3   OH222497   3.491   2.520  11.788  0.2964 -0.2622 -0.2630
  361TIP3    H122498   3.541   2.599  11.812  0.4570 -0.6624  0.7728
  361TIP3    H222499   3.530   2.451  11.841 -2.1508 -0.3802  1.5494
  362TIP3   OH222500   2.139   6.265  16.294 -0.5322 -0.0187  0.1722
  362TIP3    H122501   2.215   6.320  16.313  1.1515 -2.1615 -0.0080
  362TIP3    H222502   2.106   6.239  16.379 -1.1875  1.0035  0.2539
  363TIP3   OH222503   4.673   0.113   2.191 -0.3237 -0.0352 -0.0528
  363TIP3    H122504   4.694   0.023   2.215 -1.0262 -0.4214 -0.8552
  363TIP3    H222505   4.647   0.154   2.274  0.9536 -0.2699  0.4893
  364TIP3   OH222506   3.408   0.324   4.706  0.0711  1.0949 -0.2625
  364TIP3    H122507   3.468   0.366   4.767 -1.1649 -0.7190  2.3696
  364TIP3    H222508   3.330   0.379   4.707  0.2638  1.3815 -0.6951
  365TIP3   OH222509   5.088   1.625  14.896  0.0294  0.0872 -0.0787
  365TIP3    H122510   5.128   1.712  14.896 -2.0164  1.0755  0.4451
  365TIP3    H222511   5.075   1.604  14.803 -0.5696  0.8707 -0.1724
  366TIP3   OH222512   3.304   2.079  17.389  0.4161  0.0076  0.2664
  366TIP3    H122513   3.224   2.130  17.378  0.2245 -0.3355  0.0266
  366TIP3    H222514   3.337   2.104  17.475 -1.6911 -2.2234  1.8567
  367TIP3   OH222515   5.711   6.068  10.540  0.1497  0.0666  0.1995
  367TIP3    H122516   5.674   6.118  10.613  1.3849  0.9636  0.2448
  367TIP3    H222517   5.636   6.053  10.482 -0.8908 -0.8123  1.7022
  368TIP3   OH222518   1.111   5.771   5.760  0.1284  0.1875  0.5807
  368TIP3    H122519   1.110   5.865   5.742  0.5764  0.1019  0.0866
  368TIP3    H222520   1.181   5.737   5.704 -0.9457 -0.6542 -0.2760
  369TIP3   OH222521   0.031   0.606  14.947  0.4742 -0.0579 -0.1083
  369TIP3    H122522   0.003   0.673  15.009  0.7507 -1.4313  1.5877
  369TIP3    H222523   0.004   0.639  14.861 -1.2844  1.2266  0.8777
  370TIP3   OH222524   4.476   5.989   4.234  0.2674 -0.3710  0.1958
  370TIP3    H122525   4.548   5.986   4.298 -0.7196 -0.3970  1.3278
  370TIP3    H222526   4.471   6.081   4.208  1.7931 -0.6261 -1.1923
  371TIP3   OH222527   5.625   3.617   1.239  1.0857  0.3048  0.0468
  371TIP3    H122528   5.683   3.569   1.179  1.6342  1.0656 -0.0511
  371TIP3    H222529   5.616   3.703   1.198 -0.6492 -0.0025 -0.2749
  372TIP3   OH222530   4.815   3.047   6.156  0.0552 -0.0562  0.6386
  372TIP3    H122531   4.850   3.000   6.081  0.0181  1.3361 -0.2801
  372TIP3    H222532   4.798   2.979   6.222 -1.0011 -1.4616 -1.0074
  373TIP3   OH222533   3.433   0.339   3.232  0.1474  0.4194  0.5911
  373TIP3    H122534   3.379   0.398   3.180  0.8903  0.2268 -0.4193
  373TIP3    H222535   3.484   0.396   3.288  0.3869  0.7036  0.0845
  374TIP3   OH222536   6.155   5.065   0.198 -0.0820 -0.0917  0.0473
  374TIP3    H122537   6.124   5.114   0.274  0.5280 -0.2040  0.3730
  374TIP3    H222538   6.250   5.063   0.207 -0.0916 -1.2992  0.0298
  375TIP3   OH222539   4.591   3.728  16.367  0.4369  0.2944  0.2504
  375TIP3    H122540   4.574   3.805  16.422  0.8582  0.0348  0.7552
  375TIP3    H222541   4.549   3.656  16.413 -0.0426  0.2313 -0.2741
  376TIP3   OH222542   1.251   2.875  11.191  0.1487  0.2100 -0.3697
  376TIP3    H122543   1.254   2.967  11.163 -0.9072 -0.0765 -1.5400
  376TIP3    H222544   1.338   2.841  11.171  0.6362  1.0134  0.3291
  377TIP3   OH222545   4.030   5.261  17.043 -0.4327 -0.0414  0.0447
  377TIP3    H122546   4.077   5.200  17.101  0.7155  1.6964  1.0317
  377TIP3    H222547   3.938   5.250  17.067  0.0609  1.1925  2.8856
  378TIP3   OH222548   2.542   6.379  12.818  0.0421  0.1700  0.5616
  378TIP3    H122549   2.555   6.466  12.856  1.6053  1.6240 -2.8406
  378TIP3    H222550   2.447   6.366  12.821 -0.3369  2.4179  0.4604
  379TIP3   OH222551   5.414   6.413   3.646  0.0575 -0.2368 -0.3327
  379TIP3    H122552   5.408   6.335   3.700 -2.7665 -0.6927 -1.1407
  379TIP3    H222553   5.331   6.459   3.660  0.1576  0.7602 -2.5431
  380TIP3   OH222554   3.345   5.369  16.457  0.3280 -0.3040  0.3946
  380TIP3    H122555   3.274   5.415  16.502  0.3963 -0.7489  0.9760
  380TIP3    H222556   3.326   5.380  16.364 -1.9520 -2.5392  0.4767
  381TIP3   OH222557   3.180   0.561  11.394 -0.1717 -0.2563  0.0355
  381TIP3    H122558   3.264   0.603  11.414 -0.4000  0.6105 -0.7476
  381TIP3    H222559   3.141   0.617  11.327 -1.3534 -0.6861  0.3463
  382TIP3   OH222560   3.855   4.552  11.293  0.5422 -0.0624  0.3571
  382TIP3    H122561   3.898   4.538  11.377 -1.2660 -0.1105  1.3226
  382TIP3    H222562   3.800   4.629  11.306 -0.0307 -0.2717 -0.6806
  383TIP3   OH222563   1.174   0.637  14.436  0.2951 -0.0804  0.2917
  383TIP3    H122564   1.130   0.566  14.482 -1.0959 -0.0308 -0.8751
  383TIP3    H222565   1.111   0.709  14.436  1.9179  1.4461  2.0267
  384TIP3   OH222566   5.321   6.555  12.533  0.1329  0.3045  0.3156
  384TIP3    H122567   5.265   6.480  12.554 -0.8338  0.5923 -1.1258
  384TIP3    H222568   5.271   6.631  12.560  2.0911  0.4900  4.0750
  385TIP3   OH222569   6.663   4.111  11.592 -0.1665 -0.1144 -0.5195
  385TIP3    H122570   6.599   4.041  11.604 -0.1397 -0.4435 -2.1162
  385TIP3    H222571   6.729   4.074  11.534  0.7357  0.6924 -0.0462
  386TIP3   OH222572   1.342   6.165  17.032  0.2553 -0.4498 -0.0683
  386TIP3    H122573   1.258   6.203  17.055 -0.3205 -0.3128 -2.1437
  386TIP3    H222574   1.329   6.071  17.038 -0.1656 -0.4388 -0.6469
  387TIP3   OH222575   2.842   0.744  16.056  0.2554 -0.6512  0.6970
  387TIP3    H122576   2.754   0.778  16.042  1.2403  0.8536 -3.2244
  387TIP3    H222577   2.829   0.651  16.075 -2.1897 -1.0176 -2.0774
  388TIP3   OH222578   4.923   1.038   4.553  0.4698  0.4921 -0.3722
  388TIP3    H122579   4.851   0.984   4.521  0.3974  0.6822 -0.5289
  388TIP3    H222580   4.886   1.126   4.563 -0.3418 -0.0754  3.0121
  389TIP3   OH222581   6.163   5.107   4.689 -0.1572  0.1537  0.1491
  389TIP3    H122582   6.090   5.093   4.750 -1.5126  2.3446 -0.8722
  389TIP3    H222583   6.224   5.163   4.738  1.3465 -2.2932  1.2880
  390TIP3   OH222584   3.673   4.483  16.078 -0.3570  0.4547 -0.2325
  390TIP3    H122585   3.679   4.532  15.996 -0.9088  1.2918  0.2118
  390TIP3    H222586   3.629   4.542  16.138 -0.2158 -0.2578  0.5943
  391TIP3   OH222587   0.236   2.806   4.287  0.2206  0.1193  0.2077
  391TIP3    H122588   0.253   2.714   4.308  1.0244 -0.1841 -1.6324
  391TIP3    H222589   0.323   2.845   4.277 -0.1151  1.0624  0.7795
  392TIP3   OH222590   0.928   3.136  10.291 -0.0145 -0.8630 -0.2622
  392TIP3    H122591   0.904   3.049  10.259 -0.4713 -0.4795 -0.9853
  392TIP3    H222592   0.847   3.171  10.329 -0.3998  0.0557 -1.8460
  393TIP3   OH222593   4.135   3.263   2.804  0.0933  0.1626 -0.0137
  393TIP3    H122594   4.204   3.322   2.836  0.3098 -1.1873  2.2636
  393TIP3    H222595   4.182   3.186   2.773 -0.2739  0.3918 -1.1568
  394TIP3   OH222596   3.240   0.513   5.780 -0.3149  0.7216 -0.5839
  394TIP3    H122597   3.319   0.465   5.804 -0.2552  0.9329 -0.3587
  394TIP3    H222598   3.235   0.586   5.842 -0.2774  1.1475 -1.0709
  395TIP3   OH222599   6.711   6.133  16.692 -0.0171  0.1326  0.0643
  395TIP3    H122600   6.621   6.102  16.685 -0.2065  0.2970  1.3627
  395TIP3    H222601   6.754   6.068  16.747  0.0516  1.1768  1.3140
  396TIP3   OH222602   2.962   5.967   2.959 -0.2198 -0.1646 -0.2333
  396TIP3    H122603   2.879   5.929   2.988 -0.6523  0.4732 -0.6246
  396TIP3    H222604   2.999   5.900   2.901  0.9868 -1.7630  2.2506
  397TIP3   OH222605   5.253   1.566   1.172 -0.4431  0.6014 -0.3565
  397TIP3    H122606   5.259   1.541   1.080 -1.6922  0.7573 -0.4980
  397TIP3    H222607   5.161   1.552   1.195 -0.1252  0.4266  0.9120
  398TIP3   OH222608   6.315   1.745   0.037 -0.1872  0.3873  0.3171
  398TIP3    H122609   6.361   1.705   0.110  0.8550  1.2738  0.1772
  398TIP3    H222610   6.378   1.807   0.000 -1.7961  2.3692  0.7135
  399TIP3   OH222611   4.970   2.112   4.335  0.0442 -0.1593  0.6881
  399TIP3    H122612   5.065   2.120   4.329  0.3032 -2.0203  1.5282
  399TIP3    H222613   4.954   2.065   4.417 -1.4479 -1.5934 -0.3402
  400TIP3   OH222614   3.988   0.292  16.968  0.1620  0.0932 -0.1399
  400TIP3    H122615   3.940   0.371  16.993 -0.6701 -0.8180  1.3012
  400TIP3    H222616   4.076   0.305  17.005  0.7699  1.3255 -1.9182
  401TIP3   OH222617   2.718   3.141   2.283  0.3599 -0.3866  0.2484
  401TIP3    H122618   2.811   3.160   2.283  0.3114 -0.1365  0.1649
  401TIP3    H222619   2.712   3.046   2.283  0.6148 -0.4026  0.1434
  402TIP3   OH222620   1.099   3.580  15.218  0.5745  0.5593 -0.6196
  402TIP3    H122621   1.162   3.647  15.194  1.0398  0.2234 -0.3515
  402TIP3    H222622   1.018   3.606  15.175  0.7993  1.1939 -0.6646
  403TIP3   OH222623   6.474   3.330  16.005  0.5394 -0.7577  0.1240
  403TIP3    H122624   6.431   3.269  16.065  0.8919  0.2391  1.4183
  403TIP3    H222625   6.495   3.406  16.058  1.0606  0.0799 -1.2236
  404TIP3   OH222626   2.779   4.646  15.293  0.1029  0.5510  0.3917
  404TIP3    H122627   2.741   4.680  15.374  1.0264  0.2902  0.9488
  404TIP3    H222628   2.798   4.554  15.313  0.3515  0.4928 -0.1087
  405TIP3   OH222629   5.498   0.177  15.241  0.5999 -0.2307  0.0377
  405TIP3    H122630   5.406   0.153  15.243  0.8297 -1.3502 -1.4226
  405TIP3    H222631   5.498   0.267  15.209  0.0443 -0.3954 -0.4396
  406TIP3   OH222632   0.332   4.581   4.002 -0.0050  0.4454  0.4046
  406TIP3    H122633   0.284   4.539   4.074 -0.6970 -0.6669 -0.6572
  406TIP3    H222634   0.318   4.674   4.015 -1.4562  0.2006  0.8250
  407TIP3   OH222635   5.249   4.038   5.299  0.0205  0.1013 -0.2432
  407TIP3    H122636   5.328   3.991   5.325  0.3394  0.8916  0.2549
  407TIP3    H222637   5.201   3.976   5.244  1.5634  0.0355 -1.5826
  408TIP3   OH222638   1.727   6.553   3.266  0.3999 -0.0447 -0.6337
  408TIP3    H122639   1.741   6.647   3.275 -1.7709  0.3406 -0.6979
  408TIP3    H222640   1.787   6.526   3.196 -0.0581  1.6186 -1.7263
  409TIP3   OH222641   1.105   0.410  14.585  0.6831 -0.2648 -0.1784
  409TIP3    H122642   1.131   0.348  14.517  3.3959  2.5963 -1.9727
  409TIP3    H222643   1.166   0.393  14.657  1.1750  0.0306 -0.5185
  410TIP3   OH222644   1.047   6.271  12.111 -0.6805 -0.6809  0.3240
  410TIP3    H122645   1.135   6.273  12.073 -0.1834  0.1878  1.4250
  410TIP3    H222646   0.992   6.314  12.046  0.0274  0.2325  0.3012
  411TIP3   OH222647   0.848   3.972  15.988 -0.2408 -0.6572 -0.3280
  411TIP3    H122648   0.932   4.014  15.969 -0.7026  0.1720 -0.5983
  411TIP3    H222649   0.789   4.044  16.009 -0.9380 -1.2108 -0.3334
  412TIP3   OH222650   5.741   4.263  17.184 -1.0757  0.3353 -0.3530
  412TIP3    H122651   5.714   4.274  17.092 -1.8278  0.9937 -0.0765
  412TIP3    H222652   5.830   4.297  17.187 -0.9116 -0.0403 -0.9199
  413TIP3   OH222653   6.376   3.787  15.056  0.1203  0.8875  0.5272
  413TIP3    H122654   6.397   3.880  15.060  0.2780  0.8028  2.3772
  413TIP3    H222655   6.281   3.783  15.052  0.1552  1.1336 -1.0499
  414TIP3   OH222656   2.630   4.139  16.947 -0.1407  0.7938 -0.3150
  414TIP3    H122657   2.573   4.071  16.913  0.1733  0.3208  0.0891
  414TIP3    H222658   2.653   4.191  16.870  0.9596 -0.5445 -0.9435
  415TIP3   OH222659   1.248   3.546  14.622  0.3547 -0.7732  0.1936
  415TIP3    H122660   1.203   3.466  14.647  1.5042 -1.6006 -0.3123
  415TIP3    H222661   1.247   3.600  14.701 -3.0613  0.0460 -0.2558
  416TIP3   OH222662   1.670   1.447  11.054 -0.2897 -0.0091 -0.2016
  416TIP3    H122663   1.707   1.476  10.970  1.9286  0.4868  0.8689
  416TIP3    H222664   1.641   1.358  11.037 -0.5784  0.3379 -1.6944
  417TIP3   OH222665   5.959   4.737  17.206 -0.1151  0.1414 -0.1143
  417TIP3    H122666   5.944   4.677  17.279 -1.2584 -0.0399 -0.4794
  417TIP3    H222667   6.036   4.702  17.162 -0.8841 -1.1953 -0.4394
  418TIP3   OH222668   6.751   5.490   5.905 -0.0034  0.2336  0.0399
  418TIP3    H122669   6.815   5.445   5.960  0.2734  0.4001 -0.1445
  418TIP3    H222670   6.687   5.422   5.882  0.0336  0.0984  0.3326
  419TIP3   OH222671   3.340   2.547  16.174 -0.3808  0.4810 -0.0205
  419TIP3    H122672   3.287   2.511  16.246 -1.0851 -0.3777 -0.9456
  419TIP3    H222673   3.426   2.563  16.214 -1.1710  1.4824  1.3963
  420TIP3   OH222674   0.557   6.294   0.203 -0.4915  0.1561  0.2142
  420TIP3    H122675   0.591   6.211   0.237  0.5220  0.8766  0.9849
  420TIP3    H222676   0.530   6.273   0.113  1.8045 -0.5170 -0.3887
  421TIP3   OH222677   4.670   2.699   1.573  0.1267 -0.0911  0.4424
  421TIP3    H122678   4.597   2.756   1.551  2.0103  1.8939 -1.0316
  421TIP3    H222679   4.646   2.614   1.535 -1.4738  0.4787  0.1246
  422TIP3   OH222680   2.184   4.142  11.665 -0.1546 -0.0583 -0.1837
  422TIP3    H122681   2.274   4.110  11.660  0.3425  1.5231 -2.6414
  422TIP3    H222682   2.135   4.084  11.607 -0.4411 -0.0156  0.0129
  423TIP3   OH222683   0.481   0.857  17.276 -0.1282  0.2336 -0.0629
  423TIP3    H122684   0.463   0.906  17.356 -1.7663 -0.6842  0.1674
  423TIP3    H222685   0.431   0.903  17.209  0.4093  0.3817 -0.3700
  424TIP3   OH222686   6.627   1.151   5.492  0.1106  0.0210  0.7165
  424TIP3    H122687   6.676   1.231   5.472 -0.8247  0.5213  0.3831
  424TIP3    H222688   6.538   1.181   5.510 -0.7874 -1.0945 -1.4334
  425TIP3   OH222689   1.954   3.795  11.459  0.0252  0.0159 -0.0863
  425TIP3    H122690   1.958   3.886  11.488 -0.1879  0.4428 -1.3281
  425TIP3    H222691   1.860   3.779  11.446  0.0585 -0.4075  0.1824
  426TIP3   OH222692   6.164   5.512   4.275 -0.2657 -0.1794 -0.0332
  426TIP3    H122693   6.240   5.458   4.254  0.8419  0.9168  1.0069
  426TIP3    H222694   6.111   5.458   4.332  0.3523 -0.5229  0.2266
  427TIP3   OH222695   0.509   5.504  17.061  0.2667  0.0055  0.2993
  427TIP3    H122696   0.430   5.540  17.021  0.5069  0.4698  0.2313
  427TIP3    H222697   0.534   5.432  17.003 -1.4456 -1.7278  1.6334
  428TIP3   OH222698   3.985   4.075   5.293 -0.0521 -0.3209  0.0329
  428TIP3    H122699   3.905   4.048   5.247 -0.4500 -0.8531  1.0181
  428TIP3    H222700   3.955   4.140   5.356  0.2116 -0.8364  0.7004
  429TIP3   OH222701   3.209   5.993   0.122  0.0540 -0.1687 -0.6944
  429TIP3    H122702   3.149   5.989   0.196 -0.5557  0.2693 -1.1574
  429TIP3    H222703   3.253   6.078   0.131 -1.8892  1.0839 -2.2319
  430TIP3   OH222704   1.920   3.595   2.967 -0.4402  0.1157  0.0797
  430TIP3    H122705   1.947   3.532   2.900 -0.8190 -1.5030  1.3815
  430TIP3    H222706   1.949   3.557   3.049 -0.2386  1.9209  0.9045
  431TIP3   OH222707   1.272   3.227   3.647 -0.3236 -0.4348  0.4652
  431TIP3    H122708   1.362   3.198   3.659 -0.7458 -1.6462  0.8330
  431TIP3    H222709   1.222   3.181   3.715 -1.7148 -2.2455 -1.6575
  432TIP3   OH222710   6.612   6.290   0.658  0.2089  0.2311 -0.2975
  432TIP3    H122711   6.633   6.251   0.743 -0.2483 -0.2156 -0.3892
  432TIP3    H222712   6.680   6.257   0.599  0.7186  0.8032 -0.0374
  433TIP3   OH222713   4.816   3.308   0.666 -0.1750  0.0169  0.2071
  433TIP3    H122714   4.791   3.395   0.634  1.9136  0.3122 -0.8091
  433TIP3    H222715   4.847   3.324   0.755 -1.6533 -0.0443  0.7564
  434TIP3   OH222716   2.204   1.079  15.553  0.2514  0.1938  0.6520
  434TIP3    H122717   2.295   1.089  15.525 -0.5988  0.8132 -2.2520
  434TIP3    H222718   2.168   1.010  15.497 -1.7862  2.0302 -0.4919
  435TIP3   OH222719   2.589   5.303   1.517 -0.5792  0.1572 -0.1601
  435TIP3    H122720   2.651   5.329   1.448  0.0155  1.6821  0.8822
  435TIP3    H222721   2.505   5.293   1.472  0.1266 -0.5641 -1.3695
  436TIP3   OH222722   0.439   3.305  17.140  0.9664 -0.4114 -0.0452
  436TIP3    H122723   0.424   3.259  17.057 -0.2172  0.7850 -0.5345
  436TIP3    H222724   0.519   3.356  17.125  0.0441  0.8201 -0.9468
  437TIP3   OH222725   0.518   4.627  12.818 -1.2376  0.5191  0.5585
  437TIP3    H122726   0.567   4.703  12.849 -1.8085  1.0937  0.0712
  437TIP3    H222727   0.484   4.586  12.898 -0.8818  0.7386  0.8262
  438TIP3   OH222728   3.223   6.253  12.187  0.3298 -0.2938 -0.0959
  438TIP3    H122729   3.196   6.320  12.250  0.5474 -0.6648  0.3997
  438TIP3    H222730   3.307   6.222  12.220 -0.4761 -1.9146  0.5717
  439TIP3   OH222731   0.677   0.331  16.436 -0.0814 -0.1214 -0.3273
  439TIP3    H122732   0.585   0.321  16.411  0.5034 -1.9023 -2.0593
  439TIP3    H222733   0.680   0.309  16.529 -1.3606 -0.3396 -0.3218
  440TIP3   OH222734   1.836   4.115   6.431 -0.1826  0.2297  0.2195
  440TIP3    H122735   1.908   4.082   6.485 -1.4137  0.6144  2.1617
  440TIP3    H222736   1.864   4.203   6.405  0.5715 -0.0949 -0.0967
  441TIP3   OH222737   4.960   0.054   1.125 -0.6851  0.7071 -0.0876
  441TIP3    H122738   5.025   0.010   1.070 -0.3116 -0.1965  1.0356
  441TIP3    H222739   4.942  -0.009   1.196 -2.0073  1.3705  0.1889
  442TIP3   OH222740   5.180   4.366  12.258 -0.6677  0.1813 -1.0116
  442TIP3    H122741   5.150   4.287  12.215 -1.1629  0.4746 -1.2129
  442TIP3    H222742   5.132   4.437  12.216 -1.4101  0.4447  0.2333
  443TIP3   OH222743   2.208   3.659  16.134  0.8832 -0.6129 -0.8970
  443TIP3    H122744   2.126   3.611  16.121  0.7926  0.0115 -3.0429
  443TIP3    H222745   2.238   3.632  16.221 -2.4148  0.3957  0.7300
  444TIP3   OH222746   3.514   5.964  15.322 -0.0422  0.3019  0.0478
  444TIP3    H122747   3.553   5.894  15.271 -2.5913 -0.2529 -1.2902
  444TIP3    H222748   3.564   6.042  15.298  0.9473 -0.5313 -0.6986
  445TIP3   OH222749   1.263   1.916   6.675 -0.2593 -0.1886  0.4858
  445TIP3    H122750   1.305   1.940   6.592  1.1489 -0.9041  0.9543
  445TIP3    H222751   1.258   1.820   6.673 -0.6851 -0.1823  1.0085
  446TIP3   OH222752   5.301   4.679   4.320  0.3585  0.0577 -0.8867
  446TIP3    H122753   5.265   4.598   4.356  0.7696 -0.3015 -1.2706
  446TIP3    H222754   5.269   4.683   4.231  1.3862 -0.3591 -1.2929
  447TIP3   OH222755   1.722   2.290  15.956  0.9499  0.1895 -0.0770
  447TIP3    H122756   1.805   2.242  15.957  1.2002  0.6065 -0.4296
  447TIP3    H222757   1.686   2.279  16.044  0.2973 -1.8523 -0.5562
  448TIP3   OH222758   2.867   5.493   0.634 -0.2031  0.0655 -0.0601
  448TIP3    H122759   2.840   5.493   0.542  0.2601  1.9194 -0.2400
  448TIP3    H222760   2.914   5.410   0.646 -2.8585 -1.6411 -0.6462
  449TIP3   OH222761   2.692   6.108   3.578  0.5973  0.0178 -0.3795
  449TIP3    H122762   2.785   6.097   3.597  0.7577  1.0759 -0.4482
  449TIP3    H222763   2.650   6.104   3.664  0.6894 -0.5882 -0.3612
  450TIP3   OH222764   5.294   0.201  15.015 -0.3454 -0.1400  0.2309
  450TIP3    H122765   5.365   0.253  15.053 -0.3557 -0.8106  1.2029
  450TIP3    H222766   5.225   0.202  15.082 -0.7554 -0.5381 -0.1760
  451TIP3   OH222767   1.409   1.269  10.742  0.4132 -0.1301 -0.0116
  451TIP3    H122768   1.326   1.293  10.783  0.4815 -2.2118  1.5331
  451TIP3    H222769   1.469   1.339  10.767 -0.1103 -0.2250  1.6522
  452TIP3   OH222770   3.922   0.616  17.053  0.5010  0.3587 -0.1362
  452TIP3    H122771   3.873   0.698  17.057 -2.4452 -1.2877  0.3448
  452TIP3    H222772   4.002   0.638  17.004 -0.9655  3.1066 -1.5223
  453TIP3   OH222773   3.417   3.361   2.848 -0.1106 -0.4628 -0.7740
  453TIP3    H122774   3.430   3.453   2.872  0.2819 -0.8984  0.8481
  453TIP3    H222775   3.489   3.342   2.788  0.3971  0.0363 -0.3389
  454TIP3   OH222776   1.964   0.277  15.134 -0.2776  0.1605  0.3947
  454TIP3    H122777   2.005   0.216  15.073 -0.9346 -0.6695  0.7722
  454TIP3    H222778   1.933   0.349  15.079  1.5564  0.7619  0.0874
  455TIP3   OH222779   3.485   0.679   1.737  0.1659  0.0684  0.0542
  455TIP3    H122780   3.520   0.696   1.824  0.7560 -0.8237 -0.0012
  455TIP3    H222781   3.560   0.647   1.687 -0.3337 -0.1377 -0.5748
  456TIP3   OH222782   2.317   4.437  14.400  0.2685  0.2789 -0.2514
  456TIP3    H122783   2.330   4.474  14.487  1.7959  2.7628 -1.4038
  456TIP3    H222784   2.238   4.480  14.367  0.9109  1.0293 -0.8549
  457TIP3   OH222785   3.352   6.212   2.330  0.7153  0.1680 -0.5594
  457TIP3    H122786   3.424   6.273   2.344  1.4944 -0.5928 -1.1376
  457TIP3    H222787   3.390   6.125   2.346  0.2978 -0.3478 -2.1141
  458TIP3   OH222788   5.669   5.212   1.084  0.1806 -0.1049 -0.5482
  458TIP3    H122789   5.660   5.202   0.990  2.4185  1.9344 -1.0716
  458TIP3    H222790   5.762   5.194   1.102 -0.3418 -1.2224  1.4202
  459TIP3   OH222791   2.569   0.209  13.824 -0.7697 -0.3559 -0.2547
  459TIP3    H122792   2.567   0.203  13.729  0.8992 -0.8728 -0.2899
  459TIP3    H222793   2.547   0.121  13.854 -1.2639 -0.2012 -0.1479
  460TIP3   OH222794   2.943   6.705   6.329 -0.6617 -0.4002  0.3216
  460TIP3    H122795   3.039   6.708   6.325 -0.6986  0.7870  0.0939
  460TIP3    H222796   2.915   6.769   6.263 -1.6253 -1.3954 -0.2532
  461TIP3   OH222797   1.330   4.718  15.752  0.3332 -0.1981 -0.2362
  461TIP3    H122798   1.391   4.684  15.687 -3.5097 -0.9064 -3.9070
  461TIP3    H222799   1.349   4.812  15.757  1.5983 -0.3771 -1.3620
  462TIP3   OH222800   2.539   3.279   2.031  0.2876 -0.1259 -0.9594
  462TIP3    H122801   2.624   3.323   2.023 -0.8897  2.4217 -0.5083
  462TIP3    H222802   2.496   3.294   1.946  0.5467 -2.1198 -1.4942
  463TIP3   OH222803   2.656   3.886  12.955 -0.2122  0.0916  0.1681
  463TIP3    H122804   2.696   3.932  12.881 -1.3397 -0.3910 -0.7720
  463TIP3    H222805   2.730   3.858  13.009  0.5996  0.9973 -0.4403
  464TIP3   OH222806   4.171   1.260  12.553  0.7431  0.0903  0.3023
  464TIP3    H122807   4.095   1.291  12.601  1.5257  0.7300  1.1692
  464TIP3    H222808   4.244   1.272  12.613  1.5771 -0.2582 -0.6032
  465TIP3   OH222809   6.682   5.366  12.353  0.4045  0.2103  0.2771
  465TIP3    H122810   6.682   5.412  12.437  1.6532 -0.2671  0.5689
  465TIP3    H222811   6.688   5.273  12.376 -0.4211 -0.0086 -0.3315
  466TIP3   OH222812   5.054   0.625  15.415 -0.1754  0.4210  0.0738
  466TIP3    H122813   5.143   0.597  15.392 -0.7314 -0.3496 -1.1948
  466TIP3    H222814   4.998   0.586  15.349 -1.2483  2.6968 -0.4714
  467TIP3   OH222815   0.843   4.727   5.828  0.1544 -0.3360 -0.0487
  467TIP3    H122816   0.816   4.775   5.906 -0.6456 -0.8905  0.0224
  467TIP3    H222817   0.857   4.795   5.762 -1.9070 -0.0263 -0.2304
  468TIP3   OH222818   6.685   2.405   1.462  0.1437 -0.1183 -0.2640
  468TIP3    H122819   6.733   2.344   1.406  1.3502  1.1913 -0.7053
  468TIP3    H222820   6.602   2.420   1.416  0.6901  0.1355 -1.2025
  469TIP3   OH222821   6.369   3.133   0.729  0.1128  0.0892  0.0937
  469TIP3    H122822   6.349   3.076   0.803  1.8771 -0.1915  0.3831
  469TIP3    H222823   6.396   3.074   0.659 -0.6125  0.4189 -0.4830
  470TIP3   OH222824   6.479   6.716  12.431  0.6050  0.1562 -0.3959
  470TIP3    H122825   6.532   6.765  12.368 -0.1800 -0.8202 -1.8845
  470TIP3    H222826   6.388   6.739  12.410  0.3000 -0.6834 -0.0749
  471TIP3   OH222827   5.168   4.826  15.594 -0.0013  0.1714 -0.3263
  471TIP3    H122828   5.107   4.758  15.564  1.2400 -1.2633  0.2480
  471TIP3    H222829   5.253   4.796  15.562  0.8193  0.5752  1.3847
  472TIP3   OH222830   0.844   3.139   4.573  0.2937 -0.0182 -0.0155
  472TIP3    H122831   0.831   3.057   4.621  1.6441  0.0841  0.5941
  472TIP3    H222832   0.835   3.207   4.640  0.3648  0.2499 -0.2768
  473TIP3   OH222833   4.218   2.150  14.718 -0.7044 -0.0921  0.4160
  473TIP3    H122834   4.169   2.077  14.755  0.0593 -0.0388  1.5949
  473TIP3    H222835   4.301   2.151  14.767 -0.7555  1.6426  0.5547
  474TIP3   OH222836   4.661   5.815  11.628 -0.2631  0.0665 -0.2375
  474TIP3    H122837   4.649   5.797  11.534 -2.6542 -0.0259  0.0235
  474TIP3    H222838   4.584   5.777  11.669  0.6542  0.2797  1.7760
  475TIP3   OH222839   4.570   5.077   1.406 -0.1393 -0.3105  0.2887
  475TIP3    H122840   4.573   4.990   1.445  1.0859  0.8718  3.0832
  475TIP3    H222841   4.567   5.137   1.480 -1.2469  2.0731 -1.5391
  476TIP3   OH222842   0.427   1.193  16.463 -0.1796 -0.6319  0.6588
  476TIP3    H122843   0.479   1.240  16.398 -0.6817  1.1219  1.4604
  476TIP3    H222844   0.340   1.186  16.424 -0.3881  0.1039  0.9761
  477TIP3   OH222845   5.047   5.664  14.597 -0.1640 -0.1523 -0.1183
  477TIP3    H122846   5.142   5.672  14.597 -0.1702  0.0154 -1.0371
  477TIP3    H222847   5.029   5.595  14.533 -0.6664 -0.0268 -0.1153
  478TIP3   OH222848   3.031   4.994   1.694  0.4157 -0.2766  0.0711
  478TIP3    H122849   2.993   4.908   1.676 -0.2861 -0.1085  0.6957
  478TIP3    H222850   3.026   5.041   1.611  2.3902 -1.4021 -0.7516
  479TIP3   OH222851   1.278   1.110   3.592  0.4880 -0.2028 -0.2220
  479TIP3    H122852   1.286   1.015   3.599 -0.5424 -0.2121  1.3287
  479TIP3    H222853   1.367   1.143   3.604  0.7081 -0.9391  0.2029
  480TIP3   OH222854   5.055   0.989  11.838  0.0781  0.1535  0.2644
  480TIP3    H122855   5.129   1.014  11.781 -0.1922 -1.6507 -0.9533
  480TIP3    H222856   5.094   0.978  11.924  0.5669  2.6185  0.4497
  481TIP3   OH222857   2.663   3.409   0.230 -0.5910  0.2325  0.3341
  481TIP3    H122858   2.618   3.402   0.146 -2.0137  1.5780  0.9289
  481TIP3    H222859   2.724   3.482   0.218 -1.0495  0.6585  0.5644
  482TIP3   OH222860   6.685   2.955  16.929  0.2997 -0.1192 -0.1732
  482TIP3    H122861   6.599   2.988  16.956  0.2309  0.3508 -0.9491
  482TIP3    H222862   6.734   2.947  17.011 -0.3448 -0.0035  0.2330
  483TIP3   OH222863   3.643   2.236   0.689 -0.4530  0.1966 -0.2589
  483TIP3    H122864   3.559   2.228   0.735  0.6951  1.7561  2.3536
  483TIP3    H222865   3.649   2.157   0.635 -2.7489 -0.8863  0.9233
  484TIP3   OH222866   2.527   1.618   4.174 -0.6357 -0.1079 -0.1756
  484TIP3    H122867   2.448   1.565   4.166 -1.1191  0.5604  0.0014
  484TIP3    H222868   2.598   1.561   4.147 -0.8877 -1.4845  1.8328
  485TIP3   OH222869   1.177   5.750  12.280 -0.4799  0.4105 -0.0991
  485TIP3    H122870   1.258   5.790  12.311 -1.0140  0.9762  0.6109
  485TIP3    H222871   1.205   5.673  12.231  0.4872  0.6595  0.0411
  486TIP3   OH222872   5.416   3.917   2.258 -0.3041  0.2261 -0.4653
  486TIP3    H122873   5.357   3.952   2.192  1.4965  0.0560 -2.2594
  486TIP3    H222874   5.383   3.828   2.275  0.1586 -0.3744 -2.4504
  487TIP3   OH222875   4.645   6.404  11.283 -0.1154  0.2088  0.3405
  487TIP3    H122876   4.629   6.310  11.272  0.1673  0.1928  0.0614
  487TIP3    H222877   4.596   6.446  11.212 -0.7794  0.3252  0.8515
  488TIP3   OH222878   4.699   5.175   0.202 -0.7573  0.3045  0.3389
  488TIP3    H122879   4.642   5.222   0.140  0.9408  1.3109 -0.5285
  488TIP3    H222880   4.650   5.095   0.222 -1.8646  0.4497 -1.4605
  489TIP3   OH222881   3.704   2.472   4.849  0.2284  0.1390 -0.0648
  489TIP3    H122882   3.681   2.398   4.904  0.9719  0.7036  1.0410
  489TIP3    H222883   3.693   2.548   4.906 -1.7745  1.0454 -1.5226
  490TIP3   OH222884   4.803   3.111   5.860 -0.1243 -0.2498  0.0977
  490TIP3    H122885   4.862   3.047   5.900  0.3430  0.3969  0.4640
  490TIP3    H222886   4.826   3.111   5.767  2.2288  1.7547  0.5530
  491TIP3   OH222887   4.773   5.291  10.908  0.5090  0.4167 -0.1698
  491TIP3    H122888   4.836   5.220  10.916  0.5193  0.5085  0.6946
  491TIP3    H222889   4.695   5.250  10.870 -0.3431 -0.6256  2.4972
  492TIP3   OH222890   1.471   4.556   2.118  0.0063  0.1126 -0.2800
  492TIP3    H122891   1.471   4.617   2.193 -0.4607 -0.2417  0.0125
  492TIP3    H222892   1.536   4.593   2.058 -0.3473  0.9637 -0.1529
  493TIP3   OH222893   6.142   1.396   3.652  0.6433 -0.1764  0.1821
  493TIP3    H122894   6.147   1.364   3.562  1.7924 -1.3794  0.6269
  493TIP3    H222895   6.048   1.398   3.672  0.1659  2.5165 -1.7880
  494TIP3   OH222896   3.042   5.619  16.091  0.2757  0.3236 -0.2172
  494TIP3    H122897   3.049   5.647  16.000  0.2886 -0.8722 -0.5953
  494TIP3    H222898   2.952   5.637  16.116  0.4571  1.3020 -0.2375
  495TIP3   OH222899   0.554   6.033   0.070  0.7094 -0.5513 -0.0098
  495TIP3    H122900   0.587   6.089   0.000  0.2459  0.0783  0.2746
  495TIP3    H222901   0.564   5.944   0.036  1.0408 -0.2796 -0.6330
  496TIP3   OH222902   1.244   0.144   1.793  0.5527  1.2142 -0.0963
  496TIP3    H122903   1.287   0.187   1.867  1.6546  2.2964 -1.3079
  496TIP3    H222904   1.159   0.116   1.827  0.8373  2.1023  1.4340
  497TIP3   OH222905   0.713   1.063  11.490 -0.3511  0.5565  0.0260
  497TIP3    H122906   0.766   0.994  11.450  0.2178  0.3996  1.0086
  497TIP3    H222907   0.724   1.139  11.432  0.4484  0.3351 -0.1198
  498TIP3   OH222908   3.101   0.158   5.695 -0.4851  0.1098 -0.0195
  498TIP3    H122909   3.191   0.140   5.720 -0.2894  2.3978  1.1828
  498TIP3    H222910   3.108   0.203   5.611 -0.5903 -0.5906 -0.4080
  499TIP3   OH222911   4.818   4.237   2.493 -0.1335 -0.3277  0.0923
  499TIP3    H122912   4.903   4.200   2.519  0.4569  1.3736  0.8096
  499TIP3    H222913   4.792   4.291   2.568 -0.7657  0.9078 -0.9680
  500TIP3   OH222914   3.100   3.068   0.965  0.0850  0.5615  0.6145
  500TIP3    H122915   3.050   3.021   0.898 -0.4032 -0.1782  1.4677
  500TIP3    H222916   3.166   3.005   0.994  1.1633  1.3364 -0.0912
  501TIP3   OH222917   4.006   1.161   0.618  0.2095 -0.0752  0.2077
  501TIP3    H122918   4.035   1.179   0.707 -2.0851  0.4723  0.9089
  501TIP3    H222919   4.011   1.066   0.610  0.3515 -0.1364  0.9468
  502TIP3   OH222920   2.881   4.120  16.027 -0.6719 -0.5530  0.2510
  502TIP3    H122921   2.796   4.075  16.021 -0.9367  0.1133 -1.6281
  502TIP3    H222922   2.934   4.062  16.082 -2.7228 -0.3088  2.6832
  503TIP3   OH222923   3.669   4.790   3.801 -0.1549  0.5186 -0.5018
  503TIP3    H122924   3.764   4.793   3.812  0.0977 -1.5666 -1.5315
  503TIP3    H222925   3.656   4.787   3.706 -1.2067  0.2719 -0.3679
  504TIP3   OH222926   4.086   4.093   0.640 -0.3453  0.3907 -0.1212
  504TIP3    H122927   4.090   4.138   0.725 -0.6402 -1.5935  1.0163
  504TIP3    H222928   4.175   4.098   0.606  0.2558 -0.3946  1.2342
  505TIP3   OH222929   5.062   3.915   0.202 -0.0570 -0.1899 -0.5274
  505TIP3    H122930   4.986   3.903   0.259  0.0094 -1.9369 -0.7676
  505TIP3    H222931   5.041   3.865   0.123  0.4687  1.0277 -1.4738
  506TIP3   OH222932   5.768   3.296   5.826 -0.8928 -0.6579 -0.5111
  506TIP3    H122933   5.736   3.387   5.829 -2.0383 -1.0173 -1.0428
  506TIP3    H222934   5.732   3.262   5.744 -0.0994 -1.4702 -0.5300
  507TIP3   OH222935   6.734   4.540   3.740  0.1734 -0.3268 -0.5279
  507TIP3    H122936   6.826   4.554   3.719  0.5743  1.0396  1.7396
  507TIP3    H222937   6.704   4.625   3.774 -1.9368 -0.7467 -1.1858
  508TIP3   OH222938   5.312   5.496   5.828  0.0457  0.5178 -0.0118
  508TIP3    H122939   5.237   5.465   5.776 -0.1640 -0.0857  0.6379
  508TIP3    H222940   5.276   5.566   5.882 -0.1124  0.0578  0.4827
  509TIP3   OH222941   0.584   6.022  14.656  0.2572  0.5240  0.1418
  509TIP3    H122942   0.606   6.100  14.605  1.1621 -1.5790 -3.0029
  509TIP3    H222943   0.666   5.973  14.660 -0.4341 -0.5721  1.4985
  510TIP3   OH222944   4.427   4.046  17.287 -0.1253  0.5573  0.7068
  510TIP3    H122945   4.490   3.974  17.294 -1.3987 -0.9031 -1.5764
  510TIP3    H222946   4.466   4.106  17.224 -0.1582  0.5926  0.7206
  511TIP3   OH222947   5.571   6.483   2.009  0.1997 -0.2525  0.3334
  511TIP3    H122948   5.640   6.439   2.058  0.1086 -1.6072 -0.6885
  511TIP3    H222949   5.518   6.526   2.076  1.4383 -0.0312  1.2108
  512TIP3   OH222950   1.467   0.995  15.655  0.1612  0.1957 -0.1416
  512TIP3    H122951   1.467   0.899  15.651 -0.1646  0.1306  1.0406
  512TIP3    H222952   1.404   1.022  15.589 -0.1502 -0.4335 -0.1114
  513TIP3   OH222953   3.367   1.382   0.904  0.4099 -0.1326  0.4879
  513TIP3    H122954   3.422   1.320   0.952 -0.4767 -1.7718 -0.5151
  513TIP3    H222955   3.278   1.349   0.916  0.1100 -0.3184 -1.8268
  514TIP3   OH222956   6.721   5.249  16.312 -0.0944  0.0179 -0.3341
  514TIP3    H122957   6.671   5.197  16.375 -1.2004  0.6960 -0.6235
  514TIP3    H222958   6.785   5.187  16.276  0.1414 -0.5404  0.9785
  515TIP3   OH222959   0.565   1.375  11.888 -0.2226 -0.6045 -0.4157
  515TIP3    H122960   0.569   1.289  11.929  2.0393 -0.2932  0.1011
  515TIP3    H222961   0.556   1.356  11.794  0.9112 -1.4392 -0.3764
  516TIP3   OH222962   6.025   5.476  12.686  0.4717 -0.0759  0.0525
  516TIP3    H122963   5.984   5.393  12.661  0.8270 -0.4669  0.7178
  516TIP3    H222964   6.093   5.490  12.621 -1.0192  0.8598 -1.3924
  517TIP3   OH222965   4.323   0.844   0.546  0.8002  0.5103 -0.5464
  517TIP3    H122966   4.302   0.793   0.467  1.7908 -0.0870 -0.4403
  517TIP3    H222967   4.418   0.854   0.544  0.9729 -0.4287  1.0964
  518TIP3   OH222968   0.658   3.930   0.562  0.1096 -0.4698 -0.1878
  518TIP3    H122969   0.659   4.025   0.576 -0.1924 -0.6320  1.0555
  518TIP3    H222970   0.695   3.894   0.643 -1.2348 -1.4868  0.0007
  519TIP3   OH222971   3.092   4.721   1.084 -0.3360 -0.2952  0.1842
  519TIP3    H122972   3.179   4.761   1.088 -0.4415 -0.0983  0.5952
  519TIP3    H222973   3.077   4.687   1.172 -0.3926 -0.9360 -0.0713
  520TIP3   OH222974   0.376   2.263  14.035  0.2251  0.7178  0.2319
  520TIP3    H122975   0.396   2.176  14.000 -0.1830  0.9183 -0.5339
  520TIP3    H222976   0.450   2.284  14.092  0.9222  0.3618 -0.5091
  521TIP3   OH222977   1.631   0.593  15.181 -0.0995  0.2801 -0.5793
  521TIP3    H122978   1.621   0.498  15.179 -1.0368  0.3799 -2.1994
  521TIP3    H222979   1.714   0.609  15.136  0.3382  0.2034  0.1959
  522TIP3   OH222980   4.795   6.374  12.815  0.2854  0.5455 -0.4540
  522TIP3    H122981   4.784   6.307  12.747  0.0436  2.2487 -2.1835
  522TIP3    H222982   4.862   6.433  12.779  3.4531 -0.7587  2.7039
  523TIP3   OH222983   2.377   2.395   3.199 -0.3516 -0.0691 -1.2316
  523TIP3    H122984   2.453   2.442   3.234  0.1298 -0.8855 -1.1560
  523TIP3    H222985   2.320   2.464   3.165  0.6817  0.5291 -1.8059
  524TIP3   OH222986   0.182   3.965   1.200  0.7898 -0.1518  0.4144
  524TIP3    H122987   0.224   4.012   1.273 -0.2928  0.0753  0.9256
  524TIP3    H222988   0.088   3.977   1.216  0.5203 -1.1748 -0.3348
  525TIP3   OH222989   3.530   1.662   1.223  0.4954  0.2381 -0.3753
  525TIP3    H122990   3.459   1.710   1.181  2.3548  2.0133 -1.6649
  525TIP3    H222991   3.496   1.639   1.310 -1.1996  2.1144 -0.4827
  526TIP3   OH222992   4.169   0.029   3.785 -0.6744  0.1369 -0.5697
  526TIP3    H122993   4.089   0.064   3.824 -1.3780 -2.1311  0.1824
  526TIP3    H222994   4.205  -0.029   3.853  0.8018 -0.0184 -1.4535
  527TIP3   OH222995   6.490   0.882   4.910  0.2117 -0.3068 -0.2747
  527TIP3    H122996   6.491   0.874   5.005 -2.1751 -2.1193 -0.3224
  527TIP3    H222997   6.426   0.951   4.892  0.6180 -0.0052 -0.6061
  528TIP3   OH222998   2.058   6.667   1.736  0.4278 -0.3106 -0.2207
  528TIP3    H122999   2.117   6.739   1.715  1.1030 -1.3765 -2.2272
  528TIP3    H223000   2.090   6.632   1.819  0.0872  1.6433  0.7837
  529TIP3   OH223001   6.455   0.880  15.353  0.1903 -0.1834  0.5829
  529TIP3    H123002   6.364   0.855  15.365 -0.3453  1.2328 -0.3223
  529TIP3    H223003   6.500   0.798  15.331 -0.9227 -0.8339  0.6834
  530TIP3   OH223004   5.238   3.511   2.582 -0.0177  0.2565  0.0378
  530TIP3    H123005   5.274   3.433   2.623  0.1227 -0.1864 -0.9199
  530TIP3    H223006   5.314   3.565   2.562 -0.0865  0.4712  0.3399
  531TIP3   OH223007   3.030   1.480   1.664 -0.2650 -0.4453 -0.4864
  531TIP3    H123008   2.983   1.400   1.685 -0.2642 -0.7621 -1.6354
  531TIP3    H223009   3.064   1.511   1.748 -0.3263 -1.6005 -0.0221
  532TIP3   OH223010   4.183   2.355   2.093 -0.2315  0.4048 -0.2158
  532TIP3    H123011   4.256   2.300   2.121  0.1469  0.4060 -1.1899
  532TIP3    H223012   4.145   2.387   2.175  0.9440  0.5231  0.3015
  533TIP3   OH223013   2.050   3.536  13.787 -0.2181 -0.0495  0.4744
  533TIP3    H123014   2.059   3.617  13.736  2.3749  0.3377  1.4048
  533TIP3    H223015   2.029   3.469  13.721  1.4746  0.7123 -0.9186
  534TIP3   OH223016   6.283   4.216  11.573 -0.4675  0.5366 -0.1322
  534TIP3    H123017   6.289   4.219  11.669  0.2379  0.8525 -0.1747
  534TIP3    H223018   6.201   4.260  11.552 -0.0565  1.5315  0.2807
  535TIP3   OH223019   3.771   1.706   2.298 -0.0633 -0.4994  0.3725
  535TIP3    H123020   3.694   1.742   2.341  0.8994  1.4111  0.5804
  535TIP3    H223021   3.839   1.707   2.365  0.7130 -0.1242 -0.3980
  536TIP3   OH223022   3.413   0.348  17.225  0.0766  0.3021 -0.2872
  536TIP3    H123023   3.487   0.408  17.215 -1.0476  1.6074 -1.3082
  536TIP3    H223024   3.405   0.306  17.139  0.1993 -0.5365  0.1039
  537TIP3   OH223025   4.357   3.520   4.584  0.4532 -0.0958  0.1936
  537TIP3    H123026   4.404   3.601   4.605 -1.2261  1.5624 -1.9367
  537TIP3    H223027   4.290   3.513   4.653  0.3304  0.5957  0.1509
  538TIP3   OH223028   4.029   2.979  12.508  0.6556 -0.1415 -0.1499
  538TIP3    H123029   4.102   3.040  12.526  0.4886 -0.7770  3.6718
  538TIP3    H223030   3.960   3.007  12.568 -0.3146 -2.6350 -0.0037
  539TIP3   OH223031   5.908   1.910  16.948  0.5067 -0.0876 -0.2912
  539TIP3    H123032   5.911   1.940  17.039  0.6177 -2.7302  0.6856
  539TIP3    H223033   5.861   1.978  16.901  0.5891  1.4330  1.7191
  540TIP3   OH223034   4.617   6.438  12.508  0.2971 -0.0283  0.3501
  540TIP3    H123035   4.657   6.476  12.429 -1.2006 -0.2613 -0.5694
  540TIP3    H223036   4.654   6.350  12.512  0.6244  0.0914  0.0927
  541TIP3   OH223037   1.340   0.362  16.438 -0.1384  0.0354 -0.0362
  541TIP3    H123038   1.364   0.303  16.366 -0.6972  0.4591 -0.5723
  541TIP3    H223039   1.328   0.447  16.397 -2.5390 -0.1289  0.1686
  542TIP3   OH223040   6.149   5.406  14.423  0.1563  0.3477 -0.1432
  542TIP3    H123041   6.146   5.478  14.486  2.7778  0.7404 -0.3742
  542TIP3    H223042   6.074   5.422  14.365 -1.2363  0.9963  1.7159
  543TIP3   OH223043   6.471   1.177   6.310 -0.3902  1.0862  0.0890
  543TIP3    H123044   6.540   1.134   6.360 -0.9642  0.8322  0.6662
  543TIP3    H223045   6.494   1.270   6.312  1.5485  0.7698 -2.2007
  544TIP3   OH223046   5.280   3.966   4.725 -0.0073  0.3994 -0.5056
  544TIP3    H123047   5.238   3.938   4.806  0.1713 -0.0722 -0.5734
  544TIP3    H223048   5.212   3.960   4.659  0.0258  0.1324 -0.5169
  545TIP3   OH223049   5.677   4.304  16.844  0.0330 -0.0429  0.3533
  545TIP3    H123050   5.656   4.393  16.817 -0.3384  0.3475  1.8588
  545TIP3    H223051   5.764   4.288  16.808  0.1321  0.9568  0.1237
  546TIP3   OH223052   6.587   3.679   3.641  0.0437  0.2291 -0.0866
  546TIP3    H123053   6.648   3.652   3.709  0.9941  0.6344 -0.7489
  546TIP3    H223054   6.639   3.675   3.560 -0.5338  1.5084 -0.5376
  547TIP3   OH223055   6.280   1.513  13.242 -0.0317 -0.1251 -0.2966
  547TIP3    H123056   6.341   1.586  13.234 -1.8317  1.4032 -0.8350
  547TIP3    H223057   6.225   1.536  13.317 -1.1332 -0.5232 -0.9610
  548TIP3   OH223058   2.118   4.120   3.091 -0.2873  0.4204  0.5308
  548TIP3    H123059   2.208   4.093   3.074 -1.0092 -0.8171 -1.8152
  548TIP3    H223060   2.123   4.214   3.106  1.2363  0.6359 -1.0580
  549TIP3   OH223061   4.592   6.317  12.152  0.4986 -0.3863  0.2526
  549TIP3    H123062   4.530   6.312  12.079 -0.9958 -1.2063  1.5211
  549TIP3    H223063   4.656   6.382  12.124 -0.0480 -0.6396 -1.7656
  550TIP3   OH223064   0.874   0.958  13.264  0.3182  0.2808  0.5757
  550TIP3    H123065   0.952   0.987  13.310  1.2773  0.6330 -1.1906
  550TIP3    H223066   0.877   0.862  13.269  0.4294  0.3192  1.2052
  551TIP3   OH223067   1.190   3.069   5.910  0.2630  0.6105 -0.1160
  551TIP3    H123068   1.204   3.117   5.991  1.8939  1.8918 -1.0869
  551TIP3    H223069   1.151   2.986   5.937  2.0913  0.3767  2.1223
  552TIP3   OH223070   4.545   3.397  11.819  0.2523 -0.2032 -0.4543
  552TIP3    H123071   4.482   3.464  11.791  0.6144  0.8556  1.1339
  552TIP3    H223072   4.505   3.357  11.896  1.1742 -0.0240  0.1357
  553TIP3   OH223073   2.547   0.654   1.269  0.1450 -0.4657  0.4262
  553TIP3    H123074   2.637   0.679   1.291 -0.4712 -0.0471  2.7339
  553TIP3    H223075   2.528   0.580   1.327 -0.8386 -0.8597 -0.3810
  554TIP3   OH223076   3.314   0.258  16.824 -0.0136  0.1382 -0.2241
  554TIP3    H123077   3.346   0.346  16.805  0.2535  0.2082  0.5258
  554TIP3    H223078   3.233   0.271  16.873 -1.5109 -0.0379 -2.5053
  555TIP3   OH223079   3.869   3.977   1.828 -0.1165 -0.0585 -0.2885
  555TIP3    H123080   3.791   4.028   1.805  0.4750  0.6400 -0.7908
  555TIP3    H223081   3.933   4.042   1.857  1.1994 -0.2886 -2.4707
  556TIP3   OH223082   6.323   5.301   4.762  0.0754 -0.2575  0.2998
  556TIP3    H123083   6.344   5.297   4.855  1.9899  1.4160  0.0141
  556TIP3    H223084   6.263   5.375   4.754  1.3356  0.7853  0.0459
  557TIP3   OH223085   1.916   4.993  13.579  0.1659  0.4952  0.0461
  557TIP3    H123086   1.997   4.945  13.561 -1.1783 -1.0889 -2.4945
  557TIP3    H223087   1.917   5.065  13.516 -1.2774 -0.8052 -1.5861
  558TIP3   OH223088   3.056   2.633  12.914  0.0703 -0.0836  0.5327
  558TIP3    H123089   3.098   2.715  12.889  1.3346 -0.6391  0.7322
  558TIP3    H223090   3.018   2.599  12.834  1.4082 -0.3394 -0.0181
  559TIP3   OH223091   6.555   0.690   6.307 -0.1051  0.4399 -0.2922
  559TIP3    H123092   6.597   0.761   6.258 -0.0523  0.4928 -0.1701
  559TIP3    H223093   6.461   0.706   6.297 -0.0903  0.7137  0.0079
  560TIP3   OH223094   3.399   6.335   0.060  0.5225 -0.5050 -0.7174
  560TIP3    H123095   3.387   6.276   0.134 -0.4762 -0.0085 -0.4726
  560TIP3    H223096   3.321   6.390   0.059  2.0204  1.7771 -0.0980
  561TIP3   OH223097   6.636   2.928   3.092  0.6912 -0.8310 -0.2383
  561TIP3    H123098   6.560   2.871   3.106  1.0693 -1.1226  0.7461
  561TIP3    H223099   6.636   2.947   2.998 -0.6548 -0.7463 -0.2424
  562TIP3   OH223100   4.368   5.732   3.742 -0.0753  0.0589 -0.2111
  562TIP3    H123101   4.347   5.668   3.810  2.6561 -0.1336  0.5957
  562TIP3    H223102   4.432   5.688   3.687 -0.9316  0.8430 -1.9172
  563TIP3   OH223103   6.245   3.379   1.264  0.0208 -0.1356 -0.1102
  563TIP3    H123104   6.166   3.423   1.297 -0.2302 -1.0658  0.5564
  563TIP3    H223105   6.313   3.447   1.269 -0.0182 -0.1741  2.3191
  564TIP3   OH223106   6.100   2.257  14.534 -0.2693  0.4375  0.0839
  564TIP3    H123107   6.041   2.217  14.470  2.1694  1.7195 -3.2123
  564TIP3    H223108   6.048   2.328  14.573 -1.4953  0.3657 -1.3187
  565TIP3   OH223109   0.865   3.159   1.047 -0.0585  0.0100  0.4491
  565TIP3    H123110   0.815   3.230   1.007  0.4296  0.7117  1.0519
  565TIP3    H223111   0.927   3.204   1.106 -0.2113 -0.9436  1.3580
  566TIP3   OH223112   4.522   1.127  14.080  0.4762  0.2145  0.6441
  566TIP3    H123113   4.453   1.182  14.042 -1.3201 -1.4750  1.2589
  566TIP3    H223114   4.604   1.166  14.049 -0.6898  2.8716  0.6383
  567TIP3   OH223115   3.514   4.547  11.613 -0.5194  0.0350  0.2064
  567TIP3    H123116   3.590   4.490  11.599 -0.7390 -0.4362  0.8754
  567TIP3    H223117   3.514   4.605  11.537 -0.1739 -0.7329 -0.4001
  568TIP3   OH223118   0.986   3.706  11.252 -0.3270  0.1884 -0.7706
  568TIP3    H123119   0.965   3.688  11.344  0.0869 -1.3104 -0.9574
  568TIP3    H223120   0.900   3.717  11.210 -0.5221  0.7786 -0.2430
  569TIP3   OH223121   2.579   5.647   0.120  0.1178  0.1707  0.2357
  569TIP3    H123122   2.621   5.721   0.164 -0.4272  2.2146 -2.4398
  569TIP3    H223123   2.495   5.636   0.166  0.2653  1.1426  0.7430
  570TIP3   OH223124   5.931   2.262  13.993 -0.7815 -0.1879 -0.0574
  570TIP3    H123125   5.956   2.173  13.968  1.1079  0.7564 -1.8133
  570TIP3    H223126   5.887   2.298  13.916 -0.0005  0.9464  0.0008
  571TIP3   OH223127   5.305   2.055  15.306  0.2253  0.3154 -0.1328
  571TIP3    H123128   5.345   2.141  15.295 -0.3920  0.7598  0.9119
  571TIP3    H223129   5.364   1.995  15.261  0.5303  1.3074 -1.1133
  572TIP3   OH223130   6.178   1.788  11.677 -0.3128  0.0125  0.0784
  572TIP3    H123131   6.201   1.847  11.750 -1.2584  0.2660  0.1807
  572TIP3    H223132   6.179   1.700  11.716  1.0875 -0.0622 -0.0703
  573TIP3   OH223133   1.043   1.927   5.225 -0.4261  0.1218  0.2355
  573TIP3    H123134   0.991   1.890   5.154 -0.3405  0.0932  0.1871
  573TIP3    H223135   0.990   1.914   5.303 -0.6075  0.3271  0.1492
  574TIP3   OH223136   4.473   5.646   4.677  0.7141  0.2544  0.4788
  574TIP3    H123137   4.428   5.660   4.593 -0.7052  3.4813  1.5997
  574TIP3    H223138   4.450   5.557   4.702 -0.3568 -0.1583 -1.7004
  575TIP3   OH223139   1.421   4.945   1.049 -0.0364 -0.2660 -0.1705
  575TIP3    H123140   1.505   4.969   1.010 -1.6088  3.4818 -1.6946
  575TIP3    H223141   1.369   4.912   0.976 -1.2553  1.6903 -0.2453
  576TIP3   OH223142   1.818   5.915   4.359  0.1829 -0.3597  0.6495
  576TIP3    H123143   1.830   5.888   4.450  2.1230  0.9197  0.8153
  576TIP3    H223144   1.842   5.837   4.308 -0.9825 -1.1044  1.1820
  577TIP3   OH223145   2.472   2.252   0.102 -0.4064 -0.3444 -0.0857
  577TIP3    H123146   2.558   2.289   0.080 -0.0575 -1.0434  0.0956
  577TIP3    H223147   2.441   2.306   0.174 -0.5303  0.4882 -0.7386
  578TIP3   OH223148   6.143   1.940   2.636 -0.2366  0.6356  0.0817
  578TIP3    H123149   6.100   1.933   2.721 -1.0744  0.7701 -0.3183
  578TIP3    H223150   6.089   1.887   2.577  1.2209 -0.7698 -0.0550
  579TIP3   OH223151   5.885   3.654   0.756  0.6106  0.5280  0.3154
  579TIP3    H123152   5.839   3.679   0.836  1.8455 -0.2523  1.3173
  579TIP3    H223153   5.889   3.734   0.704 -1.2138  0.7862  0.4863
  580TIP3   OH223154   1.786   0.031  13.340  0.0350  0.4223  0.2495
  580TIP3    H123155   1.802   0.044  13.433 -0.0615  2.1705  0.0611
  580TIP3    H223156   1.693   0.005  13.335  0.3458 -0.8326  0.6958
  581TIP3   OH223157   5.745   5.730  12.113 -0.1867  0.2444  0.4127
  581TIP3    H123158   5.794   5.715  12.032 -0.1599  0.1320  0.4501
  581TIP3    H223159   5.811   5.762  12.174  0.0763 -1.0199  0.8160
  582TIP3   OH223160   2.443   2.544  10.999 -0.2064  0.0590 -0.6318
  582TIP3    H123161   2.394   2.574  10.922 -0.0465  0.7056 -0.4830
  582TIP3    H223162   2.508   2.483  10.963 -1.7154 -1.5872 -0.7322
  583TIP3   OH223163   6.478   3.673   2.673 -0.6965 -0.2952  0.1473
  583TIP3    H123164   6.500   3.591   2.718 -0.0868  0.2116  0.7988
  583TIP3    H223165   6.391   3.657   2.636 -0.6043 -1.2236  0.2897
  584TIP3   OH223166   1.585   2.218  14.356  0.0724 -0.1629  0.3429
  584TIP3    H123167   1.576   2.145  14.418  2.7963 -1.0736 -0.1999
  584TIP3    H223168   1.603   2.177  14.272  1.3580  1.1255 -0.0481
  585TIP3   OH223169   1.664   1.088  15.491 -0.6919  0.1381 -0.7247
  585TIP3    H123170   1.637   1.040  15.569  0.7470  0.0119 -0.2737
  585TIP3    H223171   1.720   1.158  15.524 -0.4615  0.3799 -1.6045
  586TIP3   OH223172   3.883   1.870   4.232  0.2188  0.4027  0.0958
  586TIP3    H123173   3.951   1.809   4.258  1.3272  1.9073  0.8774
  586TIP3    H223174   3.871   1.855   4.138  0.2379 -1.1780  0.3174
  587TIP3   OH223175   2.849   0.050  13.156 -0.3387 -0.7521  0.0143
  587TIP3    H123176   2.776   0.109  13.176 -0.6332 -1.1391  0.1095
  587TIP3    H223177   2.860   0.057  13.061  1.0601  1.0884  0.2707
  588TIP3   OH223178   6.330   1.474  15.146  0.1278  0.1545  0.4620
  588TIP3    H123179   6.298   1.386  15.169 -1.1469 -0.1197 -1.9415
  588TIP3    H223180   6.425   1.468  15.154  0.1955 -1.9727 -1.0718
  589TIP3   OH223181   6.393   3.083  14.399 -0.4001  0.3461  0.1333
  589TIP3    H123182   6.342   3.163  14.407  0.6886  1.1762 -0.9147
  589TIP3    H223183   6.445   3.095  14.319  1.3205 -0.5163  1.0693
  590TIP3   OH223184   3.135   4.470  11.276  0.1056  0.1666 -0.2893
  590TIP3    H123185   3.182   4.549  11.300  1.0415 -0.0334 -1.3728
  590TIP3    H223186   3.043   4.496  11.272  0.2715  0.8923  0.5608
  591TIP3   OH223187   0.104   0.612  14.382  0.2188  0.0597 -0.4187
  591TIP3    H123188   0.031   0.648  14.431 -0.4874 -1.1273 -0.5605
  591TIP3    H223189   0.155   0.564  14.448  1.0543  1.1196 -0.2630
  592TIP3   OH223190   4.482   4.074   2.505  0.2993  0.3453 -0.0625
  592TIP3    H123191   4.457   4.161   2.536 -0.7759  0.1328 -0.2995
  592TIP3    H223192   4.541   4.041   2.572 -0.3609  0.7166  0.7167
  593TIP3   OH223193   3.844   4.503  12.968 -0.3024  0.1264 -0.1172
  593TIP3    H123194   3.917   4.466  12.919 -1.0404 -0.1974 -1.0128
  593TIP3    H223195   3.883   4.534  13.050  0.6350 -1.0935 -0.0620
  594TIP3   OH223196   6.168   2.457   4.017 -0.2089  0.6440 -0.0808
  594TIP3    H123197   6.185   2.427   3.928 -0.7087  0.9680 -0.2887
  594TIP3    H223198   6.080   2.426   4.038  0.5858 -1.0411  1.0055
  595TIP3   OH223199   5.761   1.565  13.474  0.4615  0.0883 -0.2863
  595TIP3    H123200   5.800   1.627  13.537  0.7636  1.7871 -2.0593
  595TIP3    H223201   5.790   1.479  13.504 -0.4063  0.6876  2.5895
  596TIP3   OH223202   0.891   6.651  14.359  0.9744 -0.1358 -1.0106
  596TIP3    H123203   0.820   6.612  14.308  1.4854 -0.2261 -1.6692
  596TIP3    H223204   0.957   6.675  14.294  0.9137  1.3239 -0.5747
  597TIP3   OH223205   6.202   4.677  16.841 -0.3899 -0.1466 -0.2450
  597TIP3    H123206   6.267   4.619  16.801  0.3317 -0.9667  1.9596
  597TIP3    H223207   6.250   4.758  16.857 -0.4818 -0.0559 -0.4313
  598TIP3   OH223208   4.710   3.311   6.125 -0.1389  0.5699  0.4150
  598TIP3    H123209   4.665   3.313   6.210  2.5229 -0.2879  2.0066
  598TIP3    H223210   4.761   3.230   6.129  1.6252  1.5445 -1.1283
  599TIP3   OH223211   3.401   5.077  17.033 -0.5998 -0.1428  0.0910
  599TIP3    H123212   3.336   5.022  16.991 -0.2038 -2.6530  2.4776
  599TIP3    H223213   3.410   5.041  17.122  2.1319  1.7162  0.7155
  600TIP3   OH223214   5.680   2.055  16.633 -0.8279  0.4306 -0.0293
  600TIP3    H123215   5.590   2.037  16.606 -0.2350  0.2904 -2.1571
  600TIP3    H223216   5.722   1.968  16.636 -0.2486  0.6355 -1.2717
  601TIP3   OH223217   5.242   2.880   0.335  0.0888  0.0736 -0.0350
  601TIP3    H123218   5.292   2.798   0.331 -0.4870 -0.4986  2.7159
  601TIP3    H223219   5.154   2.855   0.308  0.2564  0.1534 -0.6840
  602TIP3   OH223220   1.882   0.531  17.427  0.3204  0.4829  0.3454
  602TIP3    H123221   1.807   0.584  17.454  0.3795  0.6757  0.1403
  602TIP3    H223222   1.956   0.570  17.473  0.6118  1.5499 -0.9525
  603TIP3   OH223223   6.218   4.350  14.113  0.0792 -0.2088  0.0016
  603TIP3    H123224   6.148   4.285  14.109  0.1384 -0.4276  1.6757
  603TIP3    H223225   6.209   4.389  14.200  0.0662  2.0309 -0.9406
  604TIP3   OH223226   1.296   5.464   5.665 -0.3522 -0.5446 -0.6959
  604TIP3    H123227   1.208   5.489   5.638 -0.3024 -1.1978 -1.5082
  604TIP3    H223228   1.301   5.370   5.647  1.5816  0.0005 -3.9030
  605TIP3   OH223229   4.558   0.872   2.611 -0.0317  0.0020 -0.4545
  605TIP3    H123230   4.485   0.901   2.665 -1.3810 -1.6352 -1.3373
  605TIP3    H223231   4.550   0.777   2.608  1.4458 -0.1230 -1.5597
  606TIP3   OH223232   2.195   3.216  15.997  0.0343  0.5559  0.6910
  606TIP3    H123233   2.281   3.174  15.989 -0.2769 -0.1216  0.8394
  606TIP3    H223234   2.134   3.143  16.007 -0.3834  1.0872  2.2310
  607TIP3   OH223235   2.098   1.042   1.458  0.3528 -0.1853 -0.1819
  607TIP3    H123236   2.174   1.056   1.514 -0.5823 -1.6262  1.5801
  607TIP3    H223237   2.133   0.999   1.380  1.1538 -3.0791  1.6221
  608TIP3   OH223238   3.715   5.355   6.599  0.3615 -0.2445  0.1704
  608TIP3    H123239   3.675   5.362   6.512  0.6844 -0.4967 -0.0008
  608TIP3    H223240   3.780   5.425   6.600  0.8183 -0.6616 -0.0424
  609TIP3   OH223241   1.513   4.085  14.234  0.3646  0.0356 -0.4361
  609TIP3    H123242   1.445   4.044  14.181 -0.3421  0.2861  0.2709
  609TIP3    H223243   1.595   4.056  14.194 -0.1380  1.2093 -2.4584
  610TIP3   OH223244   4.799   4.319  15.121 -0.1585  0.5137  0.3475
  610TIP3    H123245   4.813   4.341  15.029  1.0439 -0.3712  0.2990
  610TIP3    H223246   4.705   4.328  15.134 -0.5351 -0.6163 -1.3173
  611TIP3   OH223247   3.496   2.714  16.879 -0.0986 -0.3554 -1.0338
  611TIP3    H123248   3.564   2.656  16.914  0.4705 -0.3379 -2.0859
  611TIP3    H223249   3.428   2.715  16.947  1.7377  1.0814  0.9146
  612TIP3   OH223250   1.417   5.602  14.384 -0.1120 -0.3150  0.2469
  612TIP3    H123251   1.451   5.535  14.325  0.7224  2.4895 -2.7409
  612TIP3    H223252   1.325   5.613  14.359 -0.5111 -0.9274  1.3685
  613TIP3   OH223253   0.599   0.539   1.338  0.0034  0.0820  0.3327
  613TIP3    H123254   0.636   0.459   1.300  1.5305  1.0591 -0.3886
  613TIP3    H223255   0.511   0.545   1.301  0.6625 -0.1558 -1.4164
  614TIP3   OH223256   1.835   1.927  15.680  1.2885 -0.1693 -0.3199
  614TIP3    H123257   1.849   1.897  15.770  2.4386 -0.2829 -0.5303
  614TIP3    H223258   1.769   1.996  15.688  3.2160  1.6164  0.9480
  615TIP3   OH223259   1.340   2.430  12.326  0.2168  0.0528 -0.0134
  615TIP3    H123260   1.270   2.452  12.386 -0.6165  0.0371 -0.9491
  615TIP3    H223261   1.401   2.504  12.331 -1.0800  1.2287 -0.9597
  616TIP3   OH223262   1.043   6.148  12.569 -0.5568 -0.2904  0.4077
  616TIP3    H123263   0.963   6.097  12.578  0.3035 -1.7698  0.1301
  616TIP3    H223264   1.047   6.171  12.477 -1.5034  1.3037  0.7263
  617TIP3   OH223265   3.963   2.732   3.218 -0.7999  1.1904  0.2460
  617TIP3    H123266   3.913   2.653   3.201  1.1447 -0.0705  0.0773
  617TIP3    H223267   3.903   2.788   3.268 -2.1475 -0.4658  0.5894
  618TIP3   OH223268   3.943   4.537   1.651 -0.1846  0.5545  0.2043
  618TIP3    H123269   3.856   4.573   1.668 -1.0092 -0.3550 -1.8202
  618TIP3    H223270   3.933   4.486   1.571  2.1259  0.0600  0.1623
  619TIP3   OH223271   4.094   6.052  14.744  0.6709 -0.1486  0.7111
  619TIP3    H123272   4.034   6.067  14.671 -0.6821  0.4941  1.8856
  619TIP3    H223273   4.180   6.044  14.704 -0.2767 -1.8753 -1.1238
  620TIP3   OH223274   3.146   1.392  11.453 -0.0763 -0.0291 -0.3710
  620TIP3    H123275   3.170   1.352  11.369 -1.1995 -1.4913 -0.0370
  620TIP3    H223276   3.181   1.481  11.448  2.1579 -0.8832 -1.3275
  621TIP3   OH223277   6.086   2.297   3.078 -0.1959 -0.0207 -0.2171
  621TIP3    H123278   6.177   2.267   3.085  0.3608  1.5541 -0.3290
  621TIP3    H223279   6.039   2.246   3.144  1.0076  0.0129  0.7080
  622TIP3   OH223280   1.045   2.293   3.561 -0.3728 -0.0181 -0.1714
  622TIP3    H123281   0.970   2.257   3.608  0.9453 -1.2176  1.1425
  622TIP3    H223282   1.116   2.294   3.626  0.4330  2.3411 -0.9722
  623TIP3   OH223283   2.758   3.335   2.565 -0.0990  0.3141 -0.4979
  623TIP3    H123284   2.766   3.370   2.654 -0.5344  0.3026 -0.4499
  623TIP3    H223285   2.705   3.256   2.575 -1.5998  1.2214 -0.9723
  624TIP3   OH223286   5.993   2.496   4.490  0.0660 -0.4759  0.5458
  624TIP3    H123287   5.906   2.462   4.513  0.1136  0.0173  1.5141
  624TIP3    H223288   6.033   2.519   4.574  2.2535 -3.2888  0.4069
  625TIP3   OH223289   2.713   5.220   3.811 -0.4588  0.4542 -0.0334
  625TIP3    H123290   2.639   5.278   3.791 -1.4578 -0.9525 -0.5307
  625TIP3    H223291   2.775   5.235   3.740 -0.9964  0.4525 -0.5147
  626TIP3   OH223292   2.342   0.296   3.852 -0.5232 -0.1155 -0.6321
  626TIP3    H123293   2.408   0.227   3.854 -0.6150 -0.1913  0.2653
  626TIP3    H223294   2.392   0.377   3.842 -0.2759 -0.1655  0.1333
  627TIP3   OH223295   4.055   2.528  16.796  0.4617  0.1261 -0.0799
  627TIP3    H123296   3.970   2.486  16.791  0.3061  0.5363 -1.7929
  627TIP3    H223297   4.036   2.620  16.817  0.6181 -0.1115  1.1585
  628TIP3   OH223298   0.460   3.617  16.425 -0.3315  0.0106  0.5494
  628TIP3    H123299   0.512   3.695  16.405  0.9842 -0.4715  1.8971
  628TIP3    H223300   0.515   3.544  16.398 -1.8425 -0.5092 -1.3716
  629TIP3   OH223301   3.288   3.136  13.819  0.1087  0.3877  0.3795
  629TIP3    H123302   3.366   3.178  13.854 -0.0242 -0.3905  1.6888
  629TIP3    H223303   3.215   3.186  13.857 -0.0312 -0.1775  0.8815
  630TIP3   OH223304   1.247   5.574  14.991 -0.0841  0.5281 -0.3719
  630TIP3    H123305   1.212   5.631  15.059  0.1074  0.8027 -0.5043
  630TIP3    H223306   1.245   5.486  15.030 -0.3160  0.6332 -0.1466
  631TIP3   OH223307   4.933   1.387   4.277 -0.1770 -0.2710 -0.5773
  631TIP3    H123308   4.907   1.309   4.326 -0.8517  0.9849  1.1727
  631TIP3    H223309   5.023   1.370   4.251 -0.0576 -1.3165  0.4370
  632TIP3   OH223310   3.721   2.582   0.555  0.0570  0.0123  0.8831
  632TIP3    H123311   3.791   2.579   0.621 -0.2571 -0.9881  1.1924
  632TIP3    H223312   3.762   2.625   0.479  0.4621  1.0521  1.6708
  633TIP3   OH223313   2.733   1.504  14.542 -0.3374 -0.8488  0.0264
  633TIP3    H123314   2.684   1.578  14.578  1.7721  0.6470  0.0306
  633TIP3    H223315   2.755   1.531  14.452  0.9076 -1.2009  0.2016
  634TIP3   OH223316   1.770   1.724  15.084  0.4113  0.5718 -0.0829
  634TIP3    H123317   1.689   1.705  15.037  0.9346  0.0499 -0.7971
  634TIP3    H223318   1.836   1.671  15.041  1.0123  0.4521  0.9393
  635TIP3   OH223319   2.006   5.276  12.812 -0.1999 -0.1161 -0.0181
  635TIP3    H123320   2.074   5.336  12.781  0.2219 -0.5516  0.0542
  635TIP3    H223321   1.924   5.317  12.785  0.0498  0.8403  0.6285
  636TIP3   OH223322   3.201   0.318   0.423  0.0647 -0.3320  0.2238
  636TIP3    H123323   3.174   0.407   0.445  1.2272 -0.0765  0.7119
  636TIP3    H223324   3.295   0.316   0.442 -0.0780 -1.8803  0.9634
  637TIP3   OH223325   1.911   2.905   0.971 -0.1471 -0.0128 -0.6827
  637TIP3    H123326   1.824   2.925   1.005 -0.2954  1.2480 -1.7024
  637TIP3    H223327   1.968   2.907   1.047 -0.8122  0.4229 -0.1835
  638TIP3   OH223328   5.507   6.474   4.042  0.5112  0.1127 -0.1473
  638TIP3    H123329   5.457   6.429   4.110 -1.3524 -0.7271 -1.9525
  638TIP3    H223330   5.504   6.566   4.067 -2.2522  0.1437 -0.2526
  639TIP3   OH223331   6.086   2.851   3.692 -0.2996  0.4678 -0.3196
  639TIP3    H123332   6.001   2.892   3.675 -0.3433  0.6020  0.2021
  639TIP3    H223333   6.064   2.761   3.719 -0.4422  1.1174  1.9609
  640TIP3   OH223334   2.935   2.452  12.375 -0.3103 -1.1666 -0.5035
  640TIP3    H123335   2.965   2.543  12.369 -0.3421 -1.2070 -1.3666
  640TIP3    H223336   2.937   2.420  12.285 -1.6437 -1.5912 -0.4032
  641TIP3   OH223337   0.028   0.082  11.965 -0.8791  0.4332  0.0037
  641TIP3    H123338   0.024   0.156  11.905 -0.2029  0.3356 -0.1773
  641TIP3    H223339   0.119   0.082  11.996 -0.6986 -0.6668 -0.4614
  642TIP3   OH223340   4.234   1.645  16.797  0.1648  0.3081 -0.7645
  642TIP3    H123341   4.216   1.702  16.871  0.9998 -0.5720  0.1407
  642TIP3    H223342   4.173   1.674  16.729  0.2461  1.9483 -0.1790
  643TIP3   OH223343   0.857   1.100  11.769 -0.0261  0.3648  0.3188
  643TIP3    H123344   0.811   1.176  11.732 -0.7269  0.0245  0.4806
  643TIP3    H223345   0.794   1.028  11.761  0.0032  0.1585  1.6744
  644TIP3   OH223346   2.772   3.318  11.916  0.1274  0.1667  0.1337
  644TIP3    H123347   2.774   3.314  11.820  2.4453  1.3943  0.0339
  644TIP3    H223348   2.680   3.325  11.938 -0.5725 -1.5438 -1.9150
  645TIP3   OH223349   1.755   3.340  12.242 -0.5642  0.5586 -0.6163
  645TIP3    H123350   1.831   3.392  12.215  0.5814  0.3463  1.9340
  645TIP3    H223351   1.771   3.253  12.204  1.1317  0.1834  0.8516
  646TIP3   OH223352   4.190   4.661  10.479 -0.5175 -0.6072  0.8017
  646TIP3    H123353   4.129   4.733  10.460 -0.3848 -0.5224  0.6993
  646TIP3    H223354   4.135   4.595  10.522 -0.4887 -0.1323  1.5969
  647TIP3   OH223355   6.680   0.880  14.283  0.2501  0.1185  0.0550
  647TIP3    H123356   6.678   0.799  14.333 -0.1660  1.4790  2.4004
  647TIP3    H223357   6.764   0.878  14.237  1.1004 -0.7936  1.5700
  648TIP3   OH223358   0.556   2.308   1.063  0.4331 -0.8434 -0.3302
  648TIP3    H123359   0.463   2.305   1.044 -0.0933 -0.3441  1.8585
  648TIP3    H223360   0.581   2.399   1.045  0.1424 -0.6005  0.4403
  649TIP3   OH223361   1.179   0.369  15.178  0.4806 -0.3710  0.1299
  649TIP3    H123362   1.218   0.379  15.264  1.1180 -2.4956  0.1304
  649TIP3    H223363   1.175   0.275  15.163  2.4432 -0.1044 -3.0571
  650TIP3   OH223364   5.657   6.370  17.198  0.0331 -0.3536 -0.3815
  650TIP3    H123365   5.665   6.307  17.126 -0.8701 -0.9707  0.0369
  650TIP3    H223366   5.710   6.333  17.268 -0.0452 -0.3644 -0.3276
  651TIP3   OH223367   3.287   0.493  16.479 -0.0778 -0.8172  0.2617
  651TIP3    H123368   3.378   0.478  16.505  0.0023 -0.1236  0.4016
  651TIP3    H223369   3.292   0.538  16.395 -0.3028 -1.1877  0.0479
  652TIP3   OH223370   0.003   3.451  12.397  0.0999  0.4500  0.2712
  652TIP3    H123371  -0.055   3.495  12.334 -0.1796  0.5278  0.5784
  652TIP3    H223372  -0.053   3.434  12.473 -0.7458 -3.4120 -0.9963
  653TIP3   OH223373   1.290   6.519   5.780 -0.2023 -0.1074 -0.8854
  653TIP3    H123374   1.248   6.600   5.808  0.3550 -0.5839  1.6228
  653TIP3    H223375   1.234   6.449   5.815  0.2160 -0.7857 -1.5350
  654TIP3   OH223376   5.742   1.749  12.583 -0.1465 -0.1824  0.5215
  654TIP3    H123377   5.817   1.760  12.641  0.7706 -2.9190 -0.0099
  654TIP3    H223378   5.779   1.755  12.495 -0.7420 -0.4413  0.2507
  655TIP3   OH223379   1.785   6.044  12.534  0.3405 -1.0499  0.3920
  655TIP3    H123380   1.849   6.098  12.488  0.9788 -0.7781  1.5520
  655TIP3    H223381   1.700   6.072  12.499  0.8073 -1.0954 -0.8336
  656TIP3   OH223382   0.412   6.098   2.435 -0.0357 -0.4847 -0.3171
  656TIP3    H123383   0.328   6.057   2.453  0.1338 -0.9718 -0.6281
  656TIP3    H223384   0.474   6.053   2.493  0.1413 -0.6397 -0.6213
  657TIP3   OH223385   5.779   3.256  15.283 -0.8944 -0.6687 -0.0106
  657TIP3    H123386   5.767   3.327  15.219 -1.1872 -0.8854 -0.1999
  657TIP3    H223387   5.693   3.246  15.324 -1.0154 -1.2986 -0.3942
  658TIP3   OH223388   5.637   2.645  10.511  0.2833  0.2629  0.1826
  658TIP3    H123389   5.705   2.705  10.541 -0.6412  0.6534  1.5687
  658TIP3    H223390   5.560   2.666  10.564 -0.8636 -0.3318 -1.1624
  659TIP3   OH223391   2.314   2.125   5.019 -0.4735  0.5834  0.1539
  659TIP3    H123392   2.382   2.058   5.026 -1.3114 -0.4570 -1.0062
  659TIP3    H223393   2.347   2.199   5.069  2.9500  1.3323 -2.7848
  660TIP3   OH223394   4.395   3.253   5.242  0.5894 -0.4872 -0.5369
  660TIP3    H123395   4.396   3.162   5.210  0.7083 -0.5821 -0.2636
  660TIP3    H223396   4.368   3.246   5.333 -1.4509 -0.0732 -1.0563
  661TIP3   OH223397   4.473   5.092  12.462  0.4745  0.0109 -0.4668
  661TIP3    H123398   4.470   5.028  12.390  0.9863  0.3931 -0.8378
  661TIP3    H223399   4.499   5.041  12.538  1.3724 -0.1497 -0.8630
  662TIP3   OH223400   4.296   4.149   5.801 -0.1360 -0.1079 -0.2059
  662TIP3    H123401   4.294   4.057   5.827 -0.5992  0.3740  1.6596
  662TIP3    H223402   4.362   4.189   5.858  1.1604  0.4793 -2.0172
  663TIP3   OH223403   5.338   0.454  11.830  0.3674 -0.6008  0.2944
  663TIP3    H123404   5.326   0.359  11.838 -1.0899 -0.5980 -1.2412
  663TIP3    H223405   5.249   0.488  11.821  0.9043  0.8668  0.3355
  664TIP3   OH223406   3.496   0.515   3.482 -0.4889  0.1363 -0.0192
  664TIP3    H123407   3.480   0.602   3.446  0.5979  0.5563  0.4529
  664TIP3    H223408   3.409   0.480   3.500 -0.9429  1.9171  1.5973
  665TIP3   OH223409   0.058   1.008   1.132 -0.3428  0.0986 -0.4874
  665TIP3    H123410   0.134   1.009   1.075  0.4833 -1.7638  0.5120
  665TIP3    H223411   0.051   0.917   1.162 -2.0266  0.5618  0.6705
  666TIP3   OH223412   0.372   0.595  13.875 -0.4431  0.0430 -0.0597
  666TIP3    H123413   0.318   0.578  13.952 -1.9153 -0.3926 -1.1330
  666TIP3    H223414   0.444   0.649  13.908 -0.6233 -0.7260  1.7367
  667TIP3   OH223415   2.843   2.325  15.930 -0.4951  0.4171  0.1260
  667TIP3    H123416   2.826   2.417  15.949 -1.4787 -0.0330  1.6015
  667TIP3    H223417   2.821   2.315  15.837  1.1725  1.9889 -0.4980
  668TIP3   OH223418   5.281   4.430   0.462 -1.0330  0.0443  0.0163
  668TIP3    H123419   5.334   4.377   0.404 -0.1043  1.5636 -0.5905
  668TIP3    H223420   5.201   4.448   0.413 -1.1433 -0.4055  0.0355
  669TIP3   OH223421   5.534   2.218  13.912 -0.1425  0.3448  0.3433
  669TIP3    H123422   5.571   2.155  13.851 -0.9468  1.1180 -1.0000
  669TIP3    H223423   5.440   2.209  13.902 -0.3261 -0.0961  2.1320
  670TIP3   OH223424   4.363   3.829  11.404  0.3127  0.6297 -0.1554
  670TIP3    H123425   4.414   3.878  11.340  0.2182  1.8839  0.6950
  670TIP3    H223426   4.302   3.777  11.352 -0.2383  2.1484 -1.0895
  671TIP3   OH223427   2.131   0.234   6.309  0.1476  0.1602  0.3482
  671TIP3    H123428   2.202   0.292   6.282 -0.6776  1.3368  0.6629
  671TIP3    H223429   2.163   0.192   6.388  0.5664  0.5481  0.3867
  672TIP3   OH223430   6.453   0.585  15.680  0.5166  0.5066 -0.3389
  672TIP3    H123431   6.491   0.498  15.688 -1.0805 -0.1977  0.1325
  672TIP3    H223432   6.369   0.578  15.725  0.7692  2.5764  0.5691
  673TIP3   OH223433   1.204   1.627   4.679  0.6348  0.4307 -0.3230
  673TIP3    H123434   1.155   1.686   4.735  0.6549  0.2987 -0.1657
  673TIP3    H223435   1.287   1.612   4.725  0.4808 -0.0131 -0.1793
  674TIP3   OH223436   1.345   1.663  10.672  0.0842  0.3699 -0.6808
  674TIP3    H123437   1.297   1.590  10.632  0.2593  0.0462 -0.3120
  674TIP3    H223438   1.429   1.624  10.697  0.1237  0.6674 -0.3546
  675TIP3   OH223439   3.063   0.688   1.710  0.1794  0.2158  0.5190
  675TIP3    H123440   3.015   0.685   1.793 -1.0164 -0.3932 -0.1717
  675TIP3    H223441   3.102   0.601   1.702  0.8545  0.4905  0.7494
  676TIP3   OH223442   1.863   0.904   0.613 -0.2915  0.6444 -0.4429
  676TIP3    H123443   1.897   0.939   0.695 -0.2473 -1.2813  0.3957
  676TIP3    H223444   1.790   0.848   0.638  0.2554 -0.6589 -1.6119
  677TIP3   OH223445   5.722   1.903   1.302 -0.4648  0.0724 -0.5733
  677TIP3    H123446   5.778   1.975   1.331 -0.6252  0.5797 -1.4873
  677TIP3    H223447   5.777   1.825   1.309  0.7622  0.6935 -2.4941
  678TIP3   OH223448   0.680   2.043  14.001  0.2381  0.0144 -0.3525
  678TIP3    H123449   0.760   2.095  14.004  0.7155 -0.7549  0.5056
  678TIP3    H223450   0.647   2.045  14.091  0.1019 -0.9223 -0.3738
  679TIP3   OH223451   5.617   6.001  15.485 -0.1028 -0.0553 -0.3672
  679TIP3    H123452   5.529   6.011  15.521 -0.4386  0.7544 -1.3756
  679TIP3    H223453   5.621   5.909  15.457 -0.6382 -0.0923 -0.3256
  680TIP3   OH223454   4.975   2.816  13.036 -0.3371  0.1786 -0.8254
  680TIP3    H123455   4.893   2.851  13.069 -0.0497  0.5522 -0.5011
  680TIP3    H223456   4.961   2.806  12.942 -0.8117  0.0716 -0.7444
  681TIP3   OH223457   6.510   2.545  16.056 -0.1636  0.8956  0.2027
  681TIP3    H123458   6.480   2.568  15.969  0.3682  2.1674  0.3417
  681TIP3    H223459   6.604   2.565  16.056  0.3064 -1.0549  0.4231
  682TIP3   OH223460   5.609   3.395  11.810 -0.1576  0.4642  0.2312
  682TIP3    H123461   5.602   3.486  11.837 -2.1953  0.6544 -0.7843
  682TIP3    H223462   5.555   3.388  11.731  1.5306 -1.1869 -0.9020
  683TIP3   OH223463   2.559   3.020   3.308  0.1356  0.0228  0.6291
  683TIP3    H123464   2.488   2.972   3.265  0.1438 -0.2408  0.9080
  683TIP3    H223465   2.639   2.990   3.264 -0.0118  1.1982 -0.5049
  684TIP3   OH223466   5.426   2.836  10.766  0.0433 -0.2886 -0.1000
  684TIP3    H123467   5.341   2.860  10.729  0.7956  2.5426 -0.1852
  684TIP3    H223468   5.487   2.898  10.726  1.7678 -0.7064  1.7791
  685TIP3   OH223469   1.970   1.306   3.780  0.5014 -0.5665  0.4300
  685TIP3    H123470   1.929   1.390   3.802  0.8899 -0.0485 -0.7634
  685TIP3    H223471   2.062   1.328   3.764  1.4251 -1.7644  3.4380
  686TIP3   OH223472   3.401   6.603  11.672  0.0693  0.0732  0.7596
  686TIP3    H123473   3.472   6.548  11.706  0.2890 -0.1657 -0.0562
  686TIP3    H223474   3.446   6.682  11.641  0.0308 -0.2337 -0.0928
  687TIP3   OH223475   5.880   5.334   4.366  0.7507 -0.2226  0.3738
  687TIP3    H123476   5.813   5.346   4.433 -0.6281 -1.8925 -0.6317
  687TIP3    H223477   5.854   5.392   4.295  0.7004 -0.4129  0.2344
  688TIP3   OH223478   2.255   3.900  15.972 -0.8111 -0.0061  0.0364
  688TIP3    H123479   2.248   3.810  16.003 -1.1273  0.6908  2.1879
  688TIP3    H223480   2.164   3.931  15.969 -0.6207  0.6842  0.8524
  689TIP3   OH223481   1.513   2.849  15.282 -0.2604 -0.0108 -0.2825
  689TIP3    H123482   1.466   2.931  15.271 -1.4972 -0.8318 -1.5569
  689TIP3    H223483   1.569   2.843  15.204  1.0720  0.3707  0.6146
  690TIP3   OH223484   6.485   2.871  16.195 -0.7289 -0.0917 -0.2502
  690TIP3    H123485   6.577   2.880  16.221 -0.5139 -1.3212 -0.5075
  690TIP3    H223486   6.445   2.823  16.268 -0.8606 -0.6911 -0.7052
  691TIP3   OH223487   0.255   4.021   5.247  0.0052 -0.2321 -0.0829
  691TIP3    H123488   0.205   4.076   5.187  0.9015  0.8951  0.1547
  691TIP3    H223489   0.309   4.083   5.296  0.7023 -1.3002  0.5402
  692TIP3   OH223490   4.010   5.189  12.259 -0.1930  0.3018 -0.2438
  692TIP3    H123491   4.060   5.107  12.256  0.0343  0.4277  0.0756
  692TIP3    H223492   3.970   5.195  12.173 -0.3411 -0.2289 -0.2207
  693TIP3   OH223493   6.719   0.223  13.182  0.2580  0.4382  0.0091
  693TIP3    H123494   6.768   0.284  13.127  1.2588  0.7345  1.1638
  693TIP3    H223495   6.661   0.177  13.122  1.5232  0.5104 -1.3342
  694TIP3   OH223496   3.348   4.925  11.001  0.7804 -0.2826  0.4012
  694TIP3    H123497   3.353   4.857  10.934 -1.1313 -0.7438  0.6430
  694TIP3    H223498   3.435   4.927  11.041  2.3466  0.8211 -2.7872
  695TIP3   OH223499   1.496   1.305   0.371 -0.3542  0.5177 -0.4323
  695TIP3    H123500   1.527   1.331   0.284  0.6450 -0.4492 -0.3834
  695TIP3    H223501   1.488   1.210   0.366 -2.6579  0.6475 -0.1973
  696TIP3   OH223502   6.622   1.350  15.037 -0.8509  0.0449 -0.5003
  696TIP3    H123503   6.674   1.397  14.971  0.1567  0.3422  0.4751
  696TIP3    H223504   6.633   1.401  15.117  0.1751 -1.7485  0.5722
  697TIP3   OH223505   3.578   3.022   3.567 -0.0900  0.2698 -0.0910
  697TIP3    H123506   3.503   2.984   3.614  0.8716 -0.4278  0.9101
  697TIP3    H223507   3.538   3.085   3.506 -1.6573 -1.5810 -1.0955
  698TIP3   OH223508   1.931   6.188   3.393 -0.0185 -0.7436 -0.4850
  698TIP3    H123509   2.003   6.249   3.379 -0.3305  0.1191  1.4423
  698TIP3    H223510   1.898   6.169   3.305  0.2549  1.6413 -1.1606
  699TIP3   OH223511   3.823   0.615  13.768  0.0334 -0.0955  0.6082
  699TIP3    H123512   3.818   0.678  13.697 -0.0178 -2.0898 -1.2430
  699TIP3    H223513   3.890   0.650  13.827 -0.4624  1.9706  0.0165
  700TIP3   OH223514   2.335   1.432   2.040 -0.2756  0.6238 -0.5030
  700TIP3    H123515   2.367   1.386   2.118  0.5974  1.4065 -0.3820
  700TIP3    H223516   2.290   1.365   1.989 -1.4384  0.2131  0.9715
  701TIP3   OH223517   4.434   3.490  10.444 -0.4522  0.5465 -0.0437
  701TIP3    H123518   4.409   3.578  10.418 -1.9433  0.0314 -0.4648
  701TIP3    H223519   4.370   3.433  10.402 -0.4999 -0.6227  1.5097
  702TIP3   OH223520   4.510   5.345   1.509  0.0304 -0.2102  0.2716
  702TIP3    H123521   4.443   5.392   1.559  1.5098  2.3013  0.0781
  702TIP3    H223522   4.464   5.313   1.431 -1.2258  0.2613  0.7981
  703TIP3   OH223523   0.863   1.756   6.505  0.4108 -0.5105  0.0954
  703TIP3    H123524   0.776   1.743   6.467  0.3702  1.2899 -0.4776
  703TIP3    H223525   0.897   1.667   6.517 -1.3272 -1.2295 -0.0676
  704TIP3   OH223526   5.780   6.479   2.253  0.1207  0.7238 -0.1802
  704TIP3    H123527   5.851   6.414   2.256 -1.0926 -1.0382 -3.7026
  704TIP3    H223528   5.726   6.459   2.329  0.9305 -1.0200 -0.0198
  705TIP3   OH223529   0.660   4.073   1.881  0.3910  0.6954 -0.1510
  705TIP3    H123530   0.684   4.119   1.961 -1.0819  1.8038 -0.3157
  705TIP3    H223531   0.602   4.003   1.910  0.0970  0.9123 -0.2097
  706TIP3   OH223532   5.065   4.422  14.217  0.5922 -0.2931 -0.7440
  706TIP3    H123533   5.148   4.381  14.240  1.0118  0.7855 -0.2693
  706TIP3    H223534   5.054   4.492  14.282 -1.9182 -1.9429  0.7843
  707TIP3   OH223535   5.080   5.984  10.359  0.0383  0.4606  0.3059
  707TIP3    H123536   5.162   6.018  10.322 -0.5398  2.5457  0.8009
  707TIP3    H223537   5.031   6.063  10.384 -0.8524 -0.7799  2.7774
  708TIP3   OH223538   2.245   3.326   3.096  0.2894  0.2978 -0.4536
  708TIP3    H123539   2.164   3.340   3.144 -0.3162  0.9739 -1.6143
  708TIP3    H223540   2.280   3.414   3.083  1.8774 -0.0500  1.0796
  709TIP3   OH223541   1.362   5.958   0.989  0.2977  0.4422  0.4276
  709TIP3    H123542   1.291   6.014   1.020  0.3618  0.7185  0.0845
  709TIP3    H223543   1.329   5.869   1.001 -1.0131  0.5670 -1.7060
  710TIP3   OH223544   4.771   0.901   1.923 -0.0818 -0.5188  0.5086
  710TIP3    H123545   4.803   0.937   2.005  0.2603 -0.2240  0.2472
  710TIP3    H223546   4.721   0.824   1.949 -3.0444  1.5013  1.3438
  711TIP3   OH223547   3.808   4.030   4.902  0.7025  0.6520  0.1915
  711TIP3    H123548   3.776   4.004   4.816 -0.7399  1.7682  0.3678
  711TIP3    H223549   3.793   4.124   4.907 -1.4434  0.2827  2.5297
  712TIP3   OH223550   6.407   0.133  11.512  0.3305  0.5871 -0.3525
  712TIP3    H123551   6.335   0.070  11.518  2.2686 -1.6452  2.1705
  712TIP3    H223552   6.465   0.098  11.445  0.8134  0.3188  0.1931
  713TIP3   OH223553   0.092   4.084   4.266  0.0117  0.5427 -0.3317
  713TIP3    H123554   0.137   4.001   4.280  3.2655  1.7269 -2.5597
  713TIP3    H223555   0.026   4.065   4.200  1.5304 -0.1426 -1.7284
  714TIP3   OH223556   3.514   3.937  12.220  0.4890  0.0198 -0.0342
  714TIP3    H123557   3.493   4.005  12.156  0.9968  0.8213  0.6232
  714TIP3    H223558   3.479   3.856  12.182 -0.0334  0.6263 -0.8843
  715TIP3   OH223559   6.127   1.044  13.826  0.0219 -0.2944  0.6201
  715TIP3    H123560   6.062   1.016  13.891 -0.2378  0.4016  0.6711
  715TIP3    H223561   6.195   1.087  13.877 -0.2477  0.3749  0.4335
  716TIP3   OH223562   0.271   4.900  11.295 -0.0072 -0.2213  0.2690
  716TIP3    H123563   0.235   4.985  11.322  0.5970  0.6741 -1.5578
  716TIP3    H223564   0.194   4.847  11.275 -0.4054 -0.2496  1.7628
  717TIP3   OH223565   0.701   6.212  14.495 -0.4392  0.5067  0.6355
  717TIP3    H123566   0.742   6.178  14.415  0.4524 -1.1259  1.7193
  717TIP3    H223567   0.775   6.241  14.549 -0.9938  1.1476  1.0662
  718TIP3   OH223568   3.177   3.615  14.803  0.2752 -0.2929  0.3197
  718TIP3    H123569   3.223   3.544  14.848 -0.6581 -0.4244  1.0985
  718TIP3    H223570   3.085   3.602  14.826 -0.1107  0.2386 -0.8198
  719TIP3   OH223571   0.850   2.069  12.598  0.0796 -0.1565  0.7044
  719TIP3    H123572   0.926   2.124  12.579 -0.6718  0.6340 -0.1297
  719TIP3    H223573   0.794   2.080  12.521 -1.4889  0.3496  1.8817
  720TIP3   OH223574   1.935   0.659   1.462  0.6918  0.1147 -0.1119
  720TIP3    H123575   1.859   0.707   1.429 -1.1115 -0.0491  3.3119
  720TIP3    H223576   1.945   0.586   1.402 -2.4133 -0.2893 -0.3100
  721TIP3   OH223577   2.325   0.581   2.802  0.3006 -0.5371  0.0720
  721TIP3    H123578   2.293   0.527   2.874  3.0652 -1.7471  0.5152
  721TIP3    H223579   2.293   0.669   2.821 -1.3746 -1.3652  1.2318
  722TIP3   OH223580   5.677   1.273   3.315  0.0355 -0.1854 -0.0090
  722TIP3    H123581   5.664   1.366   3.296  0.8505  0.3834  1.9301
  722TIP3    H223582   5.589   1.235   3.310 -0.3439  0.7246 -0.5557
  723TIP3   OH223583   5.596   6.224  13.595 -0.6544 -0.0252  0.5563
  723TIP3    H123584   5.683   6.212  13.557 -1.2785 -0.0105 -0.9622
  723TIP3    H223585   5.605   6.197  13.686  0.5430 -1.6481  0.0003
  724TIP3   OH223586   5.240   3.083   2.201 -0.5170  0.8537 -0.1405
  724TIP3    H123587   5.179   3.156   2.211  0.4005  1.5560  0.4350
  724TIP3    H223588   5.219   3.046   2.116 -1.4889  1.3284 -0.1183
  725TIP3   OH223589   5.158   2.947  16.001 -0.4218 -0.1066 -0.1060
  725TIP3    H123590   5.167   2.990  16.086 -1.3457 -0.3399  0.1263
  725TIP3    H223591   5.083   2.888  16.012  0.9164 -1.9626 -0.3415
  726TIP3   OH223592   0.098   4.902  17.088  0.1072  0.0960  0.2816
  726TIP3    H123593   0.041   4.906  17.012  0.6133 -1.0421 -0.1660
  726TIP3    H223594   0.122   4.994  17.105 -0.8807  0.4577 -0.2421
  727TIP3   OH223595   2.488   3.180   2.995 -0.3705 -0.3311  0.3805
  727TIP3    H123596   2.414   3.220   3.041 -0.6221 -0.5378  0.1601
  727TIP3    H223597   2.565   3.227   3.027 -0.5442 -0.4652  1.0091
  728TIP3   OH223598   6.069   0.361  14.001 -0.1880 -0.1250  0.2075
  728TIP3    H123599   6.123   0.435  14.029 -0.3354  0.1935 -0.3338
  728TIP3    H223600   6.041   0.320  14.083  1.1806 -0.5371  0.4971
  729TIP3   OH223601   2.146   3.406  10.975 -0.1621  0.7069 -0.0005
  729TIP3    H123602   2.113   3.419  10.887  1.2090 -1.7161 -0.9693
  729TIP3    H223603   2.231   3.450  10.976  0.0257  0.3514 -0.0534
  730TIP3   OH223604   1.230   6.361  13.605  0.1667  0.1822  0.2522
  730TIP3    H123605   1.268   6.280  13.641  0.0988  0.6183  1.3059
  730TIP3    H223606   1.300   6.425  13.613  0.2058  0.2491 -0.5536
  731TIP3   OH223607   1.178   1.012   5.424  0.2142 -0.0430 -0.3326
  731TIP3    H123608   1.229   1.041   5.500 -1.8189  1.1193  0.6911
  731TIP3    H223609   1.147   0.925   5.449  0.1188  0.0489 -0.1245
  732TIP3   OH223610   1.683   5.964   2.738 -0.2683 -0.2756 -0.2055
  732TIP3    H123611   1.659   5.963   2.646  0.7241  1.1532 -0.5128
  732TIP3    H223612   1.605   5.999   2.782 -1.0693 -1.7798 -0.3553
  733TIP3   OH223613   3.290   2.943  14.419 -0.0550  0.2809 -0.0740
  733TIP3    H123614   3.340   2.871  14.456 -0.5510  0.2660  0.5732
  733TIP3    H223615   3.278   3.004  14.491 -1.2318  0.1404 -0.1323
  734TIP3   OH223616   5.238   2.143   4.328 -0.1967 -0.2710 -0.1962
  734TIP3    H123617   5.320   2.117   4.370  0.6415  2.5021  0.0744
  734TIP3    H223618   5.265   2.204   4.259 -2.0031  0.3875 -0.3712
  735TIP3   OH223619   1.822   3.043   2.302  0.1156 -0.5464  0.3817
  735TIP3    H123620   1.814   3.038   2.207 -0.8503 -0.4269  0.4379
  735TIP3    H223621   1.916   3.040   2.319  0.4025  1.1703 -0.6823
  736TIP3   OH223622   5.162   1.819  13.343  0.1492 -0.1967 -0.3568
  736TIP3    H123623   5.129   1.780  13.262  0.2017  1.7531 -1.3834
  736TIP3    H223624   5.214   1.894  13.314  1.0414 -0.0513  1.4612
  737TIP3   OH223625   0.956   5.231   2.648 -0.7236 -0.5475 -0.3249
  737TIP3    H123626   0.969   5.325   2.663 -2.5398 -0.5878  1.9691
  737TIP3    H223627   0.964   5.221   2.553 -1.4321  2.0944 -0.7392
  738TIP3   OH223628   1.653   1.305   0.006  0.3376 -0.2595  0.2244
  738TIP3    H123629   1.688   1.355   0.081  1.3813  0.3524 -0.6373
  738TIP3    H223630   1.593   1.365  -0.037  0.8986 -0.0499 -0.2866
  739TIP3   OH223631   2.089   2.939   5.563 -0.2620  0.1671 -0.1099
  739TIP3    H123632   2.167   2.919   5.615 -0.1667  0.8068  0.0058
  739TIP3    H223633   2.044   2.855   5.554  0.0044 -0.0555  0.5373
  740TIP3   OH223634   4.905   3.630   3.489  0.0444  0.1955 -0.3033
  740TIP3    H123635   4.903   3.649   3.583 -0.5773  0.4873 -0.3729
  740TIP3    H223636   4.952   3.547   3.483 -0.4025 -0.1140  0.3229
  741TIP3   OH223637   5.170   2.840  16.502  0.2709  0.3359 -0.0239
  741TIP3    H123638   5.265   2.825  16.507  0.3755  0.6247 -0.9020
  741TIP3    H223639   5.161   2.935  16.515  0.1176  0.3266 -0.0600
  742TIP3   OH223640   0.797   0.671   6.492  0.8805  0.1501 -0.1140
  742TIP3    H123641   0.873   0.613   6.490  0.9982  0.2471  1.0650
  742TIP3    H223642   0.831   0.756   6.519  0.2298 -0.0643  1.4945
  743TIP3   OH223643   4.992   0.034   0.752  0.0815 -0.1473 -0.0031
  743TIP3    H123644   5.067   0.088   0.728  0.1678 -0.2208  0.0972
  743TIP3    H223645   5.028  -0.030   0.814 -0.4752  1.1767  1.7700
  744TIP3   OH223646   1.444   1.682   5.444  0.0021  0.2562 -0.0485
  744TIP3    H123647   1.538   1.689   5.426 -0.3158  0.9754 -1.5262
  744TIP3    H223648   1.420   1.769   5.478 -0.1599  0.1069  0.2237
  745TIP3   OH223649   4.286   0.877  17.143 -0.1685  0.4081  0.8928
  745TIP3    H123650   4.342   0.940  17.098 -1.4674  1.8049  1.1765
  745TIP3    H223651   4.337   0.850  17.220  1.1619 -0.3565 -0.2020
  746TIP3   OH223652   1.158   1.991  14.063  0.3227 -0.5288 -0.0156
  746TIP3    H123653   1.154   1.928  13.991  1.9728  1.5574 -2.0803
  746TIP3    H223654   1.239   2.040  14.048 -0.7251  1.9143  1.6310
  747TIP3   OH223655   3.823   4.928   1.799 -0.4587 -0.1990 -0.7432
  747TIP3    H123656   3.858   4.977   1.724  0.2146 -0.1593 -0.4162
  747TIP3    H223657   3.792   4.846   1.761  1.2953 -0.8413 -0.8712
  748TIP3   OH223658   3.737   3.853   4.229  0.6678 -0.0692  0.1853
  748TIP3    H123659   3.764   3.777   4.280  1.9389  1.8364  2.5525
  748TIP3    H223660   3.658   3.885   4.274  2.4782  2.3386  1.8930
  749TIP3   OH223661   1.688   1.541   5.808 -0.1884 -0.2115  0.2141
  749TIP3    H123662   1.660   1.538   5.899 -1.6915  1.0540 -0.1452
  749TIP3    H223663   1.712   1.633   5.793 -1.1291 -0.1180 -0.9417
  750TIP3   OH223664   0.416   1.838  15.555 -0.4555 -0.0982  0.4684
  750TIP3    H123665   0.444   1.795  15.637  0.8818  1.1386  0.6940
  750TIP3    H223666   0.474   1.802  15.488 -0.1227  0.4464  0.4540
  751TIP3   OH223667   3.612   0.257   2.590 -0.0329 -0.8848 -0.3821
  751TIP3    H123668   3.572   0.344   2.585 -1.3507 -1.3056  1.7856
  751TIP3    H223669   3.579   0.211   2.512  0.5883  0.4748 -1.4893
  752TIP3   OH223670   1.195   1.253  15.846  0.8714 -0.0109 -0.2210
  752TIP3    H123671   1.105   1.231  15.823  0.5143 -0.6341  1.5899
  752TIP3    H223672   1.189   1.341  15.885  0.9470 -0.2580  0.3629
  753TIP3   OH223673   6.603   3.082   2.196  0.1197  0.4689  0.6737
  753TIP3    H123674   6.543   3.048   2.130 -1.7415  0.2212  2.3767
  753TIP3    H223675   6.687   3.090   2.151 -0.8468 -0.5257 -1.4402
  754TIP3   OH223676   6.007   4.293   4.766  0.0953 -0.4948  0.0958
  754TIP3    H123677   6.097   4.286   4.734  0.1838  1.0781 -0.0607
  754TIP3    H223678   6.008   4.367   4.827 -0.8640 -1.1645  0.9700
  755TIP3   OH223679   2.328   5.240  11.404 -0.5205 -0.1879  0.0015
  755TIP3    H123680   2.355   5.325  11.370  2.0723 -0.7621  0.4102
  755TIP3    H223681   2.390   5.178  11.366 -0.5755 -1.4991  1.8982
  756TIP3   OH223682   5.050   3.592  11.689 -0.4559 -0.3237 -0.4697
  756TIP3    H123683   4.973   3.540  11.711 -1.6406  0.3817 -2.6553
  756TIP3    H223684   5.019   3.682  11.684  1.2112  0.4448  1.5879
  757TIP3   OH223685   0.985   1.899   1.836  0.1568  0.2228  0.5210
  757TIP3    H123686   0.977   1.821   1.892 -0.4028 -0.4322 -0.4269
  757TIP3    H223687   1.073   1.893   1.798  0.0334 -0.0832  0.2755
  758TIP3   OH223688   5.360   6.227   1.317  0.3196  0.0791 -0.2894
  758TIP3    H123689   5.301   6.183   1.377 -1.0025 -1.9813 -2.8765
  758TIP3    H223690   5.311   6.304   1.287  0.1644  0.0044 -0.2261
  759TIP3   OH223691   2.158   5.292   0.471  0.0738 -0.6860  0.1611
  759TIP3    H123692   2.244   5.284   0.430  0.0430 -0.2821  0.0113
  759TIP3    H223693   2.100   5.240   0.415 -0.1043  0.4237 -0.7408
  760TIP3   OH223694   4.183   4.519  11.202  0.0304  0.3291  0.2409
  760TIP3    H123695   4.182   4.596  11.145  0.7325  0.5716  0.5517
  760TIP3    H223696   4.226   4.452  11.150 -0.9889 -0.0113 -0.2058
  761TIP3   OH223697   6.536   1.053   2.511  0.0653 -0.1174 -0.2826
  761TIP3    H123698   6.631   1.057   2.507 -0.0074  2.5036 -1.3867
  761TIP3    H223699   6.512   0.978   2.457  1.4875 -1.9818  1.5201
  762TIP3   OH223700   0.418   1.848  17.407  0.1411  0.2240  0.0448
  762TIP3    H123701   0.474   1.802  17.345  0.7374 -0.1282  0.8225
  762TIP3    H223702   0.479   1.898  17.461 -0.2468 -0.4354  1.1320
  763TIP3   OH223703   2.347   2.944  15.959 -0.6494 -0.3082  0.6543
  763TIP3    H123704   2.398   2.873  15.999 -1.9586 -1.7584 -0.1391
  763TIP3    H223705   2.380   2.950  15.870  0.6846  1.3587  1.2103
  764TIP3   OH223706   3.514   6.714   3.882  0.0513 -0.2447 -0.1235
  764TIP3    H123707   3.493   6.806   3.896 -0.0053 -0.1845 -0.5906
  764TIP3    H223708   3.437   6.667   3.914  0.5973 -0.2116  1.3325
  765TIP3   OH223709   0.886   6.111  14.287 -0.9684 -0.8439  0.4521
  765TIP3    H123710   0.918   6.197  14.314 -1.5979 -0.8936  1.4340
  765TIP3    H223711   0.945   6.084  14.217 -0.6883  0.3309  0.2089
  766TIP3   OH223712   6.017   3.423   0.814  0.3003  0.1133  0.2471
  766TIP3    H123713   6.104   3.435   0.853  0.4984  1.5626 -0.5643
  766TIP3    H223714   5.980   3.511   0.812 -0.8487 -0.3613 -0.2364
  767TIP3   OH223715   6.515   4.168   2.394 -0.7988 -0.7962 -0.1155
  767TIP3    H123716   6.558   4.083   2.381  0.6530  0.1690 -2.1571
  767TIP3    H223717   6.458   4.178   2.318  0.1326  0.6506 -0.6613
  768TIP3   OH223718   6.350   2.710  16.988 -0.3306  0.1066 -0.4662
  768TIP3    H123719   6.386   2.629  16.953 -1.2904 -0.4281 -0.2414
  768TIP3    H223720   6.256   2.693  16.996 -0.3824  0.8511  0.6433
  769TIP3   OH223721   1.946   0.716   0.412  0.5148 -0.1266 -0.7668
  769TIP3    H123722   1.879   0.769   0.455  1.0141  1.1991 -1.5642
  769TIP3    H223723   1.914   0.626   0.419  0.6324 -0.0665  2.5105
  770TIP3   OH223724   1.477   2.440   0.657 -0.1392 -0.4919 -0.2711
  770TIP3    H123725   1.506   2.489   0.580  0.6988 -0.3767  0.1008
  770TIP3    H223726   1.389   2.471   0.674 -0.0218  0.0869 -0.6978
  771TIP3   OH223727   3.319   2.115   4.166 -0.0758 -0.0042 -0.2648
  771TIP3    H123728   3.312   2.209   4.146  0.8358  0.1950  0.3192
  771TIP3    H223729   3.412   2.095   4.156 -0.5938 -1.4521 -2.9084
  772TIP3   OH223730   4.092   6.666  16.757  0.0131 -0.1622 -0.6730
  772TIP3    H123731   4.022   6.732  16.769 -2.0570 -2.1654 -1.0146
  772TIP3    H223732   4.169   6.705  16.798 -1.0861  2.4904 -0.9200
  773TIP3   OH223733   0.009   0.739  15.885 -0.3168 -0.1708  0.2110
  773TIP3    H123734   0.046   0.792  15.815  0.2826 -1.7881 -0.7569
  773TIP3    H223735   0.009   0.650  15.850 -0.7609 -0.9050  1.9670
  774TIP3   OH223736   0.543   5.168   2.944 -0.0988 -0.4567 -0.0453
  774TIP3    H123737   0.618   5.225   2.926  1.6648 -2.6974 -0.3464
  774TIP3    H223738   0.499   5.160   2.859  0.5813 -0.7839 -0.3757
  775TIP3   OH223739   5.990   4.939  16.152  0.3572  0.3440  0.2507
  775TIP3    H123740   5.979   5.030  16.123  1.2068  0.1996 -0.5755
  775TIP3    H223741   5.920   4.926  16.216 -0.7030  1.1335 -0.7001
  776TIP3   OH223742   3.707   5.761   2.169 -0.1904  0.3384  0.3073
  776TIP3    H123743   3.698   5.854   2.149 -1.3911  0.7430  2.4685
  776TIP3    H223744   3.797   5.752   2.202  0.0838  0.6027 -0.3429
  777TIP3   OH223745   5.272   3.294   4.860 -0.4123  0.5254  0.0431
  777TIP3    H123746   5.176   3.294   4.864 -0.4149  2.1158  2.2559
  777TIP3    H223747   5.299   3.304   4.952  1.9018 -0.3081 -0.4815
  778TIP3   OH223748   5.096   6.031   2.819  0.3580  0.0504  0.4577
  778TIP3    H123749   5.171   6.003   2.871 -0.2792 -1.1650  0.7675
  778TIP3    H223750   5.027   5.968   2.841 -1.5020  2.4333  1.9531
  779TIP3   OH223751   1.560   5.072   2.464  0.2544 -0.3061  0.1654
  779TIP3    H123752   1.475   5.029   2.468 -0.2828  0.5371 -1.4090
  779TIP3    H223753   1.605   5.029   2.391  0.2066  0.8953 -0.5931
  780TIP3   OH223754   6.666   2.234   4.122  0.1696 -0.0832 -0.2331
  780TIP3    H123755   6.594   2.257   4.064 -0.4275 -3.4853 -1.0407
  780TIP3    H223756   6.717   2.169   4.073  2.4088  0.3945  1.2761
  781TIP3   OH223757   4.709   4.526   2.053  0.4976  0.1382  0.4761
  781TIP3    H123758   4.660   4.460   2.102 -0.1487  0.8586  0.8408
  781TIP3    H223759   4.756   4.477   1.986 -0.6417 -0.6070  0.1910
  782TIP3   OH223760   5.089   2.771  12.655  0.2158 -0.5329  0.8038
  782TIP3    H123761   5.004   2.792  12.693  0.9749  3.0338  0.8843
  782TIP3    H223762   5.072   2.765  12.561  0.1323  2.6430  0.5233
  783TIP3   OH223763   4.768   1.551  16.207 -0.1834  0.7384  0.0444
  783TIP3    H123764   4.685   1.506  16.227 -0.5528  0.9952 -0.8639
  783TIP3    H223765   4.741   1.637  16.174  0.5269  2.4134  3.3886
  784TIP3   OH223766   2.073   6.700  14.575 -0.3564 -0.3824  0.1167
  784TIP3    H123767   2.119   6.620  14.602  1.7057  1.1578  1.5789
  784TIP3    H223768   1.982   6.674  14.565 -0.0111 -2.6170  2.0132
  785TIP3   OH223769   0.452   4.401  14.095  0.1881  0.2715  0.5228
  785TIP3    H123770   0.504   4.476  14.124  2.1520 -0.7731 -0.1354
  785TIP3    H223771   0.362   4.432  14.099  0.9301  2.7082  0.2014
  786TIP3   OH223772   2.895   2.151   1.278  0.2976  0.0939 -0.2638
  786TIP3    H123773   2.873   2.081   1.339 -1.0311 -0.1620 -1.0040
  786TIP3    H223774   2.978   2.122   1.238  1.3973  0.4547  1.6376
  787TIP3   OH223775   3.322   6.443   3.414 -0.6140 -0.1736  0.0209
  787TIP3    H123776   3.378   6.478   3.344 -1.2506  2.1141  0.5584
  787TIP3    H223777   3.384   6.414   3.481 -0.0274 -0.8356 -0.7947
  788TIP3   OH223778   5.348   5.668  16.349  0.3319  0.4569  0.5017
  788TIP3    H123779   5.272   5.711  16.387  0.0428 -0.1553  0.6323
  788TIP3    H223780   5.366   5.594  16.407  0.0911 -0.2999 -0.3495
  789TIP3   OH223781   5.805   2.625   0.069 -0.5667 -0.1985 -0.1628
  789TIP3    H123782   5.752   2.548   0.047 -1.0020  0.2592 -0.7590
  789TIP3    H223783   5.827   2.663  -0.016  1.2151 -0.6948  0.0385
  790TIP3   OH223784   6.051   3.835  16.299  0.4756  0.7566 -0.4021
  790TIP3    H123785   6.073   3.868  16.212  3.3361 -1.4857 -0.6884
  790TIP3    H223786   6.001   3.754  16.283 -1.4469  1.7654  0.1714
  791TIP3   OH223787   6.672   5.030   6.036 -0.6126  0.4473  0.2510
  791TIP3    H123788   6.742   5.019   6.100 -1.5806 -1.5239  1.0559
  791TIP3    H223789   6.601   4.975   6.068 -0.5293 -2.1418 -3.4128
  792TIP3   OH223790   1.979   3.454  12.107 -0.2551  0.2402  0.6106
  792TIP3    H123791   1.984   3.529  12.167  0.9146 -0.3872  1.3387
  792TIP3    H223792   2.011   3.488  12.024 -0.0794  0.6457  0.8388
  793TIP3   OH223793   6.147   5.043  11.671 -0.4564  0.1713 -0.1129
  793TIP3    H123794   6.138   4.957  11.713 -1.0078 -1.5914 -3.4573
  793TIP3    H223795   6.096   5.035  11.590  2.0221  2.5402 -2.0971
  794TIP3   OH223796   4.358   1.254  12.722  0.2244 -0.2042  0.5628
  794TIP3    H123797   4.384   1.332  12.772 -1.8615 -0.0478  1.4984
  794TIP3    H223798   4.364   1.182  12.784  2.9294 -1.0376 -0.5096
  795TIP3   OH223799   0.639   4.171  12.734 -0.3798  0.0471  0.1059
  795TIP3    H123800   0.685   4.123  12.665  1.5946  0.5204  1.0300
  795TIP3    H223801   0.698   4.169  12.809 -2.2187  0.0380  1.6496
  796TIP3   OH223802   4.896   2.318  11.047  0.1004  0.1837  0.4625
  796TIP3    H123803   4.881   2.249  11.111 -2.3701  0.5942  0.4490
  796TIP3    H223804   4.904   2.273  10.964  1.5527 -0.2363  0.8031
  797TIP3   OH223805   5.630   5.805  14.082 -0.2162  0.2805 -0.3820
  797TIP3    H123806   5.624   5.889  14.127  1.4132 -0.4261  1.2930
  797TIP3    H223807   5.568   5.749  14.128 -1.8873  0.7148 -2.0047
  798TIP3   OH223808   0.577   0.185  15.135 -0.2395  0.7540  0.3342
  798TIP3    H123809   0.625   0.148  15.061 -1.1284 -0.6128  0.3950
  798TIP3    H223810   0.631   0.165  15.211  1.3810  3.3986 -0.0012
  799TIP3   OH223811   4.176   3.346   0.453  0.1188 -0.1297  0.0141
  799TIP3    H123812   4.217   3.311   0.374  1.5877  0.3207  0.5263
  799TIP3    H223813   4.244   3.402   0.491 -1.1422  0.9482  0.7344
  800TIP3   OH223814   0.395   3.607   0.941 -0.0774 -0.2783 -0.1640
  800TIP3    H123815   0.465   3.632   1.001 -0.9677  1.9600  0.0342
  800TIP3    H223816   0.360   3.690   0.909 -2.3774 -1.3324 -0.5844
  801TIP3   OH223817   4.144   0.650  12.780 -0.0431 -0.3342  0.3131
  801TIP3    H123818   4.074   0.618  12.724 -2.0305  1.9416  1.3420
  801TIP3    H223819   4.173   0.573  12.829 -0.8451 -1.5877 -1.0954
  802TIP3   OH223820   6.095   5.984   4.612 -0.1989  0.0274  0.7147
  802TIP3    H123821   6.187   5.984   4.638  1.3853 -0.2816 -3.9157
  802TIP3    H223822   6.065   6.074   4.626  2.0233  1.1155 -0.9705
  803TIP3   OH223823   0.438   5.050   3.996 -0.0037 -0.1397  0.4080
  803TIP3    H123824   0.532   5.041   4.012  0.1455 -1.4400 -1.0119
  803TIP3    H223825   0.427   5.142   3.969  0.0415  1.5788  5.2849
  804TIP3   OH223826   4.882   3.384  12.005  0.6166  0.4440  0.6074
  804TIP3    H123827   4.807   3.362  12.060  1.0133  0.2979  1.0991
  804TIP3    H223828   4.843   3.416  11.923  0.0189  0.8750  1.0494
  805TIP3   OH223829   2.318   4.475  15.543 -0.2085 -0.1531 -0.2167
  805TIP3    H123830   2.285   4.393  15.508  0.3357 -0.6739  0.4572
  805TIP3    H223831   2.293   4.474  15.636 -0.6650  0.6898 -0.3184
  806TIP3   OH223832   3.564   3.715   2.538 -0.2467 -0.4069 -0.0526
  806TIP3    H123833   3.476   3.741   2.512 -0.8358 -2.2122  0.0167
  806TIP3    H223834   3.620   3.787   2.509 -1.6966  0.6390 -0.3445
  807TIP3   OH223835   4.106   4.754   1.699 -0.1988  0.4519  0.5148
  807TIP3    H123836   4.066   4.816   1.759 -0.9444 -0.3523  0.8620
  807TIP3    H223837   4.042   4.683   1.690 -0.2531  0.6935 -1.4888
  808TIP3   OH223838   0.633   4.846   6.414 -0.3055  0.6709 -0.5056
  808TIP3    H123839   0.580   4.885   6.345 -0.3422 -1.6369 -1.8834
  808TIP3    H223840   0.580   4.773   6.447  1.4203 -0.8957 -1.0375
  809TIP3   OH223841   3.562   4.892   2.779 -0.4967  0.5230 -0.1953
  809TIP3    H123842   3.606   4.828   2.723  0.2768 -0.2622  1.2514
  809TIP3    H223843   3.620   4.969   2.777  0.8858 -0.4061  1.4771
  810TIP3   OH223844   3.219   5.279  12.910  0.3081  0.3828 -0.0210
  810TIP3    H123845   3.245   5.330  12.833  0.4346  0.0660 -0.1871
  810TIP3    H223846   3.165   5.208  12.875  0.6756  0.0172  0.1389
  811TIP3   OH223847   5.418   6.497  11.330 -0.0460  0.1737 -0.8219
  811TIP3    H123848   5.408   6.455  11.415  3.1727 -0.4296 -0.6283
  811TIP3    H223849   5.440   6.588  11.350 -3.2143  1.1664 -1.1970
  812TIP3   OH223850   6.539   2.226   2.431 -0.2764  0.5503 -0.3142
  812TIP3    H123851   6.563   2.134   2.435 -0.6124  0.4938  0.6507
  812TIP3    H223852   6.623   2.273   2.440 -0.2201  0.3371  0.3634
  813TIP3   OH223853   5.455   0.015   4.744  0.0133 -0.4038 -0.0806
  813TIP3    H123854   5.536   0.037   4.696 -0.2332 -1.7074 -1.1441
  813TIP3    H223855   5.464   0.061   4.827  0.8500  1.2686 -1.0289
  814TIP3   OH223856   2.610   5.866   5.613 -0.4090 -0.2112 -0.8107
  814TIP3    H123857   2.524   5.824   5.602 -1.1026  1.3873 -2.0114
  814TIP3    H223858   2.623   5.870   5.707 -1.3495 -1.0974 -0.6289
  815TIP3   OH223859   1.024   0.080  16.981  0.1602  0.3815  0.2691
  815TIP3    H123860   1.089   0.127  17.033  0.0685  1.9173 -0.9295
  815TIP3    H223861   1.077   0.028  16.919  0.2957  1.6335 -0.7079
  816TIP3   OH223862   6.062   3.189   0.392 -0.5796  0.3617 -0.3481
  816TIP3    H123863   6.034   3.250   0.324  2.7630  1.0412 -1.2787
  816TIP3    H223864   6.109   3.244   0.455 -2.4551 -0.4653  1.9205
  817TIP3   OH223865   4.663   2.988  11.713 -0.0590 -0.0915  0.1836
  817TIP3    H123866   4.622   3.027  11.790 -1.0431 -1.3203  0.3150
  817TIP3    H223867   4.757   2.985  11.735 -0.1627  0.7442  0.7820
  818TIP3   OH223868   0.709   3.438  17.161  0.2902  0.0087 -0.4597
  818TIP3    H123869   0.766   3.407  17.232  1.4369  0.7149 -1.0376
  818TIP3    H223870   0.760   3.507  17.117 -0.4638 -0.2750 -1.8508
  819TIP3   OH223871   2.197   6.008   0.570  0.1414  0.4425 -0.1274
  819TIP3    H123872   2.154   6.086   0.536 -0.4256  0.2867  0.2283
  819TIP3    H223873   2.215   6.029   0.662  2.4442  1.1997 -0.6800
  820TIP3   OH223874   1.604   0.881  14.887 -0.4080  0.9237 -0.3671
  820TIP3    H123875   1.686   0.914  14.924  0.7217 -2.4901  0.5610
  820TIP3    H223876   1.543   0.881  14.961  0.0266 -0.2361  0.0232
  821TIP3   OH223877   6.489   5.326  16.069  0.2082 -0.1487  0.0651
  821TIP3    H123878   6.580   5.348  16.051  0.2151 -0.8954 -0.8788
  821TIP3    H223879   6.471   5.249  16.015 -0.3816 -1.2826  1.8002
  822TIP3   OH223880   1.394   5.014   0.255 -0.6366  0.5768 -0.9006
  822TIP3    H123881   1.413   4.999   0.163 -1.1546  0.0247 -0.9278
  822TIP3    H223882   1.474   5.053   0.290  1.0963 -2.6838 -0.7421
  823TIP3   OH223883   2.213   2.362   4.743  0.4022  0.0132 -0.2317
  823TIP3    H123884   2.243   2.434   4.799 -1.1699  0.1317  0.5013
  823TIP3    H223885   2.163   2.305   4.801  0.2414 -0.8108 -1.1557
  824TIP3   OH223886   3.190   5.000  15.850 -0.6022  0.8049  0.1591
  824TIP3    H123887   3.160   5.082  15.889  0.2241  1.5110 -0.6332
  824TIP3    H223888   3.208   4.943  15.925  0.9336  2.1221  0.8533
  825TIP3   OH223889   1.730   1.643   3.634  0.0652 -0.0573 -0.1456
  825TIP3    H123890   1.749   1.575   3.698  0.0853  0.5207  0.4716
  825TIP3    H223891   1.731   1.725   3.684  0.7073  0.4737 -0.9913
  826TIP3   OH223892   0.773   5.522   0.964  0.1517  0.4422  0.4266
  826TIP3    H123893   0.865   5.494   0.957  0.3924  1.2025  0.5276
  826TIP3    H223894   0.727   5.465   0.903  1.0087  1.4414 -1.2214
  827TIP3   OH223895   1.489   1.291  16.190  0.1931  0.1284 -0.3276
  827TIP3    H123896   1.509   1.369  16.242  3.3358 -0.3297 -0.7007
  827TIP3    H223897   1.556   1.227  16.214 -0.8428 -1.6336 -1.8066
  828TIP3   OH223898   3.900   4.038  13.998 -0.0342  0.0011 -0.2174
  828TIP3    H123899   3.959   3.963  14.007  0.0597  0.1518  0.4706
  828TIP3    H223900   3.932   4.102  14.062  0.2615  0.8899 -1.2275
  829TIP3   OH223901   1.328   5.415   0.777 -0.1065 -0.0971 -0.2099
  829TIP3    H123902   1.373   5.331   0.773 -0.6529 -0.4616  0.8164
  829TIP3    H223903   1.379   5.466   0.840  0.2643  0.3711 -0.8845
  830TIP3   OH223904   1.513   0.170  17.054  0.3809  0.2064  0.4317
  830TIP3    H123905   1.586   0.140  17.108 -0.4527  1.4420  2.3712
  830TIP3    H223906   1.458   0.093  17.044 -1.1159  0.5336  4.3007
  831TIP3   OH223907   3.532   4.018  14.878 -0.9215  0.0208 -0.0451
  831TIP3    H123908   3.608   3.970  14.844 -1.3573 -0.6581 -0.0760
  831TIP3    H223909   3.520   4.091  14.818 -0.5215 -0.0802 -0.2512
  832TIP3   OH223910   3.858   5.994  15.270 -0.0114  0.7234 -0.4007
  832TIP3    H123911   3.820   6.068  15.224 -1.2097  0.1394 -0.3841
  832TIP3    H223912   3.799   5.921  15.252 -0.6827  0.5090  2.2072
  833TIP3   OH223913   2.531   2.976  12.194 -0.0058  0.1663  0.5077
  833TIP3    H123914   2.472   3.045  12.225 -0.5716 -0.3141  0.4999
  833TIP3    H223915   2.590   2.961  12.268  1.0092  1.6128  0.0366
  834TIP3   OH223916   2.588   1.035   2.488  0.9753  0.6409 -0.5218
  834TIP3    H123917   2.641   0.991   2.554 -1.0573  0.1181  0.8263
  834TIP3    H223918   2.596   0.979   2.410 -0.4122 -1.4280  0.7368
  835TIP3   OH223919   0.074   2.770   0.470  0.4185  0.6379 -0.2211
  835TIP3    H123920   0.138   2.748   0.404 -1.4091  1.2140 -2.3091
  835TIP3    H223921   0.019   2.837   0.429 -0.5630  1.3343  2.0402
  836TIP3   OH223922   5.643   5.137  10.859 -0.3072  0.5479 -0.3402
  836TIP3    H123923   5.655   5.200  10.929  0.1186  1.1146 -0.9075
  836TIP3    H223924   5.706   5.067  10.878 -0.7555  0.3128  0.2707
  837TIP3   OH223925   2.982   1.934   1.017  0.0368  0.1765 -0.0142
  837TIP3    H123926   3.023   2.009   1.058  0.1008 -0.5781  1.3538
  837TIP3    H223927   2.924   1.898   1.084 -1.8196  0.3814 -1.4264
  838TIP3   OH223928   3.187   0.418   0.930 -0.0987  0.2081 -0.5356
  838TIP3    H123929   3.189   0.431   0.835  2.0394  1.4018 -0.3762
  838TIP3    H223930   3.277   0.396   0.954 -0.2919  1.3070  1.3967
  839TIP3   OH223931   0.760   3.549  11.744  0.1176 -0.3752  0.5070
  839TIP3    H123932   0.758   3.502  11.827 -0.0515  0.7715  1.1855
  839TIP3    H223933   0.682   3.605  11.747  0.8500  0.7027  0.2210
  840TIP3   OH223934   2.478   2.874  15.080 -0.0345 -0.4585 -0.2377
  840TIP3    H123935   2.531   2.830  15.146 -1.9324 -2.2513  0.1653
  840TIP3    H223936   2.433   2.804  15.033 -0.9925  0.9145 -1.4809
  841TIP3   OH223937   6.241   3.352  11.407  0.2486  0.1324  0.1795
  841TIP3    H123938   6.156   3.316  11.382  1.0537 -1.6355 -0.1583
  841TIP3    H223939   6.292   3.350  11.326  0.4847  1.6659  0.2574
  842TIP3   OH223940   4.599   0.391  15.736  0.2039  0.2319 -0.1627
  842TIP3    H123941   4.620   0.454  15.667  0.6840 -1.4035 -1.5712
  842TIP3    H223942   4.668   0.325  15.730  0.6878  0.4170  2.4041
  843TIP3   OH223943   1.484   3.969   2.129 -0.2857  0.1671 -0.2676
  843TIP3    H123944   1.420   3.954   2.198  0.4146  0.8606  0.5747
  843TIP3    H223945   1.505   4.062   2.137  2.0984 -0.3703  0.6671
  844TIP3   OH223946   1.026   4.777  16.344  0.1131  0.2204  0.2691
  844TIP3    H123947   1.113   4.736  16.348 -0.3245 -0.6454  1.9268
  844TIP3    H223948   0.999   4.785  16.435 -1.9799 -0.5122 -0.2151
  845TIP3   OH223949   4.000   4.715  12.271  0.5963 -0.7488 -0.0373
  845TIP3    H123950   4.095   4.716  12.284  0.8599 -4.2385 -0.6812
  845TIP3    H223951   3.985   4.639  12.214 -2.6548 -0.7202  0.6021
  846TIP3   OH223952   5.053   0.501  12.467  0.4559 -0.0020 -0.2188
  846TIP3    H123953   5.015   0.439  12.405  1.1248 -0.2808 -0.3555
  846TIP3    H223954   5.130   0.456  12.502 -0.8545 -0.5845  2.1446
  847TIP3   OH223955   3.222   6.639   4.053 -0.1196  0.2364  0.9021
  847TIP3    H123956   3.225   6.610   3.961 -1.3111 -0.9780  1.2034
  847TIP3    H223957   3.166   6.716   4.051  2.4730  2.2132  0.1907
  848TIP3   OH223958   5.473   2.042   5.318 -0.2524 -0.0690  0.4923
  848TIP3    H123959   5.546   2.048   5.380  0.1267 -2.8789  0.4461
  848TIP3    H223960   5.513   2.008   5.238 -1.5419 -1.6790  0.4760
  849TIP3   OH223961   1.148   2.059  14.609 -0.5734 -0.6353  0.0182
  849TIP3    H123962   1.224   2.096  14.565  0.3270  0.2226  2.1535
  849TIP3    H223963   1.130   1.978  14.562  1.9573 -1.1007 -0.2702
  850TIP3   OH223964   5.066   3.548  14.827  0.2475 -0.2563 -0.2188
  850TIP3    H123965   5.117   3.627  14.846  1.6118 -0.5241 -2.4518
  850TIP3    H223966   4.981   3.564  14.868  1.1542  1.4800  1.1064
  851TIP3   OH223967   2.999   1.156  16.611 -0.2462  0.0720 -0.5958
  851TIP3    H123968   2.948   1.221  16.562  1.1847  0.8217 -1.1540
  851TIP3    H223969   2.997   1.187  16.701  0.3856  0.8750 -0.8530
  852TIP3   OH223970   4.646   4.018   4.823 -0.1493 -0.2360 -0.2300
  852TIP3    H123971   4.643   4.112   4.843 -0.4791  0.3167 -2.6461
  852TIP3    H223972   4.555   3.989   4.831 -0.2453 -0.0684 -0.7166
  853TIP3   OH223973   1.103   6.555  14.194  0.1879  0.1109  0.3753
  853TIP3    H123974   1.073   6.581  14.107  1.9487  0.8980 -0.0199
  853TIP3    H223975   1.146   6.470  14.180  1.0885  0.5630  0.3337
  854TIP3   OH223976   3.359   0.125  11.927 -0.2419 -0.5164  0.2657
  854TIP3    H123977   3.451   0.105  11.940 -0.7799 -1.6730  2.9337
  854TIP3    H223978   3.353   0.156  11.837  2.3508 -2.6418 -0.7480
  855TIP3   OH223979   3.809   2.427  16.013  0.3274  0.0220  0.4467
  855TIP3    H123980   3.784   2.389  16.097  0.6963  1.0095  1.0190
  855TIP3    H223981   3.827   2.519  16.033  1.1548  0.0968 -0.5658
  856TIP3   OH223982   0.252   2.216  15.628 -0.2883  0.5910  0.2505
  856TIP3    H123983   0.192   2.148  15.658  0.7641 -0.6188 -0.2882
  856TIP3    H223984   0.339   2.178  15.640  0.4763  2.6994  2.0067
  857TIP3   OH223985   3.422   1.410  13.203  0.0386  0.1103 -0.5460
  857TIP3    H123986   3.510   1.445  13.185  0.3831 -0.5628 -0.2019
  857TIP3    H223987   3.395   1.370  13.121  0.5858 -0.7894 -0.2999
  858TIP3   OH223988   5.332   2.775   5.693  0.4411 -0.3238 -0.0807
  858TIP3    H123989   5.255   2.780   5.751  0.7363  0.2070  0.2691
  858TIP3    H223990   5.387   2.707   5.733  0.4950 -0.1874  0.0750
  859TIP3   OH223991   1.673   6.580  10.672  0.3139 -0.1263 -0.1127
  859TIP3    H123992   1.726   6.503  10.690 -0.3267 -0.5270  0.1212
  859TIP3    H223993   1.602   6.576  10.737  0.9187  1.2984  0.6690
  860TIP3   OH223994   0.071   3.620  16.708  0.2613  0.0440  0.6547
  860TIP3    H123995   0.048   3.706  16.741  0.0664  0.2388  0.0282
  860TIP3    H223996   0.004   3.561  16.745  1.8413 -0.3052  3.1860
  861TIP3   OH223997   1.677   4.861  13.643  1.1962 -0.0243  0.4499
  861TIP3    H123998   1.761   4.904  13.624  0.0542  1.3847 -1.9078
  861TIP3    H223999   1.649   4.826  13.559 -0.7999 -0.0825  1.0970
  862TIP3   OH224000   0.664   3.792   2.697 -0.1028 -0.1451 -0.0486
  862TIP3    H124001   0.608   3.851   2.748 -0.9135  1.2461 -2.3906
  862TIP3    H224002   0.741   3.845   2.676  0.0061 -0.5370 -0.6465
  863TIP3   OH224003   2.558   4.205  14.172  0.2215  0.3070 -0.8471
  863TIP3    H124004   2.589   4.266  14.239  0.1405 -0.0965 -0.4373
  863TIP3    H224005   2.465   4.195  14.190  0.4667 -0.9178 -0.1017
  864TIP3   OH224006   2.517   4.553  16.160  0.3071  0.0391 -0.2198
  864TIP3    H124007   2.541   4.461  16.161 -0.0021 -0.1081 -2.2199
  864TIP3    H224008   2.424   4.554  16.185 -0.1803 -0.4246 -1.8558
  865TIP3   OH224009   3.496   1.054   3.575  0.6779  0.0070 -0.1986
  865TIP3    H124010   3.570   1.040   3.634  0.9395  0.0816 -0.5040
  865TIP3    H224011   3.519   1.132   3.524 -0.3511  1.0295  0.8424
  866TIP3   OH224012   3.737   2.845   2.144 -0.4081  0.3310 -0.6949
  866TIP3    H124013   3.698   2.921   2.102  0.0575  0.2946 -1.1974
  866TIP3    H224014   3.687   2.771   2.111  1.4282  0.0338 -3.0988
  867TIP3   OH224015   4.558   0.050  15.853  0.1224 -0.0635  0.3511
  867TIP3    H124016   4.490   0.117  15.843 -0.8038 -1.1782 -1.4446
  867TIP3    H224017   4.613   0.059  15.775 -1.2414 -2.6049 -1.0594
  868TIP3   OH224018   4.653   2.194  15.888 -0.0551 -0.0727  0.2663
  868TIP3    H124019   4.565   2.227  15.904 -0.1351 -1.1312  2.3638
  868TIP3    H224020   4.673   2.221  15.798 -2.4740  0.2406 -0.2471
  869TIP3   OH224021   6.340   4.893   0.522 -0.1184  0.2202  0.1265
  869TIP3    H124022   6.255   4.857   0.496  0.8180 -1.3016 -1.0305
  869TIP3    H224023   6.358   4.852   0.606 -0.0055 -0.3923 -0.1911
  870TIP3   OH224024   2.609   2.930  12.798 -0.3478 -0.0366 -0.5327
  870TIP3    H124025   2.628   2.999  12.861  0.1549 -0.2253 -0.4684
  870TIP3    H224026   2.642   2.850  12.839 -0.7041 -0.2805 -0.7088
  871TIP3   OH224027   3.085   4.971  16.752  0.1571  0.1916  0.4363
  871TIP3    H124028   3.137   4.893  16.736 -1.1972 -0.4999 -0.7574
  871TIP3    H224029   3.004   4.939  16.791  0.2139  1.1648  1.4145
  872TIP3   OH224030   6.482   6.583   0.036  0.1343  0.6417 -0.2020
  872TIP3    H124031   6.424   6.635  -0.020  0.4350 -0.6003 -1.7336
  872TIP3    H224032   6.432   6.570   0.117 -1.5253  0.0649 -1.2770
  873TIP3   OH224033   4.737   3.087  13.412  0.5822 -0.1104 -0.0390
  873TIP3    H124034   4.707   3.172  13.445  1.4252  0.6950 -1.2609
  873TIP3    H224035   4.792   3.052  13.483  1.0365  0.8249  0.0868
  874TIP3   OH224036   4.555   2.302  15.645  0.1447  0.0174 -0.2374
  874TIP3    H124037   4.616   2.369  15.614 -0.3038  0.6547  0.2444
  874TIP3    H224038   4.477   2.350  15.672  0.2971 -0.5525  1.3327
  875TIP3   OH224039   3.891   2.512   0.117  0.0233 -0.1871 -0.1725
  875TIP3    H124040   3.864   2.599   0.088  3.0910 -0.1402 -3.5854
  875TIP3    H224041   3.851   2.452   0.054  0.6654 -0.9061  0.0860
  876TIP3   OH224042   6.088   1.029  12.172  0.1327 -0.1763  0.0826
  876TIP3    H124043   6.097   1.032  12.077 -0.2189  1.2768  0.0694
  876TIP3    H224044   6.054   0.941  12.191 -3.0114  0.5759 -1.4332
  877TIP3   OH224045   6.461   0.032   3.353 -0.9297  0.7951  0.2328
  877TIP3    H124046   6.495  -0.048   3.313 -0.9028  2.0003 -2.3758
  877TIP3    H224047   6.442   0.007   3.443  0.6508 -1.6764 -0.0081
  878TIP3   OH224048   0.738   3.663   3.847  0.2807 -0.7752  0.6297
  878TIP3    H124049   0.820   3.694   3.884 -0.7015  1.2841  1.2105
  878TIP3    H224050   0.685   3.742   3.836 -1.8679 -2.0920  0.9186
  879TIP3   OH224051   5.698   1.001  16.945  0.0281 -0.2754 -0.1141
  879TIP3    H124052   5.631   0.933  16.951 -0.4236 -0.0287 -2.0476
  879TIP3    H224053   5.777   0.954  16.918  0.4895 -0.4344  1.3750
  880TIP3   OH224054   0.319   3.111  12.591 -0.7647 -0.3746 -0.1119
  880TIP3    H124055   0.308   3.041  12.655  0.3870  0.3271  0.8862
  880TIP3    H224056   0.285   3.074  12.509  0.0712 -2.2100  0.3233
  881TIP3   OH224057   3.159   3.044   1.933  0.1010 -0.0193  0.2846
  881TIP3    H124058   3.219   2.972   1.915 -0.2777 -0.4039  0.5511
  881TIP3    H224059   3.086   3.031   1.873 -0.7567 -0.8147  1.4458
  882TIP3   OH224060   4.695   2.433   0.606 -0.0514 -0.3947  0.3316
  882TIP3    H124061   4.770   2.486   0.631 -0.3134 -0.5032  1.3727
  882TIP3    H224062   4.732   2.362   0.553  0.4663  0.0074  0.1427
  883TIP3   OH224063   5.392   0.842   2.712  0.3957  0.4005  0.0385
  883TIP3    H124064   5.325   0.773   2.716 -1.7381  2.3711  0.0323
  883TIP3    H224065   5.443   0.821   2.634  0.8852 -2.0400  0.9080
  884TIP3   OH224066   6.150   4.356   4.240 -0.3143 -0.0679 -0.1011
  884TIP3    H124067   6.222   4.416   4.221 -0.9784  0.9472  0.4841
  884TIP3    H224068   6.192   4.278   4.277  0.5626  0.0119 -0.9020
  885TIP3   OH224069   3.237   2.479  11.795  0.2031 -0.7301  1.1044
  885TIP3    H124070   3.332   2.493  11.790 -0.0581  1.6431  1.3357
  885TIP3    H224071   3.228   2.390  11.829  2.2960 -1.7005 -0.6279
  886TIP3   OH224072   5.293   2.892   0.956 -0.3567  0.5175  0.2655
  886TIP3    H124073   5.326   2.963   1.010 -1.6853  0.6595  0.9368
  886TIP3    H224074   5.328   2.813   0.996  0.0652  0.7225  0.2992
  887TIP3   OH224075   3.500   1.941  15.130  0.4771  0.3130  0.1454
  887TIP3    H124076   3.468   2.004  15.195 -1.6925 -0.2597 -0.3064
  887TIP3    H224077   3.479   1.981  15.046 -0.2484 -0.6483 -0.1468
  888TIP3   OH224078   3.524   5.318  15.345 -0.6249  0.1205  0.0319
  888TIP3    H124079   3.502   5.385  15.409 -0.5011 -0.2530  0.4702
  888TIP3    H224080   3.618   5.328  15.331 -0.5962  0.0087  0.1378
  889TIP3   OH224081   6.324   3.251  16.899  0.8031  0.0543 -0.3187
  889TIP3    H124082   6.237   3.249  16.938 -1.0619 -1.1056 -4.0710
  889TIP3    H224083   6.341   3.343  16.882 -0.4386  0.1659 -1.0047
  890TIP3   OH224084   4.222   0.048   0.690  0.7116 -0.4384 -0.0739
  890TIP3    H124085   4.236   0.092   0.607  0.1817 -1.9095 -0.9713
  890TIP3    H224086   4.296  -0.013   0.698  0.8062 -0.2534  0.5840
  891TIP3   OH224087   5.251   2.987  13.070 -0.5535 -0.3432 -0.3641
  891TIP3    H124088   5.159   2.991  13.044 -0.6797 -0.6963  0.0310
  891TIP3    H224089   5.267   2.894  13.088 -0.6951 -0.0095  1.6508
  892TIP3   OH224090   0.046   6.429  15.751 -0.5506  0.0380 -0.4159
  892TIP3    H124091   0.099   6.455  15.827 -1.5245 -0.2045  0.3628
  892TIP3    H224092   0.061   6.334  15.743 -1.1279 -0.0927  0.0181
  893TIP3   OH224093   6.221   5.113  14.140  0.0631  0.1899 -0.0355
  893TIP3    H124094   6.294   5.173  14.127 -0.1770  0.3757 -0.5141
  893TIP3    H224095   6.187   5.136  14.227  1.6752 -1.0817  0.9985
  894TIP3   OH224096   6.392   6.300  13.848  0.4078  0.0793 -0.2994
  894TIP3    H124097   6.304   6.279  13.879  0.1000 -0.1042 -1.2619
  894TIP3    H224098   6.431   6.215  13.828  1.3115  0.0631  1.4147
  895TIP3   OH224099   5.761   5.464  15.731 -0.1385 -0.2141 -0.0947
  895TIP3    H124100   5.678   5.432  15.766  0.2770 -1.3519 -0.1112
  895TIP3    H224101   5.752   5.457  15.636  0.3600 -1.3606 -0.0658
  896TIP3   OH224102   6.614   6.651  11.700 -0.5876 -0.1468 -0.2678
  896TIP3    H124103   6.685   6.672  11.640 -1.6893 -0.2161 -1.6371
  896TIP3    H224104   6.599   6.557  11.687 -1.1914 -0.0490 -0.2940
  897TIP3   OH224105   6.704   4.402  13.898 -0.0972  0.4463  0.2427
  897TIP3    H124106   6.656   4.326  13.931  0.1367  0.9963  1.9436
  897TIP3    H224107   6.711   4.386  13.804 -0.9564 -1.1200  0.3972
  898TIP3   OH224108   1.530   4.364   0.287  0.1302 -0.3819 -0.7860
  898TIP3    H124109   1.605   4.387   0.342  0.5140 -2.2168 -0.4855
  898TIP3    H224110   1.567   4.350   0.200 -0.1539  0.4382 -1.0486
  899TIP3   OH224111   0.971   5.887   0.036 -0.1891  0.1105  0.0666
  899TIP3    H124112   1.051   5.844   0.066 -0.5783 -0.0667  0.9019
  899TIP3    H224113   0.942   5.835  -0.039 -0.4487 -0.8740  0.8317
  900TIP3   OH224114   2.694   0.918  15.730  0.5441 -0.2244 -0.2718
  900TIP3    H124115   2.704   0.833  15.688 -0.0141 -0.4957  0.1413
  900TIP3    H224116   2.659   0.899  15.817  0.9895  0.3882  0.0496
  901TIP3   OH224117   5.943   5.682  15.746  0.8404 -0.8403  0.5731
  901TIP3    H124118   6.033   5.665  15.776  0.6773 -2.6377  0.1574
  901TIP3    H224119   5.896   5.600  15.763 -0.1705 -0.6887 -1.1905
  902TIP3   OH224120   4.365   3.727  10.352 -0.0394 -0.4375  0.0836
  902TIP3    H124121   4.329   3.812  10.377  1.1155  0.1749 -0.2611
  902TIP3    H224122   4.292   3.682  10.309 -1.6397 -0.9218  3.0226
  903TIP3   OH224123   3.599   6.681  15.062  0.6640 -0.2329 -0.0377
  903TIP3    H124124   3.686   6.687  15.021 -0.0223 -0.7528 -1.6555
  903TIP3    H224125   3.544   6.737  15.008 -0.4171 -1.4252 -0.2052
  904TIP3   OH224126   1.514   3.860  13.944  0.1989  0.0465  0.1519
  904TIP3    H124127   1.443   3.905  13.990 -0.4993 -1.8476  1.0333
  904TIP3    H224128   1.471   3.815  13.871  1.0879  1.8598 -1.5712
  905TIP3   OH224129   6.369   1.076  16.145  0.0661 -0.6846 -0.6900
  905TIP3    H124130   6.317   1.084  16.225  0.5848 -0.3228 -0.3807
  905TIP3    H224131   6.367   1.163  16.107 -0.0821 -0.8292 -1.0141
  906TIP3   OH224132   2.090   6.204   3.744 -0.3572 -0.5135 -0.4126
  906TIP3    H124133   2.161   6.227   3.683 -0.8536  1.5989 -0.2679
  906TIP3    H224134   2.131   6.207   3.830  0.1012 -2.5074 -0.5112
  907TIP3   OH224135   4.778   5.431   5.326  0.4364 -0.4059  0.1359
  907TIP3    H124136   4.695   5.389   5.304 -0.0819  0.0768  1.1351
  907TIP3    H224137   4.798   5.485   5.250 -0.2612 -0.3718 -0.0285
  908TIP3   OH224138   4.173   0.053   4.102  0.3120 -0.5197 -0.4378
  908TIP3    H124139   4.126   0.080   4.181 -1.5470 -0.4852 -1.5048
  908TIP3    H224140   4.238   0.122   4.088 -1.7918  1.4667 -0.9500
  909TIP3   OH224141   4.741   5.308  12.628  0.2182  0.5626 -0.2454
  909TIP3    H124142   4.765   5.236  12.570  3.5190  0.8975  0.5081
  909TIP3    H224143   4.763   5.387  12.578 -4.0847  1.2911 -1.3800
  910TIP3   OH224144   2.803   5.729   1.019 -0.2937 -0.6733 -0.4243
  910TIP3    H124145   2.722   5.744   1.067  0.1119  1.7560 -0.3803
  910TIP3    H224146   2.867   5.707   1.087 -0.5056 -0.7851 -0.2591
  911TIP3   OH224147   1.221   5.340   4.187 -0.3970 -0.0517  0.4703
  911TIP3    H124148   1.171   5.267   4.151 -1.1484  0.4103  0.5535
  911TIP3    H224149   1.177   5.418   4.155  0.9057  0.3920 -0.3327
  912TIP3   OH224150   4.480   0.629  13.449  0.1818 -0.1384 -0.0777
  912TIP3    H124151   4.472   0.556  13.387  3.0532 -0.4083 -0.2823
  912TIP3    H224152   4.437   0.599  13.528  0.6397 -1.7780 -0.4162
  913TIP3   OH224153   1.895   2.834   0.441 -0.5927 -0.5299 -0.1719
  913TIP3    H124154   1.962   2.769   0.419 -0.4540  0.0428 -1.5436
  913TIP3    H224155   1.921   2.868   0.526  0.9172 -0.2902 -0.7006
  914TIP3   OH224156   6.637   4.346  12.623  0.2631 -0.0641 -0.3526
  914TIP3    H124157   6.646   4.257  12.656 -1.9036 -0.8644 -1.7282
  914TIP3    H224158   6.725   4.370  12.594  1.7558 -0.1881  3.5311
  915TIP3   OH224159   4.880   2.332   5.266  0.1571  0.4379 -0.1214
  915TIP3    H124160   4.957   2.371   5.307  1.7715 -0.9427 -1.7482
  915TIP3    H224161   4.873   2.245   5.304 -0.3653  0.3888 -0.3103
  916TIP3   OH224162   5.926   0.293  16.768  0.0618  0.3133 -0.4426
  916TIP3    H124163   5.960   0.230  16.831  1.9594  1.6842 -0.0029
  916TIP3    H224164   5.962   0.266  16.684  0.2196  0.3430 -0.3855
  917TIP3   OH224165   2.390   0.586   2.319  0.3058  0.8761  0.0812
  917TIP3    H124166   2.328   0.621   2.383 -1.4864 -0.6528 -0.7391
  917TIP3    H224167   2.405   0.496   2.347 -0.1876  0.3108 -1.4024
  918TIP3   OH224168   1.475   1.467   0.773 -0.7608 -0.3722 -0.1974
  918TIP3    H124169   1.426   1.549   0.780 -1.6089 -0.8093 -0.8588
  918TIP3    H224170   1.529   1.478   0.695  0.3642  0.1839  0.6390
  919TIP3   OH224171   0.552   6.744  17.372  0.4474  0.0710  0.3340
  919TIP3    H124172   0.474   6.690  17.354  0.1252  0.8750 -0.8424
  919TIP3    H224173   0.529   6.794  17.450 -0.0540  0.0004  0.2364
  920TIP3   OH224174   0.801   3.738   3.553 -0.2682  0.7540  0.1304
  920TIP3    H124175   0.718   3.691   3.554  0.0358  0.0506 -1.9771
  920TIP3    H224176   0.863   3.677   3.513  1.1307  1.5045  1.0536
  921TIP3   OH224177   5.968   5.848   3.509 -0.3487  0.1835  0.3060
  921TIP3    H124178   5.886   5.851   3.460 -0.2309  0.6253  0.1264
  921TIP3    H224179   6.032   5.810   3.448 -0.1986  0.7479  0.1025
  922TIP3   OH224180   2.168   1.075   3.471 -0.0356  0.2937  0.3755
  922TIP3    H124181   2.189   1.087   3.564 -0.5014 -0.4009  0.5793
  922TIP3    H224182   2.250   1.092   3.425  0.2121  0.5798  0.9206
  923TIP3   OH224183   3.525   1.927  16.341 -0.3141  0.1823 -0.8038
  923TIP3    H124184   3.606   1.877  16.343  1.0166  2.1814 -1.7228
  923TIP3    H224185   3.456   1.861  16.345  1.3135 -1.8323 -3.1198
  924TIP3   OH224186   4.633   3.871  15.625 -0.3640  0.6952  0.2276
  924TIP3    H124187   4.693   3.941  15.600  2.8573 -0.9371  2.5902
  924TIP3    H224188   4.677   3.791  15.599 -1.5515 -0.6059  1.9353
  925TIP3   OH224189   3.020   3.439  17.366 -0.2068  0.8480  0.0501
  925TIP3    H124190   3.100   3.391  17.386 -1.0806 -0.7813 -0.1575
  925TIP3    H224191   2.952   3.396  17.419 -1.3586  0.6332 -1.5327
  926TIP3   OH224192   4.265   0.366   6.556 -0.7402 -0.0180  0.5085
  926TIP3    H124193   4.343   0.416   6.583  0.5282 -1.9550  0.6175
  926TIP3    H224194   4.196   0.396   6.615 -0.0646  1.6318  0.5259
  927TIP3   OH224195   0.043   3.259  13.907 -0.3178  0.2206  0.0707
  927TIP3    H124196  -0.028   3.270  13.844 -2.5367  0.7280  2.4842
  927TIP3    H224197   0.107   3.325  13.882 -1.9168  1.5992 -0.6245
  928TIP3   OH224198   5.703   6.479  16.114 -0.0214 -0.3409  0.3543
  928TIP3    H124199   5.730   6.401  16.067 -0.7087  0.9338 -2.3883
  928TIP3    H224200   5.624   6.452  16.162 -1.0296 -1.0838 -1.6044
  929TIP3   OH224201   5.768   0.577  15.601  0.1779  1.0625 -0.0494
  929TIP3    H124202   5.700   0.628  15.557 -2.1180  0.2510  2.3393
  929TIP3    H224203   5.780   0.621  15.685  1.2761  0.1037  0.3204
  930TIP3   OH224204   3.072   0.097   0.559 -0.1640 -0.2444  0.2087
  930TIP3    H124205   3.105   0.186   0.543  0.5261 -0.3771  0.8474
  930TIP3    H224206   3.032   0.072   0.476  1.2274 -0.0223 -0.5742
  931TIP3   OH224207   6.018   1.590  13.030  0.1398 -0.0843 -0.1910
  931TIP3    H124208   6.024   1.508  13.078  0.7208 -1.3799 -2.3193
  931TIP3    H224209   6.067   1.653  13.084 -0.6648 -0.9931  1.6817
  932TIP3   OH224210   0.407   1.603  16.386 -0.2607  0.3653 -0.4947
  932TIP3    H124211   0.442   1.690  16.366 -1.1289  0.2080 -3.0262
  932TIP3    H224212   0.437   1.548  16.313  1.0637 -1.7606  1.5239
  933TIP3   OH224213   1.661   1.884   2.685  0.0322  0.1911 -0.2204
  933TIP3    H124214   1.676   1.941   2.609 -2.1103  0.1679 -0.7265
  933TIP3    H224215   1.708   1.804   2.665 -0.0046  0.4127 -1.2398
  934TIP3   OH224216   3.733   3.437  11.718 -0.0399 -0.5981  0.1735
  934TIP3    H124217   3.768   3.460  11.804 -0.2596  1.2046 -0.1726
  934TIP3    H224218   3.799   3.468  11.656 -1.5102  1.5514 -0.4241
  935TIP3   OH224219   4.170   4.651  17.168 -0.7682  0.1851 -0.0155
  935TIP3    H124220   4.112   4.578  17.190  0.0806 -0.2981  0.7210
  935TIP3    H224221   4.257   4.612  17.167 -0.5095  0.7199 -1.9062
  936TIP3   OH224222   0.808   5.283  13.375  0.3171 -0.7266 -0.0952
  936TIP3    H124223   0.804   5.302  13.469 -0.0900  0.1492 -0.2745
  936TIP3    H224224   0.874   5.345  13.342 -0.4657 -0.1302 -0.5783
  937TIP3   OH224225   5.578   4.261   5.574  0.8839 -0.0845  0.1080
  937TIP3    H124226   5.553   4.175   5.539  0.4778  0.0805 -0.0164
  937TIP3    H224227   5.496   4.310   5.579  0.9518 -0.0546  1.1812
  938TIP3   OH224228   4.475   6.143  15.556 -0.7548  0.2458  0.6240
  938TIP3    H124229   4.430   6.083  15.496 -0.9639 -0.3281  1.3467
  938TIP3    H224230   4.561   6.156  15.516 -1.2142  0.6049 -0.2770
  939TIP3   OH224231   4.571   2.648   4.887  0.3187  0.5197 -0.1132
  939TIP3    H124232   4.661   2.677   4.871  0.8867 -1.6189 -1.1605
  939TIP3    H224233   4.560   2.571   4.832 -2.5631  1.3591 -0.8859
  940TIP3   OH224234   0.568   5.049   6.613  0.0855  0.3095  0.2094
  940TIP3    H124235   0.474   5.042   6.598 -0.0064  0.1597  0.8430
  940TIP3    H224236   0.603   4.965   6.581 -0.2316 -0.4241  1.7184
  941TIP3   OH224237   2.699   2.739  17.300 -0.4634  0.1778  0.3865
  941TIP3    H124238   2.729   2.648  17.302  0.1400  0.3668  0.1890
  941TIP3    H224239   2.657   2.748  17.215  1.7846  0.7790 -0.7335
  942TIP3   OH224240   5.378   3.873  11.686 -0.3729  0.4252 -0.3397
  942TIP3    H124241   5.350   3.784  11.663 -1.0329  0.5965 -0.2131
  942TIP3    H224242   5.327   3.930  11.628  1.5465  0.6528 -1.8994
  943TIP3   OH224243   2.441   5.017  17.381  0.2382  0.6060  0.6212
  943TIP3    H124244   2.523   5.052  17.418  0.1790  1.1067  0.2930
  943TIP3    H224245   2.468   4.943  17.328  0.1837 -1.1377  2.8833
  944TIP3   OH224246   6.687   6.304  15.293 -0.0991  0.6546  0.5180
  944TIP3    H124247   6.694   6.399  15.283  0.3279  0.3869 -2.9396
  944TIP3    H224248   6.765   6.280  15.344 -0.1561  2.1296  1.3442
  945TIP3   OH224249   6.077   2.188  12.182 -0.3700 -0.2511 -0.3854
  945TIP3    H124250   5.990   2.164  12.150 -0.8125 -0.6980  1.0931
  945TIP3    H224251   6.070   2.183  12.277  1.7212 -1.9421 -0.2405
  946TIP3   OH224252   5.956   6.391   4.982 -0.0687  0.2986  0.1933
  946TIP3    H124253   5.926   6.397   5.072 -0.2170 -1.2428  0.2742
  946TIP3    H224254   6.033   6.448   4.978  0.0754  0.2016  1.3458
  947TIP3   OH224255   6.215   6.640   3.926  0.8746  0.5620  0.0137
  947TIP3    H124256   6.308   6.660   3.940  1.1364  0.0288 -0.8620
  947TIP3    H224257   6.211   6.545   3.925  0.3278  0.5810 -0.0218
  948TIP3   OH224258   0.760   2.291  13.758  0.2890 -0.1465  0.1020
  948TIP3    H124259   0.795   2.337  13.834  0.9307  2.9458 -1.8938
  948TIP3    H224260   0.810   2.209  13.755  5.3804  2.5468 -0.6806
  949TIP3   OH224261   3.202   0.531   5.081  0.7775  0.6984  0.7553
  949TIP3    H124262   3.266   0.504   5.147  0.6039 -1.0951  0.2419
  949TIP3    H224263   3.119   0.531   5.128  0.3762 -2.2996  0.2337
  950TIP3   OH224264   0.222   0.121  14.456  0.2424 -0.0522 -0.1037
  950TIP3    H124265   0.197   0.084  14.371 -1.4536  1.7748 -0.4722
  950TIP3    H224266   0.153   0.185  14.475  1.7390  1.1217  1.6388
  951TIP3   OH224267   0.286   1.302  11.647  0.1881  0.1533 -0.1601
  951TIP3    H124268   0.244   1.274  11.566  1.2437 -0.5164 -0.4921
  951TIP3    H224269   0.369   1.342  11.619  0.1509  0.7384  0.5307
  952TIP3   OH224270   1.984   1.294  15.853  0.8505 -0.5611 -0.0476
  952TIP3    H124271   1.982   1.386  15.877 -1.4461 -0.5076 -0.2233
  952TIP3    H224272   1.947   1.291  15.765 -0.7075 -1.7783  0.6043
  953TIP3   OH224273   3.053   6.575   1.910  0.4396  1.0301  0.5967
  953TIP3    H124274   2.960   6.552   1.901  0.2006  2.1996 -0.2284
  953TIP3    H224275   3.096   6.528   1.839  0.2838  1.4190  0.2386
  954TIP3   OH224276   6.125   6.412  15.624  0.3563 -0.4845  0.0288
  954TIP3    H124277   6.199   6.394  15.682  1.0680 -0.3346 -0.8296
  954TIP3    H224278   6.051   6.369  15.667  1.0881 -1.3301  0.4769
  955TIP3   OH224279   2.217   0.174  11.569  0.2887 -0.4445 -0.1573
  955TIP3    H124280   2.286   0.161  11.504 -1.2580 -0.8937 -1.8106
  955TIP3    H224281   2.167   0.093  11.569 -1.8893  0.7944 -1.1349
  956TIP3   OH224282   3.621   5.083  13.976 -0.2558  0.0374 -0.1915
  956TIP3    H124283   3.608   5.127  14.060  0.7033  0.2471 -0.1385
  956TIP3    H224284   3.665   5.147  13.922 -0.6791 -0.1741 -0.7948
  957TIP3   OH224285   6.143   4.318   2.662  0.0131  0.0250  0.3281
  957TIP3    H124286   6.217   4.273   2.702  0.6850  0.9306  0.1396
  957TIP3    H224287   6.171   4.410   2.656 -1.2316  0.4384  0.5143
  958TIP3   OH224288   4.561   3.980  13.634  0.5472  0.1502 -0.1934
  958TIP3    H124289   4.640   3.937  13.602  0.7752 -0.5013  1.1878
  958TIP3    H224290   4.582   4.073  13.633  1.1159  0.0224 -0.3878
  959TIP3   OH224291   0.897   1.008   1.116 -0.2171  0.3062 -0.1121
  959TIP3    H124292   0.855   0.934   1.160 -0.6861  0.2292 -0.6659
  959TIP3    H224293   0.844   1.084   1.141 -2.0951 -0.0834 -2.5279
  960TIP3   OH224294   3.302   2.778   5.506  0.1086  0.3184 -0.2347
  960TIP3    H124295   3.356   2.706   5.539 -0.3299  1.1980  2.6892
  960TIP3    H224296   3.212   2.748   5.520 -0.0813  1.4441  1.2624
  961TIP3   OH224297   5.223   4.623   3.798 -0.3951 -0.1837  0.1420
  961TIP3    H124298   5.203   4.554   3.734  1.6031 -1.5664  0.8905
  961TIP3    H224299   5.294   4.673   3.758 -1.2566  0.9236 -0.0244
  962TIP3   OH224300   2.317   0.104   3.323  0.2732 -1.1710 -0.7383
  962TIP3    H124301   2.224   0.087   3.308  0.8585 -2.8504 -2.8336
  962TIP3    H224302   2.323   0.118   3.418 -1.6940 -3.9457 -0.0915
  963TIP3   OH224303   2.304   0.769  10.095  0.3232  0.4008  0.4824
  963TIP3    H124304   2.340   0.819  10.168  0.0290  1.2661  0.0564
  963TIP3    H224305   2.253   0.833  10.046  0.8813 -0.0522 -0.7344
  964TIP3   OH224306   4.324   6.594   5.171 -0.0988  0.2203  0.0870
  964TIP3    H124307   4.366   6.563   5.251 -0.0046 -0.1724 -0.1121
  964TIP3    H224308   4.231   6.573   5.183 -0.0046 -0.3493 -0.1396
  965TIP3   OH224309   5.222   1.713  16.983  0.1911  0.0609 -0.1590
  965TIP3    H124310   5.184   1.711  16.895  0.2835  0.4157 -0.2089
  965TIP3    H224311   5.317   1.715  16.969  0.1934  0.9033 -0.0724
  966TIP3   OH224312   5.371   3.576  14.483  0.2753  0.2179  0.3189
  966TIP3    H124313   5.358   3.664  14.519 -1.2979  0.5407 -0.9151
  966TIP3    H224314   5.283   3.540  14.476  0.5519 -0.1587 -2.2602
  967TIP3   OH224315   0.174   3.455   5.638 -0.1636 -0.6158  0.4740
  967TIP3    H124316   0.135   3.489   5.557  0.8265 -0.6542 -0.0315
  967TIP3    H224317   0.163   3.526   5.701  1.2938  0.4485 -0.3928
  968TIP3   OH224318   4.024   1.002  17.180  0.1826  0.2378  0.2180
  968TIP3    H124319   4.012   1.062  17.106 -0.9077  0.2405  0.3790
  968TIP3    H224320   4.105   0.956  17.161  0.6094  1.1876 -0.3208
  969TIP3   OH224321   0.439   3.015   2.077 -0.3523  0.2942  0.0151
  969TIP3    H124322   0.395   2.943   2.122 -0.9956  0.5869 -0.1438
  969TIP3    H224323   0.373   3.051   2.018  0.5474 -0.2919 -1.4257
  970TIP3   OH224324   6.688   1.916  17.171 -0.3453 -0.3216  0.3491
  970TIP3    H124325   6.643   1.831  17.163 -0.5606 -0.0787 -1.5180
  970TIP3    H224326   6.772   1.895  17.211 -0.6134 -1.3372  0.4075
  971TIP3   OH224327   2.459   4.512  16.923  0.4166 -0.0050  0.2354
  971TIP3    H124328   2.409   4.575  16.975 -0.5223 -0.8229  0.3524
  971TIP3    H224329   2.456   4.431  16.973 -0.5464 -0.8280 -1.0711
  972TIP3   OH224330   4.517   5.279   0.026 -0.0089  0.2136 -0.1015
  972TIP3    H124331   4.430   5.307  -0.004 -0.6119 -2.2445 -0.8696
  972TIP3    H224332   4.577   5.315  -0.040 -0.9629 -1.9201 -2.2784
  973TIP3   OH224333   0.677   4.929  16.044 -0.2896 -0.3597 -0.2706
  973TIP3    H124334   0.716   4.921  16.131  0.6935 -0.9543 -0.7579
  973TIP3    H224335   0.678   4.840  16.008  0.2843  0.0464 -1.2967
  974TIP3   OH224336   1.394   2.182  14.636  0.5099 -0.4413  0.0984
  974TIP3    H124337   1.342   2.190  14.717 -1.7320  0.2562 -1.3210
  974TIP3    H224338   1.441   2.265  14.630 -1.5709  0.7699 -0.6961
  975TIP3   OH224339   2.151   3.350   1.769 -0.1533  0.2940 -0.4180
  975TIP3    H124340   2.117   3.266   1.798  0.0274 -0.7428 -2.9906
  975TIP3    H224341   2.150   3.405   1.848 -2.4880 -1.3667  0.8079
  976TIP3   OH224342   2.675   2.070  15.223  0.0471 -0.4185  0.0233
  976TIP3    H124343   2.682   2.163  15.245 -0.6658 -0.3505  0.0005
  976TIP3    H224344   2.633   2.030  15.300 -2.0880 -0.2479 -0.9662
  977TIP3   OH224345   0.737   1.444   1.595 -0.4149 -0.0328  0.2636
  977TIP3    H124346   0.777   1.505   1.533  1.2391 -0.2594  1.0692
  977TIP3    H224347   0.782   1.361   1.581 -1.4252 -0.6207  0.3981
  978TIP3   OH224348   0.385   3.780   4.117  0.2064  0.1221 -0.4986
  978TIP3    H124349   0.401   3.832   4.038  0.9656  0.2211 -0.2890
  978TIP3    H224350   0.464   3.726   4.126  0.0339 -0.0378  0.0769
  979TIP3   OH224351   3.614   2.032  16.556  0.2958  0.4155  0.0564
  979TIP3    H124352   3.617   1.968  16.628 -0.4058  0.0567 -0.2338
  979TIP3    H224353   3.588   1.981  16.480  1.9480  0.6085 -0.6810
  980TIP3   OH224354   2.502   3.331  11.803  0.1823  0.2638 -0.6222
  980TIP3    H124355   2.439   3.361  11.869 -1.5361 -2.0018 -1.1030
  980TIP3    H224356   2.515   3.406  11.746  0.3065  1.7143  1.2407
  981TIP3   OH224357   3.068   0.166   3.589 -0.0668  0.1242 -0.1261
  981TIP3    H124358   3.027   0.158   3.503 -0.3629  0.0653  0.0199
  981TIP3    H224359   3.095   0.077   3.611  0.6041  0.2455 -0.4496
  982TIP3   OH224360   4.805   0.497   4.897  0.4715  0.0892 -0.0294
  982TIP3    H124361   4.808   0.418   4.843 -1.9598  0.2318 -0.4859
  982TIP3    H224362   4.808   0.465   4.987  1.3719 -0.3666 -0.2120
  983TIP3   OH224363   1.536   2.108   1.022 -0.8124 -0.1280 -0.0535
  983TIP3    H124364   1.513   2.158   1.100  0.5577 -1.0791  1.0189
  983TIP3    H224365   1.609   2.052   1.050  1.6266  1.4494 -2.7278
  984TIP3   OH224366   3.882   6.117   0.060  0.4455 -0.1173  0.3476
  984TIP3    H124367   3.847   6.030   0.079 -1.2412  0.2218 -0.9944
  984TIP3    H224368   3.908   6.113  -0.032 -2.1785  1.5223 -0.5618
  985TIP3   OH224369   1.400   3.618   3.579  0.4581 -0.0610  0.1446
  985TIP3    H124370   1.381   3.651   3.667 -2.0362 -1.5620  0.2803
  985TIP3    H224371   1.406   3.523   3.591 -0.5627 -0.3411 -1.3865
  986TIP3   OH224372   2.093   2.140   4.082  0.2311 -0.1759 -0.1460
  986TIP3    H124373   2.028   2.164   4.016 -1.7641 -0.0609  1.7530
  986TIP3    H224374   2.102   2.045   4.072 -0.3275 -0.2114 -0.3599
  987TIP3   OH224375   1.116   1.376   2.490  0.0752 -0.2767 -0.3314
  987TIP3    H124376   1.029   1.417   2.484  0.4439  0.4381 -1.0175
  987TIP3    H224377   1.099   1.289   2.524 -0.8246  0.1643  0.3815
  988TIP3   OH224378   5.681   1.777  12.178 -0.3677  0.0607  0.5089
  988TIP3    H124379   5.773   1.753  12.183 -0.2063  0.5110 -0.1230
  988TIP3    H224380   5.635   1.705  12.221  0.2160 -0.5962  0.0622
  989TIP3   OH224381   3.699   4.298  14.824 -0.3345  0.1775  0.2426
  989TIP3    H124382   3.630   4.250  14.777 -0.9780  0.5063  0.8389
  989TIP3    H224383   3.697   4.262  14.913  1.4931 -1.1011 -0.1631
  990TIP3   OH224384   5.053   3.465  17.210  0.7077 -0.5156  0.0122
  990TIP3    H124385   5.048   3.412  17.131 -2.4570 -1.3348  0.6038
  990TIP3    H224386   5.015   3.410  17.279  1.6750  0.8250  1.7134
  991TIP3   OH224387   4.055   5.537  15.268  0.3224  0.4336 -0.2150
  991TIP3    H124388   4.023   5.447  15.263 -1.1522  0.8733  0.7445
  991TIP3    H224389   4.026   5.578  15.187 -0.6254  0.5254  0.1585
  992TIP3   OH224390   1.455   3.511  14.059  0.4964 -0.5984 -0.5310
  992TIP3    H124391   1.449   3.551  14.146  0.3842 -1.1834 -0.2610
  992TIP3    H224392   1.519   3.564  14.012 -1.0960  1.1094 -0.8700
  993TIP3   OH224393   6.270   0.447  11.880 -0.7260 -0.6032 -0.1713
  993TIP3    H124394   6.233   0.533  11.858 -0.0264 -0.0428  0.7794
  993TIP3    H224395   6.201   0.385  11.856 -1.7779  0.3179  0.3485
  994TIP3   OH224396   1.536   2.229  12.449  0.4841  0.4419  0.2447
  994TIP3    H124397   1.463   2.284  12.422  0.2919  0.6943  1.2640
  994TIP3    H224398   1.573   2.196  12.366 -0.8673  0.1781 -0.2752
  995TIP3   OH224399   2.291   4.323   3.434  0.0011  0.3616  0.0256
  995TIP3    H124400   2.355   4.304   3.503 -0.5335  1.1307  0.7489
  995TIP3    H224401   2.331   4.392   3.382 -0.1761  0.7353  0.3854
  996TIP3   OH224402   0.085   3.944   2.175  0.0961 -0.0156  0.2712
  996TIP3    H124403   0.106   3.880   2.243 -1.3965 -0.9687 -0.1030
  996TIP3    H224404   0.127   3.909   2.096 -0.7735 -0.6027  0.0527
  997TIP3   OH224405   4.019   6.551  15.212  0.3686 -0.3659  0.7114
  997TIP3    H124406   4.025   6.617  15.281 -2.0820  0.2650  0.4013
  997TIP3    H224407   4.036   6.598  15.131 -1.3620 -0.0732  0.4919
  998TIP3   OH224408   4.280   2.628  15.941 -0.1343  0.7134 -0.1814
  998TIP3    H124409   4.262   2.602  16.032 -0.5751 -0.7185 -0.6494
  998TIP3    H224410   4.375   2.632  15.935 -0.0474  4.0056  1.1520
  999TIP3   OH224411   4.286   4.400  13.934  0.0348  0.6861  0.9862
  999TIP3    H124412   4.263   4.481  13.889  3.0083 -0.0559 -2.3823
  999TIP3    H224413   4.225   4.334  13.900  0.0479  0.7979  0.7473
 1000TIP3   OH224414   2.002   3.096   1.806  0.0207  0.2185  0.1035
 1000TIP3    H124415   2.030   3.031   1.741  0.1734  0.2045  0.1828
 1000TIP3    H224416   2.049   3.072   1.886  1.8434  1.7518 -0.4354
 1001TIP3   OH224417   1.440   3.854  12.941 -1.0674 -0.7313  0.2991
 1001TIP3    H124418   1.478   3.923  12.995  0.2006  0.4270 -1.9100
 1001TIP3    H224419   1.363   3.895  12.901 -1.0620 -1.0360 -0.0305
 1002TIP3   OH224420   3.197   4.348   0.103  0.0708 -0.1808 -0.1205
 1002TIP3    H124421   3.284   4.342   0.065  0.2578 -0.0494  0.2840
 1002TIP3    H224422   3.195   4.278   0.169  0.1799  0.3796  0.4819
 1003TIP3   OH224423   2.025   4.560  14.760 -0.9595 -0.4890 -0.7390
 1003TIP3    H124424   2.105   4.534  14.806 -1.0895  1.5210  0.7887
 1003TIP3    H224425   1.986   4.478  14.731 -0.5200 -1.8803  2.2340
 1004TIP3   OH224426   1.842   4.134   5.440 -0.1416 -0.0493  0.3861
 1004TIP3    H124427   1.794   4.052   5.439 -0.3876  0.0588  1.5011
 1004TIP3    H224428   1.934   4.109   5.433 -0.2984 -0.2983 -1.0216
 1005TIP3   OH224429   5.487   6.473  15.298  0.3605  0.2827  0.2988
 1005TIP3    H124430   5.489   6.499  15.390  0.5908 -2.3223  1.1025
 1005TIP3    H224431   5.542   6.395  15.294 -1.7971 -1.2643 -1.5005
 1006TIP3   OH224432   1.936   4.542   1.534  0.0353 -0.5655  0.3994
 1006TIP3    H124433   1.913   4.457   1.498  0.6363 -0.8960  0.7604
 1006TIP3    H224434   2.007   4.522   1.597 -1.3522 -0.1161  2.1970
 1007TIP3   OH224435   1.057   0.307   4.602  0.3238  0.3057 -0.2689
 1007TIP3    H124436   1.100   0.301   4.516 -0.8066  1.1473 -0.9155
 1007TIP3    H224437   1.130   0.319   4.663  1.2118 -1.0674 -0.9968
 1008TIP3   OH224438   3.771   2.621  12.874 -0.2446 -0.2809  0.3572
 1008TIP3    H124439   3.677   2.608  12.886 -0.3235 -0.0326  0.0059
 1008TIP3    H224440   3.802   2.653  12.959 -0.5340 -0.0307  0.3688
 1009TIP3   OH224441   3.660   2.591   5.160  0.0676 -0.2990 -0.0974
 1009TIP3    H124442   3.592   2.654   5.137  1.4197  0.7089 -1.4418
 1009TIP3    H224443   3.729   2.643   5.201  0.8154 -1.0402 -0.3837
 1010TIP3   OH224444   2.273   4.847   2.090  0.5058  0.3889  0.5009
 1010TIP3    H124445   2.203   4.783   2.078  0.2801  0.7107  0.0914
 1010TIP3    H224446   2.279   4.857   2.185 -1.0687  1.4973  0.5170
 1011TIP3   OH224447   4.964   3.755   4.372 -0.1566 -0.3866 -0.1238
 1011TIP3    H124448   4.926   3.727   4.455 -1.8302  0.7763 -0.4615
 1011TIP3    H224449   4.890   3.758   4.311  0.7415  0.4577 -1.2230
 1012TIP3   OH224450   0.643   2.852   1.174  0.8318 -0.3856  0.0711
 1012TIP3    H124451   0.623   2.925   1.234  0.0124  0.3977 -1.1128
 1012TIP3    H224452   0.735   2.865   1.152  1.2935 -0.9746  1.5180
 1013TIP3   OH224453   5.444   2.942   1.478  0.2135 -0.2815 -0.5195
 1013TIP3    H124454   5.439   2.865   1.534  1.1439 -0.5385 -0.7582
 1013TIP3    H224455   5.512   2.996   1.518 -0.0027  0.1248 -0.6959
 1014TIP3   OH224456   2.964   1.094   1.939  0.1921  0.0082 -0.1875
 1014TIP3    H124457   2.915   1.137   1.869 -0.8461 -2.1866 -0.8993
 1014TIP3    H224458   3.028   1.159   1.968 -0.8487  1.7411 -1.6341
 1015TIP3   OH224459   3.599   1.807   4.284 -0.0798 -0.6462  0.5717
 1015TIP3    H124460   3.565   1.882   4.234 -0.9131  0.3173  2.4710
 1015TIP3    H224461   3.694   1.815   4.276 -0.1760 -0.3195 -0.5288
 1016TIP3   OH224462   2.986   3.852   1.977 -0.8799 -0.2738  0.5061
 1016TIP3    H124463   3.007   3.880   2.066  0.4267  1.7359 -0.3586
 1016TIP3    H224464   3.071   3.836   1.936 -1.4982 -1.9756 -0.1648
 1017TIP3   OH224465   2.550   6.695  13.892  0.4033  0.5366  0.1215
 1017TIP3    H124466   2.633   6.650  13.878  0.5911  1.0020 -0.2973
 1017TIP3    H224467   2.535   6.688  13.986 -0.0506 -1.2132 -0.0364
 1018TIP3   OH224468   1.212   4.396  13.325 -0.1233 -0.0534 -0.3754
 1018TIP3    H124469   1.186   4.314  13.283  0.2357 -0.2024 -0.3129
 1018TIP3    H224470   1.159   4.463  13.283 -0.1613 -0.2735 -0.6800
 1019TIP3   OH224471   0.182   6.544  15.965 -0.1565 -0.5411  0.1064
 1019TIP3    H124472   0.277   6.558  15.970 -0.3058  0.1105  1.4709
 1019TIP3    H224473   0.152   6.553  16.055 -1.6201  0.0119 -0.4119
 1020TIP3   OH224474   6.131   0.768   2.520  0.4098  0.0311 -0.4325
 1020TIP3    H124475   6.163   0.680   2.499  0.0250  0.4122 -2.9633
 1020TIP3    H224476   6.059   0.783   2.458 -1.5065  1.0580  1.8769
 1021TIP3   OH224477   5.359   3.669  16.596 -0.6297  0.1935 -0.2325
 1021TIP3    H124478   5.337   3.602  16.661 -1.9062  2.7535  2.1931
 1021TIP3    H224479   5.285   3.669  16.535 -0.8920 -0.1649  0.0832
 1022TIP3   OH224480   0.518   0.125  15.955 -0.5038  0.4273  0.3452
 1022TIP3    H124481   0.584   0.153  15.892 -1.0830  1.7862  0.3156
 1022TIP3    H224482   0.559   0.140  16.041 -0.6848  1.0577  0.3240
 1023TIP3   OH224483   6.084   5.517   1.210  0.1502  0.5080 -0.6391
 1023TIP3    H124484   6.128   5.601   1.198  1.4029 -0.1568 -0.9391
 1023TIP3    H224485   6.027   5.530   1.286 -0.1149  1.7816 -1.0316
 1024TIP3   OH224486   1.730   1.796   3.015  0.2430  0.3601 -0.2880
 1024TIP3    H124487   1.729   1.890   3.032  1.0835 -0.0685  2.8941
 1024TIP3    H224488   1.817   1.778   2.980  1.7841  0.3600  3.1537
 1025TIP3   OH224489   2.302   2.854  13.346 -0.2941  0.4251 -0.1795
 1025TIP3    H124490   2.354   2.924  13.306 -0.5417  0.6841 -0.0606
 1025TIP3    H224491   2.328   2.854  13.438  0.3060 -0.1992 -0.3394
 1026TIP3   OH224492   6.481   1.782   4.286 -0.5304  0.0059  0.2134
 1026TIP3    H124493   6.425   1.796   4.210 -0.8614 -1.4840  0.1495
 1026TIP3    H224494   6.570   1.796   4.254 -0.7738  1.7135  0.1533
 1027TIP3   OH224495   1.240   1.680  16.146 -0.0961 -0.0262  0.2602
 1027TIP3    H124496   1.192   1.717  16.072 -0.4844 -0.1017  0.4731
 1027TIP3    H224497   1.314   1.740  16.160  0.2354 -0.2520 -0.4697
 1028TIP3   OH224498   2.214   2.898  16.698  0.6522 -0.0217  0.1916
 1028TIP3    H124499   2.306   2.925  16.706  0.7169 -0.2043  0.0744
 1028TIP3    H224500   2.202   2.883  16.604  0.4705  0.1147  0.1936
 1029TIP3   OH224501   4.304   4.574  11.945  0.5281 -0.6253 -0.1787
 1029TIP3    H124502   4.285   4.523  12.023 -0.4032  1.5357  1.1141
 1029TIP3    H224503   4.375   4.527  11.901  0.0536 -2.6822  1.1695
 1030TIP3   OH224504   1.679   2.468  12.950  0.1983 -0.4614 -0.5616
 1030TIP3    H124505   1.771   2.441  12.947 -0.0937 -1.4350 -2.5525
 1030TIP3    H224506   1.630   2.388  12.932 -0.9368  0.3503 -1.1955
 1031TIP3   OH224507   6.688   3.655  11.590  0.7664 -0.2450 -0.2833
 1031TIP3    H124508   6.749   3.623  11.523  0.2221 -3.2851  0.5183
 1031TIP3    H224509   6.607   3.608  11.573 -0.3763  1.2836  0.6541
 1032TIP3   OH224510   4.622   3.457  14.842 -0.4599 -0.3084 -0.1553
 1032TIP3    H124511   4.538   3.483  14.879  0.2061 -0.7316  1.7848
 1032TIP3    H224512   4.675   3.537  14.847  0.5520 -1.0335  2.7277
 1033TIP3   OH224513   0.085   2.815   0.049 -0.0091 -0.0917  0.4815
 1033TIP3    H124514   0.132   2.873   0.108  0.7931 -1.4567  1.2386
 1033TIP3    H224515   0.137   2.814  -0.031 -0.5065  0.9012  0.1318
 1034TIP3   OH224516   3.399   5.812  15.951  0.0394 -0.3889 -0.3645
 1034TIP3    H124517   3.406   5.906  15.969 -0.6730 -0.2278 -0.9164
 1034TIP3    H224518   3.394   5.806  15.856  0.2891 -1.0072 -0.3427
 1035TIP3   OH224519   0.136   1.673  13.295  0.0738  0.2328  0.1489
 1035TIP3    H124520   0.140   1.592  13.245  2.2620 -0.6733  1.6365
 1035TIP3    H224521   0.043   1.689  13.307 -0.4266 -1.6647 -0.7887
 1036TIP3   OH224522   6.130   2.393  11.872  0.5768 -0.0971  0.3836
 1036TIP3    H124523   6.098   2.386  11.962  0.3495  0.5776  0.3596
 1036TIP3    H224524   6.136   2.487  11.855  0.9802 -0.2141 -0.1814
 1037TIP3   OH224525   1.107   3.270   5.265 -0.2720 -0.6599  0.0073
 1037TIP3    H124526   1.040   3.276   5.197 -0.5498  0.1716  0.3386
 1037TIP3    H224527   1.076   3.328   5.334  0.9644  0.0305  0.0158
 1038TIP3   OH224528   4.213   1.927   4.377 -0.0937  0.2138 -0.3296
 1038TIP3    H124529   4.182   1.843   4.343  0.4666 -0.2253  0.2197
 1038TIP3    H224530   4.263   1.966   4.305  1.2625 -0.8018  0.0386
 1039TIP3   OH224531   2.833   0.781  15.398  0.0437 -0.2901  0.0615
 1039TIP3    H124532   2.909   0.740  15.440  0.7231 -1.1888 -1.9326
 1039TIP3    H224533   2.770   0.709  15.388 -0.7617  0.2772  0.9846
 1040TIP3   OH224534   2.367   0.845  10.472  0.0434  0.1777  0.0882
 1040TIP3    H124535   2.370   0.749  10.475 -1.0054  0.1440  0.3162
 1040TIP3    H224536   2.415   0.868  10.393  2.9389 -0.3833  1.5278
 1041TIP3   OH224537   3.011   5.819   5.679 -0.4620 -0.0846 -0.5238
 1041TIP3    H124538   2.962   5.901   5.671 -0.0558  0.3787  1.2421
 1041TIP3    H224539   3.077   5.837   5.746  0.0887 -1.6458 -0.6008
 1042TIP3   OH224540   1.142   4.186  11.904 -0.4235 -0.3125 -0.4932
 1042TIP3    H124541   1.092   4.221  11.830 -0.6634  0.9008  0.2298
 1042TIP3    H224542   1.224   4.156  11.865 -0.8508 -0.3973 -1.3616
 1043TIP3   OH224543   2.490   2.598   1.986  0.3357  0.3649  0.4762
 1043TIP3    H124544   2.567   2.543   1.974  1.3054  1.9702 -1.2654
 1043TIP3    H224545   2.416   2.540   1.970  1.2662 -0.7166 -0.0768
 1044TIP3   OH224546   6.658   5.091  13.191  0.1031 -0.0250 -0.4000
 1044TIP3    H124547   6.729   5.033  13.164 -2.5647 -2.1988 -3.5794
 1044TIP3    H224548   6.587   5.031  13.215 -1.4580  2.0034  0.2892
 1045TIP3   OH224549   5.287   6.707   4.978  0.1274  0.1369 -1.2873
 1045TIP3    H124550   5.261   6.797   4.957  1.5893  1.0419  0.4703
 1045TIP3    H224551   5.364   6.691   4.925  0.2796  0.1855 -1.0814
 1046TIP3   OH224552   5.561   3.894   0.377  0.1564  0.1377  0.1074
 1046TIP3    H124553   5.567   3.951   0.301  0.8212  1.1771  0.9166
 1046TIP3    H224554   5.470   3.865   0.378 -0.9191  3.1848  1.0679
 1047TIP3   OH224555   3.765   0.071  16.418  0.4673 -0.1959 -0.5407
 1047TIP3    H124556   3.796   0.017  16.491 -0.5523  0.5811  0.5087
 1047TIP3    H224557   3.812   0.153  16.427  1.2638 -0.5151 -1.5356
 1048TIP3   OH224558   3.277   6.370  13.934  0.2461 -0.3014  0.5248
 1048TIP3    H124559   3.205   6.308  13.921 -0.5279  0.7676 -0.4561
 1048TIP3    H224560   3.257   6.443  13.876  0.6385  1.3189  2.3269
 1049TIP3   OH224561   4.097   2.346  11.859  0.7171  0.2700  0.3024
 1049TIP3    H124562   4.041   2.293  11.915  0.9180 -0.7907 -0.4542
 1049TIP3    H224563   4.037   2.405  11.813  0.2253 -0.7452 -0.3869
 1050TIP3   OH224564   5.500   0.865   4.910  0.4032 -0.0941 -0.5008
 1050TIP3    H124565   5.431   0.826   4.964  0.2336  1.6065  0.6149
 1050TIP3    H224566   5.571   0.801   4.912 -0.2204 -0.7977  0.3959
 1051TIP3   OH224567   5.770   5.359   5.864  0.3077 -0.1212 -0.5882
 1051TIP3    H124568   5.679   5.380   5.888  0.5004  1.3235 -1.0442
 1051TIP3    H224569   5.821   5.381   5.942  0.3543 -0.2107 -0.5933
 1052TIP3   OH224570   5.625   5.669  16.367 -0.2340  0.5401 -0.0047
 1052TIP3    H124571   5.617   5.606  16.439  0.8375 -1.3323 -1.4319
 1052TIP3    H224572   5.538   5.670  16.327  0.1545 -1.5383 -1.0755
 1053TIP3   OH224573   6.651   1.212  16.206 -0.2996 -0.1902  0.0633
 1053TIP3    H124574   6.704   1.264  16.145 -0.5879  0.1952  0.1368
 1053TIP3    H224575   6.572   1.265  16.220 -0.9709 -1.0099 -0.4930
 1054TIP3   OH224576   1.527   0.151   0.263  0.0749  0.3154 -0.2577
 1054TIP3    H124577   1.520   0.056   0.274 -0.5658  0.3418 -0.3768
 1054TIP3    H224578   1.460   0.187   0.322 -1.7146  0.5674 -2.2836
 1055TIP3   OH224579   2.117   5.583  15.467 -0.2559 -0.2938 -0.3184
 1055TIP3    H124580   2.148   5.541  15.387  0.9556 -2.2790  1.1010
 1055TIP3    H224581   2.068   5.515  15.513  1.2055 -0.0682  1.7489
 1056TIP3   OH224582   5.705   3.390  12.322 -0.3844  0.7789  0.3990
 1056TIP3    H124583   5.754   3.472  12.326  0.5801  0.2109  0.5147
 1056TIP3    H224584   5.772   3.322  12.329 -1.2866 -0.0226  1.8826
 1057TIP3   OH224585   4.071   1.073   6.114 -0.2557 -0.0770  0.0735
 1057TIP3    H124586   4.056   0.981   6.094 -0.8651  0.2210 -0.9336
 1057TIP3    H224587   3.984   1.112   6.116  0.0597  0.6968 -0.6651
 1058TIP3   OH224588   3.615   5.035   3.196  0.3779 -0.1612 -0.2825
 1058TIP3    H124589   3.693   5.045   3.251 -0.8420  0.0538  1.4632
 1058TIP3    H224590   3.616   4.943   3.170 -0.1276 -0.8238  1.8710
 1059TIP3   OH224591   5.070   5.419  14.896 -0.6154  0.1743 -1.0185
 1059TIP3    H124592   5.111   5.415  14.982  0.1831  0.5520 -1.3665
 1059TIP3    H224593   5.036   5.331  14.881 -0.3750 -0.0058 -0.5009
 1060TIP3   OH224594   3.157   1.059  16.270 -0.2845 -0.4122 -0.5677
 1060TIP3    H124595   3.167   1.116  16.194 -1.9058 -0.7115 -1.0345
 1060TIP3    H224596   3.066   1.031  16.268 -0.1299 -1.1500  0.9888
 1061TIP3   OH224597   4.307   4.995   0.403  0.2594  0.6126  0.1643
 1061TIP3    H124598   4.307   5.083   0.441  0.0481  1.0367 -0.8022
 1061TIP3    H224599   4.395   4.983   0.369  0.6571 -0.0339  1.3385
 1062TIP3   OH224600   2.685   3.756  14.281 -0.0981 -0.3929  0.2105
 1062TIP3    H124601   2.681   3.835  14.336 -0.7530 -0.1917 -0.1194
 1062TIP3    H224602   2.740   3.782  14.207  0.2962 -0.4805  0.4691
 1063TIP3   OH224603   6.466   4.447   2.418 -0.5019  0.2020  0.1100
 1063TIP3    H124604   6.380   4.432   2.380  0.4147  0.1031 -2.0561
 1063TIP3    H224605   6.512   4.364   2.407  0.0968  0.4553  0.6377
 1064TIP3   OH224606   3.543   6.045   1.584  0.0145  0.1362  0.2626
 1064TIP3    H124607   3.555   6.137   1.607 -1.9630  0.3939  0.3954
 1064TIP3    H224608   3.588   6.036   1.499  2.3603  0.5666  1.3693
 1065TIP3   OH224609   3.343   2.927   0.995  0.4295 -0.5723 -0.4497
 1065TIP3    H124610   3.332   2.841   0.954 -1.7750  0.8407 -3.1366
 1065TIP3    H224611   3.380   2.982   0.926  0.0496  1.0762  0.6055
 1066TIP3   OH224612   3.302   5.242   2.281  0.5185  0.0570 -0.5702
 1066TIP3    H124613   3.368   5.297   2.238  1.1692  1.5903  2.1606
 1066TIP3    H224614   3.353   5.181   2.335 -0.2675 -0.6668 -0.6238
 1067TIP3   OH224615   4.145   3.372  16.328 -0.1553 -0.4488  0.0521
 1067TIP3    H124616   4.122   3.304  16.265 -0.5109 -0.9155  0.6783
 1067TIP3    H224617   4.105   3.452  16.293 -2.5115 -1.1627  0.9185
 1068TIP3   OH224618   0.731   5.429   1.500 -0.0602 -0.0620  0.2520
 1068TIP3    H124619   0.801   5.493   1.512 -0.4683  0.6428 -0.9180
 1068TIP3    H224620   0.748   5.361   1.566  2.4878 -0.5925 -0.8377
 1069TIP3   OH224621   4.483   6.149   5.367 -0.1952  0.6476 -0.0868
 1069TIP3    H124622   4.494   6.121   5.458  0.5183 -0.1332 -0.4005
 1069TIP3    H224623   4.391   6.175   5.362  0.0019  1.6986  1.1086
 1070TIP3   OH224624   1.731   6.027  16.556  0.3650  0.5399  0.2801
 1070TIP3    H124625   1.648   5.984  16.574  0.7482 -0.0974  0.5479
 1070TIP3    H224626   1.786   5.960  16.517  0.6486  1.0455 -0.2123
 1071TIP3   OH224627   5.917   5.577  13.564  0.2241  0.0034 -0.3306
 1071TIP3    H124628   5.914   5.545  13.654  1.6833 -2.1912 -0.9697
 1071TIP3    H224629   5.831   5.558  13.529  0.2844 -1.0498  0.0431
 1072TIP3   OH224630   0.934   5.119  11.493  0.5735  0.3684  0.4218
 1072TIP3    H124631   0.857   5.135  11.548  0.5409  1.0606  0.1743
 1072TIP3    H224632   0.981   5.202  11.491  0.9137  0.1708 -0.0779
 1073TIP3   OH224633   2.629   4.394   6.367  0.2377 -0.1482  0.0052
 1073TIP3    H124634   2.708   4.345   6.346  0.1504 -1.1890  1.8915
 1073TIP3    H224635   2.660   4.476   6.404  0.3981  0.2769 -1.0423
 1074TIP3   OH224636   3.990   3.216   1.075  0.1618 -0.0219 -0.5308
 1074TIP3    H124637   3.901   3.217   1.039  0.3319 -1.3880 -1.0455
 1074TIP3    H224638   3.981   3.252   1.163 -0.9238 -0.2572 -0.5367
 1075TIP3   OH224639   3.121   4.058   3.295 -0.0169 -0.0453 -0.1384
 1075TIP3    H124640   3.046   4.114   3.313  0.3316  0.1848  0.6612
 1075TIP3    H224641   3.108   4.028   3.206 -2.4876 -2.2038  0.8305
 1076TIP3   OH224642   0.515   2.364   5.805 -0.1231  0.8353 -0.3325
 1076TIP3    H124643   0.498   2.458   5.812  0.4493  0.9174 -0.0233
 1076TIP3    H224644   0.487   2.328   5.889 -0.4283  0.7104 -0.4845
 1077TIP3   OH224645   3.627   3.171   2.769  0.1457  0.5027 -0.0455
 1077TIP3    H124646   3.721   3.156   2.766  0.0358 -0.5703  1.0909
 1077TIP3    H224647   3.589   3.084   2.783 -1.1156  0.7187 -1.8047
 1078TIP3   OH224648   3.420   5.193  13.416  0.3238 -0.1439  0.1693
 1078TIP3    H124649   3.364   5.184  13.493  0.1210  0.0680  0.0518
 1078TIP3    H224650   3.362   5.231  13.349  0.9822  1.5239  0.4978
 1079TIP3   OH224651   0.203   0.922  15.065 -0.3940 -0.7613  0.0750
 1079TIP3    H124652   0.136   0.978  15.102  0.0386 -0.9646  1.2160
 1079TIP3    H224653   0.286   0.961  15.092 -0.0831 -2.0248  1.0604
 1080TIP3   OH224654   6.228   2.419   1.768  0.0513  0.2653  0.6414
 1080TIP3    H124655   6.168   2.386   1.834  0.2842  0.8150  1.1252
 1080TIP3    H224656   6.173   2.471   1.709 -0.0330  0.3399  0.7869
 1081TIP3   OH224657   0.131   3.002  14.005  0.1751 -0.2573  0.7871
 1081TIP3    H124658   0.202   2.967  14.058  0.6051 -1.5083 -0.5832
 1081TIP3    H224659   0.164   3.087  13.975  1.5104 -1.2281 -0.6093
 1082TIP3   OH224660   2.329   1.178   0.886  0.0967 -0.1874  0.2335
 1082TIP3    H124661   2.284   1.100   0.854 -1.4429  1.1289 -0.9815
 1082TIP3    H224662   2.350   1.228   0.807  2.8860 -0.2534  0.8300
 1083TIP3   OH224663   5.837   1.990   0.443 -0.1102  0.0701 -0.5342
 1083TIP3    H124664   5.882   1.975   0.360  0.9051  1.9308 -0.3711
 1083TIP3    H224665   5.817   1.903   0.476  1.3940 -0.7597 -1.7077
 1084TIP3   OH224666   4.761   3.844  13.526 -0.2895  0.2917 -0.7385
 1084TIP3    H124667   4.800   3.762  13.555  0.3530  0.7808 -0.1904
 1084TIP3    H224668   4.829   3.885  13.473 -0.8589  0.1596 -1.5961
 1085TIP3   OH224669   5.730   0.921  15.522 -0.2659 -0.5514  0.0005
 1085TIP3    H124670   5.731   0.983  15.450  0.7286  0.4893  0.8669
 1085TIP3    H224671   5.692   0.841  15.485  0.3018 -0.0803 -1.6884
 1086TIP3   OH224672   6.333   0.289  17.360  0.5431 -0.0265  1.0521
 1086TIP3    H124673   6.327   0.372  17.312 -0.4309 -0.0660  1.0784
 1086TIP3    H224674   6.422   0.288  17.396  0.6111  0.9348  0.9335
 1087TIP3   OH224675   6.365   2.124   3.583  1.3988 -0.7144 -1.0741
 1087TIP3    H124676   6.308   2.190   3.545  0.1736 -0.8894  0.3377
 1087TIP3    H224677   6.425   2.100   3.513  1.3745  1.3108 -1.8462
 1088TIP3   OH224678   4.716   0.655  13.575  0.3853  0.4472  0.3615
 1088TIP3    H124679   4.637   0.633  13.526  0.1746 -0.0491  0.9157
 1088TIP3    H224680   4.740   0.743  13.545  0.1015  0.2642 -0.4212
 1089TIP3   OH224681   2.356   0.283  11.168 -0.2578 -0.0738  0.0228
 1089TIP3    H124682   2.402   0.362  11.140 -0.0587  0.2016  1.0943
 1089TIP3    H224683   2.323   0.303  11.256 -1.5227 -0.6387 -0.2904
 1090TIP3   OH224684   3.495   0.418  11.126 -0.7172 -0.9150 -0.1675
 1090TIP3    H124685   3.580   0.394  11.089 -0.2957 -2.1463  1.5134
 1090TIP3    H224686   3.435   0.352  11.092 -1.1353  0.1558 -1.6413
 1091TIP3   OH224687   0.801   0.854   1.722  0.4845 -0.4101 -0.0275
 1091TIP3    H124688   0.773   0.945   1.735 -1.5682 -1.1794  1.3985
 1091TIP3    H224689   0.870   0.840   1.786 -1.1153 -0.5898  1.7524
 1092TIP3   OH224690   0.616   4.559   2.324  0.4943  0.0487 -0.3972
 1092TIP3    H124691   0.603   4.476   2.278  2.1222 -0.4993  0.0759
 1092TIP3    H224692   0.671   4.611   2.266 -0.2485  0.6985 -0.5432
 1093TIP3   OH224693   0.672   2.571   1.125  0.2780 -0.4544 -0.4605
 1093TIP3    H124694   0.720   2.582   1.043  0.5973 -2.3860 -0.5856
 1093TIP3    H224695   0.665   2.659   1.161 -0.1764  0.4960 -2.7153
 1094TIP3   OH224696   0.566   3.736  11.757 -0.0418 -0.1434 -0.2978
 1094TIP3    H124697   0.561   3.831  11.761 -0.7454 -0.2123  1.9067
 1094TIP3    H224698   0.480   3.708  11.726  0.2624 -0.0732 -1.2318
 1095TIP3   OH224699   5.383   5.982   6.372  0.2152 -0.4502  0.1753
 1095TIP3    H124700   5.398   5.913   6.437  1.2720 -0.2388  0.1617
 1095TIP3    H224701   5.372   5.935   6.289 -1.4061 -0.7398  0.5155
 1096TIP3   OH224702   2.590   2.801  16.406 -0.0840 -0.5609 -0.1434
 1096TIP3    H124703   2.571   2.731  16.468 -1.5953  0.8315  1.0606
 1096TIP3    H224704   2.520   2.795  16.341  0.1145 -0.5308 -0.3618
 1097TIP3   OH224705   4.895   4.550   5.627  0.1155 -0.0398 -0.2646
 1097TIP3    H124706   4.901   4.523   5.719  1.9300  0.2369 -0.2662
 1097TIP3    H224707   4.945   4.631   5.623  0.1958 -0.1360 -1.5370
 1098TIP3   OH224708   3.923   5.089   4.116 -0.7301  0.2866  0.6054
 1098TIP3    H124709   3.847   5.119   4.066 -1.1045 -1.6850 -0.0954
 1098TIP3    H224710   3.885   5.046   4.192 -0.3432 -0.6883  0.2605
 1099TIP3   OH224711   0.657   0.599  13.416  0.3748 -0.4518 -0.7028
 1099TIP3    H124712   0.654   0.503  13.419 -0.4094 -0.4918 -1.9282
 1099TIP3    H224713   0.575   0.627  13.456  0.0931 -0.3474 -1.3292
 1100TIP3   OH224714   1.272   2.233  14.904 -0.0257 -0.4224  1.3377
 1100TIP3    H124715   1.308   2.302  14.960 -0.3536 -1.2598  2.6224
 1100TIP3    H224716   1.189   2.270  14.872 -0.6017 -0.4926  2.6714
 1101TIP3   OH224717   6.684   0.685   0.191  0.1157  0.4292 -0.3215
 1101TIP3    H124718   6.748   0.676   0.262  0.3640  0.9600 -0.4718
 1101TIP3    H224719   6.702   0.612   0.132  1.0024  0.9297 -0.6882
 1102TIP3   OH224720   3.280   1.159  14.418  0.1827 -0.3612  0.2440
 1102TIP3    H124721   3.361   1.151  14.469 -0.6334 -0.2251  1.6239
 1102TIP3    H224722   3.265   1.072  14.381  0.4198 -0.6556  0.8377
 1103TIP3   OH224723   1.198   2.153   1.938 -0.0341  0.3174 -0.2386
 1103TIP3    H124724   1.246   2.236   1.935  0.0675  0.2301 -1.7011
 1103TIP3    H224725   1.135   2.159   1.867  0.3019 -1.0412 -0.6878
 1104TIP3   OH224726   5.745   3.680   0.271 -0.4553  0.1988 -0.1403
 1104TIP3    H124727   5.767   3.612   0.334 -1.4478 -0.0342 -0.0196
 1104TIP3    H224728   5.687   3.739   0.319 -2.0326 -0.5151 -1.0757
 1105TIP3   OH224729   3.046   1.671  14.663 -0.0484 -0.1447  0.7892
 1105TIP3    H124730   2.990   1.600  14.632 -1.7404 -0.2151  3.6371
 1105TIP3    H224731   3.067   1.721  14.584 -1.2146 -2.1064 -0.8865
 1106TIP3   OH224732   2.949   0.238  13.495  0.5046  0.0465  0.1127
 1106TIP3    H124733   3.003   0.302  13.449  1.1455 -0.2414  0.4501
 1106TIP3    H224734   2.968   0.155  13.451  1.4283 -0.3020  1.1342
 1107TIP3   OH224735   2.205   1.459  10.803  0.2508 -0.7278  0.1629
 1107TIP3    H124736   2.190   1.439  10.711 -0.5648 -0.5939  0.2537
 1107TIP3    H224737   2.259   1.388  10.836  0.9072 -0.5499 -0.5229
 1108TIP3   OH224738   2.762   1.669   1.671  0.5021  0.5148  0.0069
 1108TIP3    H124739   2.809   1.613   1.609 -2.4913  0.4973 -2.5392
 1108TIP3    H224740   2.748   1.613   1.748 -0.2892 -1.4957 -1.4966
 1109TIP3   OH224741   3.031   1.681   3.598  0.3131 -0.8016 -0.1184
 1109TIP3    H124742   3.019   1.588   3.580 -0.5310 -0.9798  1.2417
 1109TIP3    H224743   2.956   1.723   3.555  0.8444 -0.7092 -0.9681
 1110TIP3   OH224744   5.678   5.819   2.442 -0.3698  0.6064  0.3419
 1110TIP3    H124745   5.715   5.821   2.353  0.2090 -0.4736  0.5403
 1110TIP3    H224746   5.591   5.780   2.431 -0.4665  0.8591  0.1995
 1111TIP3   OH224747   3.224   6.589  13.804 -0.1077 -0.1257 -0.0513
 1111TIP3    H124748   3.157   6.650  13.772 -0.0342 -0.3834 -0.7004
 1111TIP3    H224749   3.285   6.644  13.853 -0.4732  0.1985  0.0515
 1112TIP3   OH224750   0.836   1.699   3.450  0.0095 -0.7865  0.1542
 1112TIP3    H124751   0.797   1.657   3.527 -0.4210  0.0016  0.3784
 1112TIP3    H224752   0.793   1.784   3.446  0.4449 -0.6028 -0.6345
 1113TIP3   OH224753   3.938   4.848   3.951  0.8784  0.2182 -0.2663
 1113TIP3    H124754   4.027   4.862   3.919  0.4059  2.0881 -0.8997
 1113TIP3    H224755   3.922   4.922   4.010  0.1263 -0.7125  0.7367
 1114TIP3   OH224756   0.648   1.574   1.269  0.0219 -0.1961 -0.3204
 1114TIP3    H124757   0.667   1.617   1.186  1.1233 -1.0521 -0.5336
 1114TIP3    H224758   0.563   1.531   1.255  0.8038 -1.4353 -1.4741
 1115TIP3   OH224759   0.528   1.937  13.494  0.0192  0.1602 -0.2047
 1115TIP3    H124760   0.541   1.995  13.419  2.0452  1.5627  1.1393
 1115TIP3    H224761   0.548   1.850  13.461 -2.9650  0.0896 -2.2479
 1116TIP3   OH224762   2.360   4.175  15.528  0.2629 -0.8471 -0.4532
 1116TIP3    H124763   2.367   4.092  15.481 -1.0021 -2.1908  1.5761
 1116TIP3    H224764   2.450   4.197  15.551  0.5095 -2.4122  0.1645
 1117TIP3   OH224765   4.948   1.160   2.511  0.4358  0.5639 -0.5707
 1117TIP3    H124766   4.900   1.079   2.493  0.1143  0.5646  0.2478
 1117TIP3    H224767   5.033   1.131   2.544  0.4100  0.5663 -0.5035
 1118TIP3   OH224768   1.445   2.431  12.660  0.1055  0.1352  0.4935
 1118TIP3    H124769   1.358   2.462  12.635 -0.2835 -0.9085  0.5139
 1118TIP3    H224770   1.434   2.338  12.678  1.6581 -0.5134 -1.5427
 1119TIP3   OH224771   2.637   2.258   2.474 -0.1521  0.2745  0.2804
 1119TIP3    H124772   2.650   2.350   2.452 -1.8315  0.3892 -0.3405
 1119TIP3    H224773   2.611   2.258   2.566 -4.9403  0.9973 -0.8110
 1120TIP3   OH224774   1.094   2.574   3.478  0.2449 -0.2803  0.0324
 1120TIP3    H124775   1.051   2.503   3.525  0.6903 -1.4049 -1.1764
 1120TIP3    H224776   1.109   2.538   3.390  0.3908  1.3589 -0.6431
 1121TIP3   OH224777   5.435   2.266   0.424 -0.1468 -0.1513 -0.2122
 1121TIP3    H124778   5.530   2.261   0.422 -0.1101  0.4692 -1.1559
 1121TIP3    H224779   5.416   2.345   0.476 -0.1081  0.1613 -0.6619
 1122TIP3   OH224780   2.207   6.513   0.043  0.1912  0.5865 -0.8586
 1122TIP3    H124781   2.248   6.432   0.072  1.0061  0.7446 -1.5252
 1122TIP3    H224782   2.217   6.512  -0.052  3.6582  3.1918 -0.7249
 1123TIP3   OH224783   1.613   3.889  14.676 -0.4424  0.4688  0.8151
 1123TIP3    H124784   1.565   3.890  14.759  0.0600  0.5012  1.1099
 1123TIP3    H224785   1.558   3.838  14.617 -0.2695 -0.5344  1.4945
 1124TIP3   OH224786   5.486   5.419  16.374  0.3356  0.2434  0.3250
 1124TIP3    H124787   5.561   5.375  16.333  0.2516  1.8778 -1.7693
 1124TIP3    H224788   5.416   5.411  16.309 -0.2056  1.8278  0.6707
 1125TIP3   OH224789   3.555   1.870  10.759 -0.3486 -0.2433 -0.0025
 1125TIP3    H124790   3.537   1.858  10.852 -1.9746  0.3630 -0.1863
 1125TIP3    H224791   3.493   1.811  10.715  1.0628 -1.2542 -0.7149
 1126TIP3   OH224792   3.210   2.179   5.969 -0.0369 -0.0465 -0.3385
 1126TIP3    H124793   3.242   2.241   6.036  0.8520 -1.7588  0.9172
 1126TIP3    H224794   3.186   2.235   5.895  1.3903  1.7588  0.4473
 1127TIP3   OH224795   1.616   2.841   3.797 -0.3302  0.5117  0.5686
 1127TIP3    H124796   1.620   2.823   3.891 -1.4998  0.2617  0.5881
 1127TIP3    H224797   1.522   2.850   3.779 -0.1169  0.4737 -0.5920
 1128TIP3   OH224798   5.602   5.203   6.197 -0.3904  0.6180  0.2505
 1128TIP3    H124799   5.644   5.121   6.220 -0.4344  0.1220 -1.3057
 1128TIP3    H224800   5.639   5.267   6.257  0.5463 -0.3139  0.6848
 1129TIP3   OH224801   0.418   0.265  16.380  0.5016 -0.4453  0.1270
 1129TIP3    H124802   0.370   0.332  16.429  1.6066 -1.3992  2.6774
 1129TIP3    H224803   0.363   0.187  16.385  1.0240 -0.7903  0.6866
 1130TIP3   OH224804   2.814   4.921  16.842 -0.1886 -0.1637  0.4071
 1130TIP3    H124805   2.796   4.950  16.752 -1.3877  0.6636  0.8912
 1130TIP3    H224806   2.834   5.000  16.890  1.1351 -0.6833  0.7414
 1131TIP3   OH224807   3.374   0.057   4.740  0.1335 -0.3682 -0.7701
 1131TIP3    H124808   3.372   0.152   4.732  0.5200 -0.4602 -2.0813
 1131TIP3    H224809   3.368   0.024   4.650  0.1492 -1.5817 -0.3515
 1132TIP3   OH224810   0.712   4.713  14.681 -0.0083 -0.1275  0.1208
 1132TIP3    H124811   0.744   4.667  14.758  0.4687  2.0064  1.2564
 1132TIP3    H224812   0.787   4.763  14.649 -1.0449  1.6496  0.3212
 1133TIP3   OH224813   6.723   2.760  16.660 -0.5549 -0.1124  0.8895
 1133TIP3    H124814   6.639   2.715  16.671 -0.0637 -1.1278  0.6060
 1133TIP3    H224815   6.785   2.708  16.712  0.1881 -0.2739 -0.1325
 1134TIP3   OH224816   4.320   2.479   6.227  0.0342 -0.1552 -0.5069
 1134TIP3    H124817   4.232   2.489   6.192 -0.4653 -2.6083 -0.1241
 1134TIP3    H224818   4.358   2.407   6.176  1.9134  0.9411 -0.7679
 1135TIP3   OH224819   1.889   2.396  11.116 -0.2390  0.1186  0.0566
 1135TIP3    H124820   1.871   2.311  11.155  1.3959 -1.0096 -1.4758
 1135TIP3    H224821   1.872   2.384  11.023 -0.1383  1.5258 -0.1738
 1136TIP3   OH224822   4.514   0.264   0.708 -0.3034 -0.0122 -0.1940
 1136TIP3    H124823   4.477   0.237   0.624 -0.4778  0.0896 -0.1486
 1136TIP3    H224824   4.536   0.356   0.697 -1.3409  0.2990  0.2268
 1137TIP3   OH224825   5.226   6.601   1.928  0.3361 -0.2439  0.2692
 1137TIP3    H124826   5.196   6.651   1.853 -1.1825 -0.6777  0.5572
 1137TIP3    H224827   5.285   6.661   1.974  0.2457  0.4953 -0.5497
 1138TIP3   OH224828   4.209   1.197   2.065  0.0096 -0.1151  0.4700
 1138TIP3    H124829   4.177   1.155   2.144  0.8094 -0.5476  0.5756
 1138TIP3    H224830   4.152   1.165   1.996  0.0157 -0.6236  0.7002
 1139TIP3   OH224831   1.089   0.423  12.828 -0.5352  0.2601  0.0462
 1139TIP3    H124832   1.143   0.415  12.907  0.3202 -0.4661 -0.5911
 1139TIP3    H224833   1.028   0.494  12.848  0.4187  0.8693  0.9319
 1140TIP3   OH224834   2.250   0.827   4.815 -0.2869  0.2666 -0.6678
 1140TIP3    H124835   2.156   0.819   4.828  0.1295 -0.9907  2.3390
 1140TIP3    H224836   2.278   0.742   4.783 -0.0088  0.1555 -0.1450
 1141TIP3   OH224837   6.180   1.360   0.694 -0.0189 -0.0948  0.6330
 1141TIP3    H124838   6.267   1.352   0.733  0.5458  2.3718  0.0343
 1141TIP3    H224839   6.155   1.270   0.672  2.1056 -0.9154  1.3679
 1142TIP3   OH224840   6.170   1.909   1.840 -0.2379  0.1904 -0.1214
 1142TIP3    H124841   6.177   1.813   1.839  0.5967  0.2408 -0.9017
 1142TIP3    H224842   6.237   1.938   1.902  1.1849  0.3357 -1.6312
 1143TIP3   OH224843   1.663   0.172  13.099 -0.0198 -0.1769 -0.5122
 1143TIP3    H124844   1.629   0.098  13.048 -1.4519 -1.2284  1.8245
 1143TIP3    H224845   1.712   0.132  13.171  0.2074  1.1945  0.1264
 1144TIP3   OH224846   0.002   5.414   6.373 -0.7346 -0.3559  0.3539
 1144TIP3    H124847   0.036   5.499   6.345 -0.0033 -0.5637  0.5885
 1144TIP3    H224848   0.014   5.414   6.468 -1.0689 -0.5777  0.3969
 1145TIP3   OH224849   5.987   5.940  16.392  0.3524 -0.0906  0.2615
 1145TIP3    H124850   5.936   5.906  16.319  2.2509 -2.7490  0.0437
 1145TIP3    H224851   5.929   5.932  16.468  0.2735 -2.7907 -0.0122
 1146TIP3   OH224852   3.607   1.853   0.724 -0.2908 -0.2342 -0.6830
 1146TIP3    H124853   3.699   1.849   0.699  0.2223  0.2660  0.9906
 1146TIP3    H224854   3.582   1.761   0.738  1.0764 -0.2292  2.4976
 1147TIP3   OH224855   3.084   4.550   1.843 -0.3277  0.3036  0.4730
 1147TIP3    H124856   3.084   4.497   1.923 -0.8203  0.9829  0.9383
 1147TIP3    H224857   3.027   4.503   1.782  1.2421 -1.0090 -0.0392
 1148TIP3   OH224858   5.462   1.111   5.687  0.3469  0.2478 -0.5485
 1148TIP3    H124859   5.501   1.054   5.754  2.0118  0.2426 -1.4605
 1148TIP3    H224860   5.437   1.052   5.616 -1.9021  0.1865  0.2114
 1149TIP3   OH224861   1.380   5.748   5.706 -0.1632 -0.6909 -0.4011
 1149TIP3    H124862   1.460   5.759   5.757  0.1623 -2.2226 -0.5452
 1149TIP3    H224863   1.382   5.657   5.677  0.1040  0.2859 -3.8896
 1150TIP3   OH224864   3.885   0.608  13.076  0.2356  0.0319  0.3504
 1150TIP3    H124865   3.803   0.630  13.033 -0.6081 -1.0189  1.3456
 1150TIP3    H224866   3.937   0.688  13.072 -1.1449  0.9571  0.4055
 1151TIP3   OH224867   0.578   0.439   0.732 -0.1767 -0.3297 -0.2330
 1151TIP3    H124868   0.591   0.513   0.792  0.7795  0.3946 -1.2956
 1151TIP3    H224869   0.483   0.436   0.718 -0.3038  0.1810  0.4612
 1152TIP3   OH224870   4.196   3.841  11.144 -0.1730  0.2811 -0.1140
 1152TIP3    H124871   4.248   3.785  11.086 -1.6823 -0.5830 -0.6880
 1152TIP3    H224872   4.130   3.881  11.087 -0.2014  1.2910  0.6057
 1153TIP3   OH224873   1.408   4.130  11.801 -0.0130  0.2440  0.7104
 1153TIP3    H124874   1.467   4.085  11.740  1.0228  0.8132  1.2599
 1153TIP3    H224875   1.467   4.175  11.862 -1.0288  0.5552  1.4838
 1154TIP3   OH224876   2.551   6.180   3.878 -0.7266  0.2473 -0.0308
 1154TIP3    H124877   2.473   6.131   3.902 -1.8629  2.4839  1.1912
 1154TIP3    H224878   2.613   6.165   3.950 -0.5055 -0.5139 -0.3743
 1155TIP3   OH224879   1.292   1.832  15.269 -0.3448  0.7670 -0.5323
 1155TIP3    H124880   1.322   1.904  15.325  0.1369 -1.2732  2.0302
 1155TIP3    H224881   1.348   1.758  15.292 -0.8308 -0.4991 -3.0352
 1156TIP3   OH224882   4.423   6.698   1.309  0.0365 -0.4603  0.7036
 1156TIP3    H124883   4.368   6.776   1.301  0.6674  0.0519  1.3171
 1156TIP3    H224884   4.361   6.628   1.331 -1.1314 -0.9810 -3.3431
 1157TIP3   OH224885   3.315   2.617   1.563 -0.2582 -0.1664 -0.0348
 1157TIP3    H124886   3.328   2.694   1.507  1.5444 -0.0536  0.4534
 1157TIP3    H224887   3.284   2.549   1.504  0.0048  0.4093 -0.8591
 1158TIP3   OH224888   1.155   5.865   6.439  0.7125  0.6737 -0.8707
 1158TIP3    H124889   1.153   5.800   6.509 -0.8470  0.3546 -1.1637
 1158TIP3    H224890   1.187   5.818   6.363 -1.4093 -0.0798 -1.3466
 1159TIP3   OH224891   1.911   4.543  12.132 -0.0315  0.3567 -0.0057
 1159TIP3    H124892   1.817   4.561  12.127  0.0571  0.5763 -1.1852
 1159TIP3    H224893   1.921   4.458  12.089  0.3395  0.4455 -0.0967
 1160TIP3   OH224894   1.168   1.056   1.199 -0.4836  0.3935  0.0511
 1160TIP3    H124895   1.081   1.050   1.159 -0.7264 -0.9621  0.6878
 1160TIP3    H224896   1.167   1.137   1.249  0.5336  3.2552 -4.1191
 1161TIP3   OH224897   5.091   2.371  15.728  0.1857  0.3825  0.2150
 1161TIP3    H124898   5.074   2.277  15.722  0.2303  0.3743  0.2193
 1161TIP3    H224899   5.070   2.393  15.819 -0.3155  0.4723  0.0793
 1162TIP3   OH224900   0.296   3.035   1.112 -0.5047 -0.1415  0.4168
 1162TIP3    H124901   0.220   3.000   1.158  0.4436  0.1604  2.2951
 1162TIP3    H224902   0.323   3.110   1.164  1.5399 -0.6969  0.2392
 1163TIP3   OH224903   4.333   5.331   4.487 -0.2793 -0.0402 -0.4317
 1163TIP3    H124904   4.400   5.310   4.552 -1.3174  1.4075  1.1806
 1163TIP3    H224905   4.263   5.267   4.503  0.4134 -1.1870 -1.7396
 1164TIP3   OH224906   1.971   3.893   1.431 -0.1541 -0.2369 -0.2415
 1164TIP3    H124907   1.964   3.874   1.525  0.5526 -0.8319 -0.3048
 1164TIP3    H224908   1.941   3.984   1.424 -0.8095 -0.3833  0.4662
 1165TIP3   OH224909   3.877   5.546   4.635  0.0263  0.1653  0.0584
 1165TIP3    H124910   3.852   5.526   4.726  0.4774  0.2809  0.2121
 1165TIP3    H224911   3.968   5.516   4.628  1.1426  3.0733  0.6354
 1166TIP3   OH224912   0.326   2.768  16.596 -0.0198  0.0429 -0.2544
 1166TIP3    H124913   0.364   2.851  16.626  1.5669 -1.0345  0.9226
 1166TIP3    H224914   0.292   2.728  16.676  0.2084 -0.9088 -0.6279
 1167TIP3   OH224915   2.178   3.357   0.105 -0.0783 -0.0747 -0.6949
 1167TIP3    H124916   2.136   3.334   0.022 -1.5402 -0.0832  0.0211
 1167TIP3    H224917   2.144   3.293   0.168 -0.5739  1.1698  0.3325
 1168TIP3   OH224918   5.222   5.514   5.495 -0.2603  0.2724  0.4788
 1168TIP3    H124919   5.216   5.420   5.507  0.3969  0.0314 -0.9144
 1168TIP3    H224920   5.144   5.549   5.538 -1.7309 -1.1105 -0.9186
 1169TIP3   OH224921   1.232   2.830  14.153  0.0021 -0.3422 -0.7191
 1169TIP3    H124922   1.179   2.781  14.090 -0.5267 -0.0249 -0.5294
 1169TIP3    H224923   1.309   2.857  14.104 -0.1514 -0.5495 -1.0828
 1170TIP3   OH224924   3.647   6.265  13.396  0.3898  0.3885 -0.0596
 1170TIP3    H124925   3.717   6.230  13.341  0.7109  0.2279  0.4412
 1170TIP3    H224926   3.570   6.265  13.340 -0.2924 -3.5161  0.5768
 1171TIP3   OH224927   3.653   0.526   5.628  0.1731 -0.2022 -0.0736
 1171TIP3    H124928   3.644   0.582   5.705  1.2649 -0.2036  0.0728
 1171TIP3    H224929   3.606   0.446   5.650 -1.5765  0.7059 -0.3594
 1172TIP3   OH224930   4.944   0.664   2.950 -0.2132  0.7591  0.4353
 1172TIP3    H124931   4.987   0.649   3.035  2.3832 -1.2848 -1.0869
 1172TIP3    H224932   4.971   0.753   2.925  0.3490  0.7705  1.0462
 1173TIP3   OH224933   0.843   6.291   1.480  0.1206 -0.4400 -0.1563
 1173TIP3    H124934   0.937   6.300   1.501 -0.2554  1.4838  0.9807
 1173TIP3    H224935   0.821   6.371   1.433 -1.6352  0.8500  2.6033
 1174TIP3   OH224936   5.770   2.769   3.214 -0.0285 -0.5045  0.3629
 1174TIP3    H124937   5.856   2.763   3.173 -0.4865 -1.1155 -0.5371
 1174TIP3    H224938   5.727   2.686   3.193 -1.1805  0.1617 -0.0306
 1175TIP3   OH224939   0.378   2.798   2.689 -0.2725 -0.3688  0.6886
 1175TIP3    H124940   0.351   2.890   2.695 -2.2375 -0.9439  1.2271
 1175TIP3    H224941   0.316   2.751   2.744  1.6820 -1.8643  1.7346
 1176TIP3   OH224942   0.127   4.757  11.576  0.3580 -0.1824  0.3379
 1176TIP3    H124943   0.180   4.688  11.536  1.7614  1.3940 -0.6550
 1176TIP3    H224944   0.174   4.779  11.657  1.0941  0.9962 -0.3830
 1177TIP3   OH224945   1.188   4.922   6.174  0.8744 -0.3537  0.0738
 1177TIP3    H124946   1.142   4.997   6.213  1.9068 -0.1840  1.0364
 1177TIP3    H224947   1.248   4.893   6.243  4.4651  1.3610 -2.0188
 1178TIP3   OH224948   6.704   6.072   2.484  0.1977  0.3792 -0.0008
 1178TIP3    H124949   6.637   6.032   2.539  1.7748  0.8585  2.4626
 1178TIP3    H224950   6.657   6.105   2.408 -2.3059  0.5036  1.4950
 1179TIP3   OH224951   4.397   5.991   6.437 -0.0167  0.2508  0.3047
 1179TIP3    H124952   4.488   5.960   6.432 -0.1495 -0.2068  0.6256
 1179TIP3    H224953   4.403   6.075   6.482  0.2309  0.1451  0.4721
 1180TIP3   OH224954   2.572   5.670   0.565 -0.3900  0.1424 -0.3059
 1180TIP3    H124955   2.564   5.583   0.604  0.3527  1.1888  2.4225
 1180TIP3    H224956   2.557   5.730   0.638 -2.1261  2.3822 -2.3186
 1181TIP3   OH224957   2.023   5.510   3.913 -0.1819  0.1286 -0.3085
 1181TIP3    H124958   2.045   5.602   3.905 -0.2204  0.0990 -0.7337
 1181TIP3    H224959   2.084   5.476   3.979 -1.5071  0.9249  1.4392
 1182TIP3   OH224960   2.597   3.916  13.397  0.1311  0.0407  0.2957
 1182TIP3    H124961   2.600   3.976  13.471  1.0858 -1.1341  1.2532
 1182TIP3    H224962   2.505   3.894  13.387 -1.1325  5.0362 -3.0119
 1183TIP3   OH224963   3.788   4.049   3.071 -0.0032  0.6949  0.6673
 1183TIP3    H124964   3.809   3.995   3.147  1.5658  0.3531  0.0276
 1183TIP3    H224965   3.863   4.039   3.012 -1.7199 -0.1075 -1.5313
 1184TIP3   OH224966   0.971   1.037   3.280 -0.4173  0.4402 -0.0926
 1184TIP3    H124967   1.043   0.982   3.248 -1.0620 -0.7350  0.4049
 1184TIP3    H224968   0.894   1.006   3.232 -0.9629  0.2608  0.8739
 1185TIP3   OH224969   3.652   6.550  14.164 -0.1342 -0.1257  0.4850
 1185TIP3    H124970   3.559   6.562  14.143 -0.6546 -3.0549  0.7167
 1185TIP3    H224971   3.697   6.566  14.082 -1.0708 -0.6794 -0.1617
 1186TIP3   OH224972   1.565   4.423   4.075  0.3642 -0.4566 -0.1576
 1186TIP3    H124973   1.628   4.385   4.136  0.7021  0.6707  0.2210
 1186TIP3    H224974   1.556   4.358   4.006  0.3940 -1.5205  0.8113
 1187TIP3   OH224975   1.019   6.258   4.888  1.0995  0.2010  0.1545
 1187TIP3    H124976   1.069   6.221   4.961  0.5196 -1.2849 -0.1636
 1187TIP3    H224977   1.017   6.188   4.823 -1.8405 -0.0184  0.3524
 1188TIP3   OH224978   3.032   3.884  12.920  0.7416 -0.0237 -0.1510
 1188TIP3    H124979   2.978   3.840  12.855  1.2725 -2.6692  1.0891
 1188TIP3    H224980   2.999   3.854  13.004  1.3518  1.7734  0.7922
 1189TIP3   OH224981   5.319   2.167   4.781  0.1130 -0.1769  0.0808
 1189TIP3    H124982   5.337   2.074   4.769 -1.8862 -0.7537  1.0168
 1189TIP3    H224983   5.278   2.195   4.699  1.9360  0.2559 -0.7165
 1190TIP3   OH224984   2.968   5.069   1.952 -0.0383 -0.2430  0.8384
 1190TIP3    H124985   2.978   5.068   1.857 -0.5616 -0.7501  0.7813
 1190TIP3    H224986   2.959   4.977   1.977 -0.5627 -0.0754  1.2992
 1191TIP3   OH224987   1.624   3.249  14.967 -0.1221  0.3958  0.4745
 1191TIP3    H124988   1.558   3.302  15.012  0.1109  1.3604 -0.2873
 1191TIP3    H224989   1.575   3.176  14.928 -0.3299 -0.4663  2.2569
 1192TIP3   OH224990   1.321   0.866   1.026  0.4390 -0.0610 -0.1520
 1192TIP3    H124991   1.317   0.771   1.038 -1.7763 -0.3205 -2.0961
 1192TIP3    H224992   1.269   0.901   1.097  1.5170 -0.2459  0.7532
 1193TIP3   OH224993   1.100   4.919   0.449  0.1859 -0.1398 -0.3232
 1193TIP3    H124994   1.071   4.833   0.417  0.6058 -0.5394  0.3472
 1193TIP3    H224995   1.088   4.914   0.544 -1.8103  1.3099 -0.4347
 1194TIP3   OH224996   1.283   1.172   1.850  0.3132 -0.3291  0.0094
 1194TIP3    H124997   1.269   1.266   1.845 -1.5074 -0.5604  0.1835
 1194TIP3    H224998   1.247   1.138   1.768  1.9532 -0.8023 -0.5628
 1195TIP3   OH224999   6.396   4.315   2.116 -0.5759 -0.5062 -0.0684
 1195TIP3    H125000   6.487   4.294   2.096 -0.5322 -0.2738 -0.1135
 1195TIP3    H225001   6.366   4.367   2.041 -0.7684 -0.6443 -0.0885
 1196TIP3   OH225002   4.579   3.587  13.972  0.2201  0.2941  0.6812
 1196TIP3    H125003   4.591   3.500  14.010 -0.9720 -0.8342 -1.2680
 1196TIP3    H225004   4.657   3.636  13.997  1.7894 -1.9036  0.4138
 1197TIP3   OH225005   2.533   6.430  12.203  0.4987 -0.4526  0.0345
 1197TIP3    H125006   2.542   6.335  12.213 -0.3552 -0.4042  1.5058
 1197TIP3    H225007   2.556   6.466  12.289 -1.5472  0.4665  0.2650
 1198TIP3   OH225008   6.731   3.634   3.861 -0.0451 -0.1884  0.4330
 1198TIP3    H125009   6.804   3.589   3.904 -0.6970 -2.4054 -0.6297
 1198TIP3    H225010   6.659   3.629   3.924 -0.8279 -2.9232 -0.5164
 1199TIP3   OH225011   2.959   1.850  13.430 -0.1885  0.3563  0.0122
 1199TIP3    H125012   2.906   1.925  13.456 -0.8486  0.5126 -1.6862
 1199TIP3    H225013   2.908   1.773  13.456 -1.0137  0.5083 -1.0997
 1200TIP3   OH225014   2.812   1.113   3.314 -0.2609  0.4307  0.0922
 1200TIP3    H125015   2.888   1.163   3.287 -1.5648  1.8853 -1.0544
 1200TIP3    H225016   2.814   1.034   3.260 -0.3749  1.1871 -1.0538
 1201TIP3   OH225017   2.617   3.968  16.033 -0.2600 -0.0155 -1.1784
 1201TIP3    H125018   2.599   3.903  16.101 -0.0088  0.0778 -1.0209
 1201TIP3    H225019   2.538   4.022  16.029 -0.8763 -0.9331 -2.0040
 1202TIP3   OH225020   2.124   2.385  13.772 -0.2412 -0.2865 -0.2432
 1202TIP3    H125021   2.088   2.328  13.840  1.1683 -0.4171  0.4360
 1202TIP3    H225022   2.049   2.437  13.741 -0.7354  0.6152  2.2457
 1203TIP3   OH225023   5.066   1.651  13.169 -0.5850 -0.5797 -0.0779
 1203TIP3    H125024   5.053   1.627  13.260  0.0022  0.7773  0.3960
 1203TIP3    H225025   5.146   1.605  13.142 -1.2208 -1.6403 -0.1761
 1204TIP3   OH225026   6.374   0.937  14.653 -0.2879 -0.4262  1.1641
 1204TIP3    H125027   6.378   0.851  14.695  0.2237 -0.6124  0.7387
 1204TIP3    H225028   6.307   0.928  14.585 -0.2325 -0.4877  1.1185
 1205TIP3   OH225029   3.642   5.476   1.150  0.0215 -0.2036  0.3013
 1205TIP3    H125030   3.566   5.421   1.171 -0.1058 -0.1761 -0.0812
 1205TIP3    H225031   3.604   5.561   1.127  0.1042 -0.4285 -0.7077
 1206TIP3   OH225032   4.029   2.478  13.536  0.5872 -0.7532  0.1876
 1206TIP3    H125033   4.091   2.437  13.476  0.6023 -0.1878 -0.1916
 1206TIP3    H225034   3.985   2.544  13.483  1.8501  1.0141  1.2336
 1207TIP3   OH225035   1.187   3.106  10.682 -0.0383  0.0930 -0.0846
 1207TIP3    H125036   1.174   3.156  10.602  0.8468 -1.0274 -0.9709
 1207TIP3    H225037   1.280   3.084  10.681  0.2385  1.0164  1.8532
 1208TIP3   OH225038   6.079   2.893  13.577 -0.2389  0.3571 -0.2003
 1208TIP3    H125039   6.017   2.857  13.641  0.9541 -2.4593 -0.5151
 1208TIP3    H225040   6.038   2.876  13.492  0.4680 -0.6134 -0.3642
 1209TIP3   OH225041   4.039   0.006  15.392  0.4726  0.3194 -0.0165
 1209TIP3    H125042   3.948   0.035  15.392 -0.0050 -1.0959  0.1895
 1209TIP3    H225043   4.074   0.039  15.475 -0.7146 -1.5293  1.3125
 1210TIP3   OH225044   3.305   4.248  16.035 -0.5093 -0.0352  0.3131
 1210TIP3    H125045   3.372   4.213  15.977  0.5532 -0.2181  1.6112
 1210TIP3    H225046   3.350   4.266  16.117 -2.0722 -0.3136  1.2849
 1211TIP3   OH225047   6.427   2.574   1.318  0.5979  0.4035  0.3229
 1211TIP3    H125048   6.407   2.666   1.303 -0.1810  0.5900  2.1500
 1211TIP3    H225049   6.491   2.552   1.251 -2.2684  1.0679 -2.9154
 1212TIP3   OH225050   0.097   1.131  14.597  0.1351  0.6740  0.1116
 1212TIP3    H125051   0.082   1.212  14.646 -1.6300  1.2695 -1.3087
 1212TIP3    H225052   0.030   1.071  14.630  1.2411 -0.1467  0.9361
 1213TIP3   OH225053   5.673   1.869   0.190  0.3835 -0.0664  0.4950
 1213TIP3    H125054   5.680   1.964   0.186  1.0217 -0.1318 -0.2531
 1213TIP3    H225055   5.760   1.840   0.220  0.1743 -0.4088  0.7735
 1214TIP3   OH225056   2.187   4.034   2.185  0.3757 -0.1533  0.1046
 1214TIP3    H125057   2.181   4.037   2.281  1.2894  1.7123  0.1613
 1214TIP3    H225058   2.155   3.947   2.161  0.0187 -0.6173  2.0903
 1215TIP3   OH225059   0.666   1.750  14.091 -0.1789  0.0292  0.1882
 1215TIP3    H125060   0.590   1.696  14.070 -1.2587  2.2736 -2.2622
 1215TIP3    H225061   0.633   1.839  14.090  2.8012  1.3953 -3.6179
 1216TIP3   OH225062   3.389   2.159   0.918  0.3136 -0.3766  0.0126
 1216TIP3    H125063   3.343   2.126   0.841  0.0189 -0.6966  0.3272
 1216TIP3    H225064   3.446   2.088   0.945  1.0396  0.0374 -0.4065
 1217TIP3   OH225065   2.758   1.876   4.296 -0.0565  0.3765  0.5714
 1217TIP3    H125066   2.678   1.922   4.325  0.1421  2.5555 -1.9486
 1217TIP3    H225067   2.725   1.800   4.248 -0.5695  0.4787  0.7450
 1218TIP3   OH225068   1.942   2.580   0.982 -0.2785 -0.5394  0.1206
 1218TIP3    H125069   1.905   2.668   0.982 -1.9574 -1.1947  1.3173
 1218TIP3    H225070   1.908   2.540   0.902  0.2581 -0.2138 -0.2790
 1219TIP3   OH225071   6.410   6.114   1.354 -0.2564  0.8610  0.1496
 1219TIP3    H125072   6.404   6.197   1.401  2.0131  1.8468 -1.1774
 1219TIP3    H225073   6.411   6.138   1.262  2.8906 -0.3358 -0.2461
 1220TIP3   OH225074   0.837   6.440  13.355 -0.3362  0.5860 -0.0158
 1220TIP3    H125075   0.916   6.418  13.305 -2.1840 -0.3013 -2.7144
 1220TIP3    H225076   0.798   6.355  13.377 -0.7218  1.0191  1.0897
 1221TIP3   OH225077   0.318   1.599  11.350 -0.3646 -0.3323  0.1555
 1221TIP3    H125078   0.366   1.678  11.325  0.2548 -0.4519  0.9174
 1221TIP3    H225079   0.265   1.625  11.425 -2.1405  0.0008 -1.1605
 1222TIP3   OH225080   1.993   5.219  14.460 -0.0096 -0.4435 -0.1360
 1222TIP3    H125081   1.936   5.296  14.446 -0.5328 -0.5542  1.1822
 1222TIP3    H225082   1.959   5.179  14.541  2.6992  0.1901  1.4482
 1223TIP3   OH225083   5.403   2.831  11.487 -0.2979  0.6353 -0.2652
 1223TIP3    H125084   5.433   2.746  11.455 -0.7072  0.5122 -0.3308
 1223TIP3    H225085   5.438   2.836  11.576 -1.4352 -0.2347  0.2638
 1224TIP3   OH225086   2.198   4.383   3.171 -0.0787 -0.1449 -0.3745
 1224TIP3    H125087   2.230   4.321   3.236  3.1936  1.0907 -0.6106
 1224TIP3    H225088   2.174   4.461   3.221 -1.9212 -0.7219 -0.2999
 1225TIP3   OH225089   4.254   1.943  12.891 -0.1971  0.3455 -0.1228
 1225TIP3    H125090   4.269   1.917  12.982 -2.5202  2.5678  1.0314
 1225TIP3    H225091   4.185   1.885  12.860 -0.0756  0.2134 -0.1468
 1226TIP3   OH225092   4.722   0.320  14.278 -0.4196  0.8199  0.3921
 1226TIP3    H125093   4.781   0.368  14.221 -0.8509  1.2639  0.3200
 1226TIP3    H225094   4.779   0.257  14.324 -0.1238  0.2303 -0.7513
 1227TIP3   OH225095   0.959   2.535  15.001  0.5009 -0.1867 -0.3994
 1227TIP3    H125096   0.964   2.507  15.093  1.7870  1.8085  0.2018
 1227TIP3    H225097   0.904   2.469  14.959 -1.2371 -0.4656  2.0811
 1228TIP3   OH225098   3.923   1.005   2.883  0.0415 -0.4222  0.3240
 1228TIP3    H125099   3.933   0.938   2.951 -0.7111  0.0380  0.9073
 1228TIP3    H225100   3.838   1.045   2.901 -0.8557 -1.2459 -1.7480
 1229TIP3   OH225101   0.749   1.407  14.695  0.0569 -0.1641  0.6783
 1229TIP3    H125102   0.737   1.413  14.601 -0.1739 -0.6790  0.6729
 1229TIP3    H225103   0.810   1.335  14.707  0.8627  0.5334  0.8732
 1230TIP3   OH225104   6.470   2.308  13.735 -0.5370  0.1917 -0.2511
 1230TIP3    H125105   6.394   2.250  13.723 -1.5086  1.3350  0.1313
 1230TIP3    H225106   6.493   2.298  13.827 -0.4051  0.0527 -0.2997
 1231TIP3   OH225107   2.401   5.801  12.033  0.0253 -0.6242  0.0586
 1231TIP3    H125108   2.359   5.759  12.108  0.1549 -0.1977  0.3722
 1231TIP3    H225109   2.493   5.774  12.039  0.3163  0.4847  0.8259
 1232TIP3   OH225110   2.265   5.967  13.530 -0.2767  0.1608  0.1305
 1232TIP3    H125111   2.284   6.011  13.448 -0.7324  1.1002  0.5162
 1232TIP3    H225112   2.260   6.038  13.595 -0.2637 -0.5284  0.9039
 1233TIP3   OH225113   6.234   0.781  13.409  0.0094 -0.1232  0.1085
 1233TIP3    H125114   6.260   0.689  13.412  1.2830  0.2427  1.4136
 1233TIP3    H225115   6.270   0.814  13.327 -1.3213 -0.9997 -0.8631
 1234TIP3   OH225116   4.159   4.206  13.574  0.0676 -0.5687 -0.2281
 1234TIP3    H125117   4.219   4.132  13.566  0.4743 -0.4881  1.6406
 1234TIP3    H225118   4.135   4.208  13.667 -1.5922  0.3792 -0.6364
 1235TIP3   OH225119   4.520   0.220  17.124 -0.1949  0.2417 -0.2023
 1235TIP3    H125120   4.517   0.125  17.135 -1.7127  0.2647 -0.1448
 1235TIP3    H225121   4.602   0.236  17.078 -0.5059 -1.2276 -1.3591
 1236TIP3   OH225122   2.240   1.181   0.198 -0.0394  0.1386  0.5544
 1236TIP3    H125123   2.289   1.199   0.118  0.9853  0.9209  1.3259
 1236TIP3    H225124   2.213   1.267   0.230 -1.2971 -0.2312  0.5463
 1237TIP3   OH225125   1.415   2.053   4.832 -0.0379  0.2584  0.2592
 1237TIP3    H125126   1.436   1.962   4.851 -1.8407 -0.1268  0.5623
 1237TIP3    H225127   1.383   2.053   4.742 -1.5840  0.2735  0.7726
 1238TIP3   OH225128   0.009   2.875   4.427 -1.0760  0.0073  0.2715
 1238TIP3    H125129  -0.060   2.824   4.383  0.2686 -1.0031 -0.7317
 1238TIP3    H225130   0.078   2.884   4.362  0.5211 -0.5684  1.8091
 1239TIP3   OH225131   2.717   2.038  12.131 -0.2787  0.0482 -0.3564
 1239TIP3    H125132   2.692   2.130  12.135 -0.6647 -0.0749  0.0930
 1239TIP3    H225133   2.643   1.991  12.169 -0.2188 -0.4755 -0.8736
 1240TIP3   OH225134   2.239   0.974  12.398 -0.0797 -0.3239  0.2975
 1240TIP3    H125135   2.182   1.043  12.431 -0.7499 -1.2460  1.1318
 1240TIP3    H225136   2.180   0.901  12.379  0.4217 -0.2346 -1.9134
 1241TIP3   OH225137   3.641   3.949   2.773 -0.6936 -0.6968 -0.3102
 1241TIP3    H125138   3.567   4.002   2.745  0.0854  0.6065  0.0312
 1241TIP3    H225139   3.718   4.004   2.757  0.0846 -1.4471  0.6938
 1242TIP3   OH225140   2.267   4.077   0.461  0.1114  0.3248 -0.0720
 1242TIP3    H125141   2.279   4.045   0.550 -1.0605  1.2787  0.4478
 1242TIP3    H225142   2.281   3.999   0.406 -2.9331 -1.2568  1.1445
 1243TIP3   OH225143   4.955   1.958  11.177  0.5083  0.2523 -0.9154
 1243TIP3    H125144   4.897   2.032  11.197  2.8643  1.5990  1.6262
 1243TIP3    H225145   4.944   1.898  11.250  0.7569 -0.5011 -1.4872
 1244TIP3   OH225146   4.943   3.198   3.133  0.4831  0.2508  0.1173
 1244TIP3    H125147   4.916   3.120   3.182  1.3968 -0.2931 -0.2197
 1244TIP3    H225148   4.949   3.168   3.042  1.4844  0.5316  0.0784
 1245TIP3   OH225149   6.132   2.418  10.690  0.0798  0.2206 -0.3673
 1245TIP3    H125150   6.057   2.478  10.684  0.8237  1.1873 -0.3250
 1245TIP3    H225151   6.093   2.331  10.687 -0.8589  0.6461 -2.9456
 1246TIP3   OH225152   5.030   0.981  14.767  0.4331 -0.5061  0.0299
 1246TIP3    H125153   5.041   0.944  14.679  1.5551 -1.2799  0.4704
 1246TIP3    H225154   5.079   1.063  14.764 -0.6965  0.1707 -0.4658
 1247TIP3   OH225155   1.504   1.582   2.063  0.2368  0.0130  0.3111
 1247TIP3    H125156   1.435   1.570   2.128  0.1744  3.1084  0.9632
 1247TIP3    H225157   1.516   1.676   2.057  3.1130 -0.3221 -1.2214
 1248TIP3   OH225158   3.096   5.994  13.492  0.1290  0.5899 -0.2674
 1248TIP3    H125159   3.064   6.047  13.419 -1.6511  0.3442  0.2947
 1248TIP3    H225160   3.149   5.926  13.451 -1.5443 -0.0578 -1.4573
 1249TIP3   OH225161   1.452   6.662   5.295 -0.6715 -0.1038  0.4913
 1249TIP3    H125162   1.516   6.713   5.244  1.7006 -0.7937  2.5508
 1249TIP3    H225163   1.427   6.590   5.237  2.1826 -1.0530  0.2567
 1250TIP3   OH225164   1.557   3.057   3.012  0.8165  0.2075  0.2407
 1250TIP3    H125165   1.557   3.088   3.103  3.2524  0.8138  0.1275
 1250TIP3    H225166   1.616   2.981   3.013  0.8135  0.1783 -0.8162
 1251TIP3   OH225167   5.504   4.390   5.050 -0.7486 -0.0024  0.0972
 1251TIP3    H125168   5.570   4.459   5.057 -1.9039  1.2044 -0.4246
 1251TIP3    H225169   5.430   4.423   5.101 -2.1218  0.1672 -1.8844
 1252TIP3   OH225170   0.226   4.838  14.894 -0.0467  0.0318  0.1204
 1252TIP3    H125171   0.237   4.769  14.959 -0.9436  1.7357  2.1801
 1252TIP3    H225172   0.313   4.879  14.888 -0.1715  0.4309  0.9378
 1253TIP3   OH225173   6.717   6.547   5.917  0.3909 -0.2148  0.4201
 1253TIP3    H125174   6.726   6.467   5.969 -0.9838 -0.2934  0.5695
 1253TIP3    H225175   6.691   6.516   5.830 -2.6816  0.1102  1.1145
 1254TIP3   OH225176   0.774   1.562   3.665 -0.1079 -0.1085  0.6929
 1254TIP3    H125177   0.763   1.517   3.581 -0.6242  3.7229 -1.5230
 1254TIP3    H225178   0.854   1.524   3.702  1.4175 -0.5424 -2.6231
 1255TIP3   OH225179   2.462   3.019   6.008  0.8795  0.6979  0.8055
 1255TIP3    H125180   2.433   2.963   5.937  2.4929  0.1546  0.5365
 1255TIP3    H225181   2.399   3.002   6.079 -0.3479  0.7494 -0.2290
 1256TIP3   OH225182   3.002   0.964   5.337 -0.9729 -0.4068 -0.4537
 1256TIP3    H125183   2.943   0.894   5.306 -0.5846 -2.3469  2.7789
 1256TIP3    H225184   3.088   0.939   5.304 -1.0749 -0.5965 -0.5816
 1257TIP3   OH225185   5.129   2.907  15.459  0.1244 -0.3296  0.2061
 1257TIP3    H125186   5.052   2.908  15.402  1.6698  1.6069 -2.0628
 1257TIP3    H225187   5.095   2.932  15.545 -1.7465  0.8678 -0.7968
 1258TIP3   OH225188   3.041   3.264   4.762  0.3965 -0.7502 -0.2609
 1258TIP3    H125189   3.014   3.295   4.848 -1.7330  2.0988 -1.7734
 1258TIP3    H225190   2.988   3.185   4.748 -2.0108  0.7513 -0.2701
 1259TIP3   OH225191   4.970   1.521   1.339 -0.2975  0.5614  0.1576
 1259TIP3    H125192   5.009   1.488   1.420 -1.1211 -1.9396 -0.3743
 1259TIP3    H225193   4.935   1.607   1.362  2.1930  1.2899  1.5964
 1260TIP3   OH225194   4.101   0.394  14.771 -0.4266 -0.2093  0.2972
 1260TIP3    H125195   4.093   0.430  14.683  0.7553  0.8756  0.5961
 1260TIP3    H225196   4.191   0.413  14.797  0.3113 -3.4756  0.5092
 1261TIP3   OH225197   3.284   6.171   1.338  0.7395  0.2963  0.1387
 1261TIP3    H125198   3.378   6.154   1.328  0.4801 -1.3613  0.2887
 1261TIP3    H225199   3.265   6.144   1.428  0.2218  1.1733  0.2964
 1262TIP3   OH225200   6.549   5.165   2.562  0.0212  0.0928 -0.1980
 1262TIP3    H125201   6.554   5.202   2.474 -1.3798 -0.6431 -0.6043
 1262TIP3    H225202   6.474   5.106   2.560 -0.8144  0.9744  1.8319
 1263TIP3   OH225203   0.533   1.965   2.477  0.1991  0.2047 -0.1793
 1263TIP3    H125204   0.569   1.886   2.437 -1.6700  0.1403 -1.8991
 1263TIP3    H225205   0.581   1.974   2.560  2.5287 -1.0359 -1.2983
 1264TIP3   OH225206   1.814   6.697   0.233 -0.1232 -0.5994  0.2515
 1264TIP3    H125207   1.795   6.789   0.249 -0.1210 -0.7473  1.1858
 1264TIP3    H225208   1.858   6.668   0.313 -0.2601 -1.4474  0.0281
 1265TIP3   OH225209   2.052   0.643  12.620  0.5708 -0.0017  0.3942
 1265TIP3    H125210   2.107   0.701  12.671  0.7454 -1.2028  1.6404
 1265TIP3    H225211   2.030   0.693  12.541  3.1009  0.6559  0.0275
 1266TIP3   OH225212   1.900   2.478   0.183 -0.0882  0.2715 -0.4241
 1266TIP3    H125213   1.835   2.408   0.182  2.4209 -2.1949 -0.5485
 1266TIP3    H225214   1.924   2.488   0.275  1.0422 -0.5490 -0.6092
 1267TIP3   OH225215   0.982   5.388   1.084 -0.5821 -0.4725 -0.2216
 1267TIP3    H125216   1.061   5.403   1.137 -0.8725 -1.1981  0.4385
 1267TIP3    H225217   0.912   5.377   1.148 -1.3344  0.6801 -0.8164
 1268TIP3   OH225218   1.423   3.652  10.988  0.0183  0.1469  0.0195
 1268TIP3    H125219   1.452   3.605  10.910 -2.0198 -0.8299 -0.2094
 1268TIP3    H225220   1.432   3.745  10.964 -2.3388 -0.0767 -2.1732
 1269TIP3   OH225221   4.522   2.909   4.920  0.0558  0.0108 -0.2572
 1269TIP3    H125222   4.493   2.936   4.833  2.4251 -1.1283 -1.5048
 1269TIP3    H225223   4.512   2.814   4.921  1.2501 -0.1265  0.2015
 1270TIP3   OH225224   4.262   6.341   1.533  0.3066 -0.1333  0.2615
 1270TIP3    H125225   4.254   6.313   1.624 -2.7782 -2.7734 -0.6254
 1270TIP3    H225226   4.286   6.433   1.538 -1.0549  0.1671  3.7856
 1271TIP3   OH225227   6.744   2.232   2.140 -0.0845 -0.0636  0.2120
 1271TIP3    H125228   6.706   2.207   2.056 -1.7140 -0.2311  0.9356
 1271TIP3    H225229   6.789   2.153   2.170 -0.4662 -0.3651  0.0002
 1272TIP3   OH225230   4.059   1.534   4.648 -0.5355  0.0705  0.2531
 1272TIP3    H125231   4.109   1.552   4.728 -0.2857 -1.0610  0.3631
 1272TIP3    H225232   3.995   1.468   4.674  0.2281 -1.0888 -0.7035
 1273TIP3   OH225233   5.739   0.080  16.997 -0.3958  0.1927 -0.0252
 1273TIP3    H125234   5.716  -0.012  16.993  0.3736  0.0343 -1.0907
 1273TIP3    H225235   5.818   0.088  16.944 -0.1525  1.3757  0.4742
 1274TIP3   OH225236   5.818   6.037   0.460  0.8070 -0.9587 -0.0564
 1274TIP3    H125237   5.739   6.040   0.514  1.1643 -1.6073  0.5293
 1274TIP3    H225238   5.843   5.944   0.460  2.1806 -0.6253  0.6978
 1275TIP3   OH225239   1.536   0.687   3.521  0.5565  0.2157 -0.4368
 1275TIP3    H125240   1.501   0.610   3.566 -0.3161 -0.0297 -1.5235
 1275TIP3    H225241   1.618   0.706   3.568  0.5046 -1.0273  0.1980
 1276TIP3   OH225242   0.404   0.595  15.207  0.4128  0.4155  0.2912
 1276TIP3    H125243   0.428   0.533  15.276 -0.2705 -0.7681 -0.4872
 1276TIP3    H225244   0.437   0.555  15.127  0.1268  1.1757 -0.2163
 1277TIP3   OH225245   4.157   2.182  10.405  0.2245 -0.1721 -0.0344
 1277TIP3    H125246   4.221   2.224  10.348 -0.1400 -0.9669 -1.0576
 1277TIP3    H225247   4.073   2.193  10.360 -0.1642 -0.3229  0.6276
 1278TIP3   OH225248   0.410   0.194   1.319  0.1522 -0.2226 -0.1763
 1278TIP3    H125249   0.375   0.194   1.230 -0.1698  0.5259 -0.0581
 1278TIP3    H225250   0.345   0.242   1.371 -0.3587 -1.8196  0.7533
 1279TIP3   OH225251   3.791   5.988   2.904 -0.2703 -0.0855 -0.3140
 1279TIP3    H125252   3.816   5.967   2.994 -0.3813 -1.0431 -0.4990
 1279TIP3    H225253   3.712   6.042   2.914 -1.3852 -1.7244  0.1442
 1280TIP3   OH225254   2.602   4.336  16.739  0.1439  0.5954  0.2949
 1280TIP3    H125255   2.603   4.405  16.805 -2.3746  0.7269  0.2796
 1280TIP3    H225256   2.661   4.367  16.670 -0.4700  2.4506  0.5614
 1281TIP3   OH225257   2.797   1.686  16.118  0.5576  0.4263 -0.4380
 1281TIP3    H125258   2.713   1.644  16.099 -0.2918  1.1359  1.4953
 1281TIP3    H225259   2.828   1.644  16.198  1.7790  0.5870 -0.7949
 1282TIP3   OH225260   4.584   6.019   4.899  0.3999  0.7463 -0.0853
 1282TIP3    H125261   4.528   5.960   4.949 -0.3521  2.3350  1.0375
 1282TIP3    H225262   4.601   5.972   4.817 -0.0366 -1.0497  0.8087
 1283TIP3   OH225263   2.061   3.176   0.283 -0.0899  0.1227 -0.8664
 1283TIP3    H125264   1.986   3.222   0.321 -1.2671 -1.5536 -1.0760
 1283TIP3    H225265   2.127   3.176   0.353 -0.4388  1.1992 -0.5156
 1284TIP3   OH225266   6.235   4.470  16.364  0.1081  0.0003  0.2655
 1284TIP3    H125267   6.205   4.555  16.334 -1.2624 -0.0221  1.4535
 1284TIP3    H225268   6.247   4.419  16.284 -1.4870  0.5443 -0.3590
 1285TIP3   OH225269   0.131   3.391  14.832 -0.4620  0.4324  0.3985
 1285TIP3    H125270   0.043   3.399  14.795 -0.7915 -1.1217  0.7772
 1285TIP3    H225271   0.185   3.364  14.758 -0.3053  1.2904  0.1881
 1286TIP3   OH225272   4.678   4.412   0.413  0.2622 -0.3266 -0.3274
 1286TIP3    H125273   4.647   4.336   0.463  1.3584 -1.4094 -1.2351
 1286TIP3    H225274   4.765   4.429   0.448 -0.3984  1.2581  0.6421
 1287TIP3   OH225275   4.936   0.266  17.175 -0.4668  0.6293 -0.3476
 1287TIP3    H125276   5.019   0.281  17.131  0.6619 -0.8615  1.1289
 1287TIP3    H225277   4.931   0.335  17.242  1.7609 -1.6217  2.3960
 1288TIP3   OH225278   3.615   4.508  12.615  0.1453 -0.2334  0.3383
 1288TIP3    H125279   3.549   4.454  12.571 -0.0896 -0.0045  0.4081
 1288TIP3    H225280   3.617   4.589  12.564  0.1974 -0.1444  0.4823
 1289TIP3   OH225281   5.939   6.738   4.050  0.0125  0.2358 -0.0396
 1289TIP3    H125282   5.911   6.675   3.983  0.5053  1.9459 -1.9557
 1289TIP3    H225283   6.031   6.717   4.065 -0.1352 -0.2410  0.2286
 1290TIP3   OH225284   0.478   5.676  13.050 -0.1751 -0.7897  0.1211
 1290TIP3    H125285   0.425   5.719  13.117 -2.0849  0.4982 -2.0674
 1290TIP3    H225286   0.567   5.674  13.087 -1.0260  0.3668  2.4095
 1291TIP3   OH225287   1.721   6.406  12.679  0.1395  0.0001  0.6434
 1291TIP3    H125288   1.783   6.402  12.752 -1.4751 -0.3138  2.0568
 1291TIP3    H225289   1.636   6.385  12.718 -0.9616  0.9183 -1.1257
 1292TIP3   OH225290   3.523   4.855  12.501 -0.1085  0.2353  0.2579
 1292TIP3    H125291   3.548   4.908  12.576  0.8544  2.0060 -1.2330
 1292TIP3    H225292   3.580   4.885  12.430  0.6416 -2.9565 -0.6502
 1293TIP3   OH225293   2.233   2.981   5.794  0.1834  0.1336 -0.1496
 1293TIP3    H125294   2.270   2.895   5.771  0.9459  0.2945  0.4317
 1293TIP3    H225295   2.209   2.973   5.886  1.8915  1.0634  0.4232
 1294TIP3   OH225296   5.526   0.128   3.062 -0.6319  0.1470 -0.2142
 1294TIP3    H125297   5.483   0.047   3.088 -0.5347  0.3547  0.6486
 1294TIP3    H225298   5.460   0.176   3.012 -1.0857  0.0349  0.2646
 1295TIP3   OH225299   0.444   2.495  12.368  0.3238 -0.5136  0.1340
 1295TIP3    H125300   0.384   2.429  12.402  1.4564 -1.8180 -0.2908
 1295TIP3    H225301   0.484   2.453  12.292 -0.2925  1.3770 -1.3113
 1296TIP3   OH225302   4.052   0.260  12.760  0.4959 -0.7909 -0.2643
 1296TIP3    H125303   4.043   0.325  12.690  1.5203 -0.6141 -0.2525
 1296TIP3    H225304   4.114   0.300  12.821  0.7343 -1.5596  0.0016
 1297TIP3   OH225305   1.144   2.050  16.748 -0.0887 -0.3340 -0.2701
 1297TIP3    H125306   1.112   1.960  16.739  0.3670 -0.6502  1.1028
 1297TIP3    H225307   1.224   2.052  16.694 -0.0918 -0.7498 -0.2935
 1298TIP3   OH225308   3.378   5.357   0.892  0.2867 -0.0832  0.0990
 1298TIP3    H125309   3.366   5.337   0.985 -1.5195  1.3733  0.2358
 1298TIP3    H225310   3.316   5.299   0.847  1.2538 -0.8838 -0.2535
 1299TIP3   OH225311   6.469   1.280  12.328  0.0505 -0.3860 -0.3255
 1299TIP3    H125312   6.538   1.319  12.274 -1.5438  1.5786 -1.0149
 1299TIP3    H225313   6.428   1.215  12.271 -0.2488  0.1824 -0.7674
 1300TIP3   OH225314   2.183   2.940   6.051  0.3277  0.4609  0.4162
 1300TIP3    H125315   2.179   2.871   6.117 -4.1635  0.1813  0.1178
 1300TIP3    H225316   2.182   3.022   6.101 -1.9309  0.2468  0.8020
 1301TIP3   OH225317   3.608   3.450  13.612  0.0240 -0.0514 -0.2692
 1301TIP3    H125318   3.695   3.419  13.587  0.2643 -0.5433  1.1053
 1301TIP3    H225319   3.571   3.378  13.663 -0.9663  0.3984 -0.3307
 1302TIP3   OH225320   5.106   1.706  10.389 -0.3819  0.2471  0.5149
 1302TIP3    H125321   5.047   1.673  10.322  0.1945 -0.3949  0.3087
 1302TIP3    H225322   5.078   1.796  10.404  0.3851  0.9152 -1.6362
 1303TIP3   OH225323   5.129   2.471   0.279 -0.1119 -0.2428 -0.1509
 1303TIP3    H125324   5.115   2.515   0.195  0.6782 -0.7817 -0.5820
 1303TIP3    H225325   5.147   2.380   0.255 -1.8144 -0.8540  0.7191
 1304TIP3   OH225326   3.082   1.213  13.071  0.4579 -0.0774  0.1235
 1304TIP3    H125327   3.155   1.190  13.129  0.0397  0.7486  1.0203
 1304TIP3    H225328   3.006   1.216  13.129 -0.2143 -0.5077 -0.7257
 1305TIP3   OH225329   5.557   6.254  14.935 -0.5040  0.4790 -0.1389
 1305TIP3    H125330   5.472   6.252  14.980 -0.4121 -0.0187  0.0198
 1305TIP3    H225331   5.580   6.162  14.924  1.2512  0.5405  2.1845
 1306TIP3   OH225332   0.539   2.035  11.070 -0.2171  0.4605  0.4918
 1306TIP3    H125333   0.517   2.109  11.014  2.6091  0.1436 -1.2212
 1306TIP3    H225334   0.519   1.957  11.017 -0.0471  0.0871  0.9657
 1307TIP3   OH225335   3.444   0.436  14.111  0.1611  0.4348  0.1872
 1307TIP3    H125336   3.537   0.437  14.087  0.2360 -1.6348  0.2187
 1307TIP3    H225337   3.398   0.448  14.027  0.4599 -0.2335 -0.0790
 1308TIP3   OH225338   5.187   3.439   1.958 -0.4911  0.2066 -0.3718
 1308TIP3    H125339   5.174   3.376   2.029 -0.4241  1.2925  0.6373
 1308TIP3    H225340   5.161   3.523   1.996 -0.7524  0.7614 -1.7438
 1309TIP3   OH225341   1.852   3.041  12.592 -0.2374  0.0725  0.0208
 1309TIP3    H125342   1.851   2.998  12.677 -0.2792 -2.5538 -1.1877
 1309TIP3    H225343   1.803   3.122  12.605 -0.5300 -0.4053  2.3926
 1310TIP3   OH225344   1.622   4.644   5.242 -0.3873  0.2770 -0.0889
 1310TIP3    H125345   1.539   4.597   5.250 -0.8108  1.0788  0.3101
 1310TIP3    H225346   1.603   4.717   5.183  0.1373  0.2436 -0.3063
 1311TIP3   OH225347   3.927   4.504   4.321 -0.3224 -0.1131  0.0432
 1311TIP3    H125348   3.880   4.421   4.312  2.5194 -1.6330 -2.3603
 1311TIP3    H225349   4.009   4.481   4.364 -0.2636  1.8735  1.1298
 1312TIP3   OH225350   6.433   2.956  15.479 -0.5982  0.0250  0.3164
 1312TIP3    H125351   6.381   2.952  15.399 -0.5958  0.0876  0.3114
 1312TIP3    H225352   6.369   2.958  15.550 -0.6270  0.8729  0.2818
 1313TIP3   OH225353   0.035   5.013   4.120  0.1794  0.5339 -0.5433
 1313TIP3    H125354   0.099   5.062   4.067  1.0674  1.4489  1.2736
 1313TIP3    H225355  -0.005   5.080   4.176 -0.4189 -0.4576  0.2357
 1314TIP3   OH225356   3.215   3.229  12.294  0.0261 -0.1255  0.6680
 1314TIP3    H125357   3.222   3.155  12.354  1.8317  0.4667  1.2533
 1314TIP3    H225358   3.130   3.218  12.251  0.4423 -2.7708  0.3977
 1315TIP3   OH225359   1.179   1.400   1.421  0.1548 -0.0828  0.0160
 1315TIP3    H125360   1.227   1.482   1.410  0.4462 -0.1838  0.5036
 1315TIP3    H225361   1.193   1.353   1.338  2.8104 -1.0896  0.9206
 1316TIP3   OH225362   3.566   5.660   1.909 -0.2279  0.6338  0.6082
 1316TIP3    H125363   3.593   5.728   1.847  0.6485 -0.1222  0.1302
 1316TIP3    H225364   3.620   5.675   1.986 -1.9106  2.1009  1.5800
 1317TIP3   OH225365   4.057   5.431  16.280  1.1042  0.6230  0.0544
 1317TIP3    H125366   4.032   5.489  16.208  2.5819  0.8754 -0.2945
 1317TIP3    H225367   4.080   5.348  16.237  0.2738  0.2004  0.4187
 1318TIP3   OH225368   2.625   3.718   2.039 -0.2105 -0.0909  0.0825
 1318TIP3    H125369   2.689   3.652   2.067  0.4139 -0.0141 -1.1068
 1318TIP3    H225370   2.673   3.774   1.978 -1.7806 -0.9259 -2.0364
 1319TIP3   OH225371   6.076   6.633  11.325  0.3213 -0.3699  0.2109
 1319TIP3    H125372   6.096   6.664  11.413  1.6511  0.5152 -0.3755
 1319TIP3    H225373   6.159   6.637  11.278 -0.1886 -1.5997 -0.8808
 1320TIP3   OH225374   5.752   0.649  16.697 -0.3245 -0.3141 -0.2553
 1320TIP3    H125375   5.703   0.711  16.752  0.8110 -1.2658  1.9378
 1320TIP3    H225376   5.769   0.697  16.616 -0.7713  1.7086  0.7876
 1321TIP3   OH225377   4.427   5.836   5.654  0.3775  0.1426  0.0679
 1321TIP3    H125378   4.486   5.777   5.701 -1.2057 -0.7302  1.0774
 1321TIP3    H225379   4.443   5.922   5.694  0.1333 -0.3097  1.1954
 1322TIP3   OH225380   2.371   1.725  14.578  0.3496 -0.2248  0.0505
 1322TIP3    H125381   2.418   1.703  14.658  0.0717 -1.3366 -0.0765
 1322TIP3    H225382   2.282   1.743  14.607  0.1369 -1.0655 -0.0353
 1323TIP3   OH225383   4.840   1.632   2.297 -0.0389 -0.5981 -0.2577
 1323TIP3    H125384   4.776   1.591   2.355 -0.1549  2.4839  2.0792
 1323TIP3    H225385   4.787   1.686   2.238  0.2654 -0.0158 -0.0076
 1324TIP3   OH225386   3.244   5.991   1.122  0.3148  0.0589 -0.4662
 1324TIP3    H125387   3.253   6.067   1.179 -0.5387 -1.4260  1.7675
 1324TIP3    H225388   3.283   5.918   1.171 -1.2713 -1.4717 -1.3296
 1325TIP3   OH225389   2.226   2.556  11.447 -0.4397  1.0146  0.1055
 1325TIP3    H125390   2.247   2.633  11.393  1.0339 -0.2921 -1.3044
 1325TIP3    H225391   2.286   2.562  11.521  1.3860  0.0700 -1.2098
 1326TIP3   OH225392   4.092   2.205  16.854  0.8489 -0.3284  0.0879
 1326TIP3    H125393   4.165   2.143  16.857  0.9857 -0.1333  1.7703
 1326TIP3    H225394   4.129   2.286  16.889  0.0523  0.0034  0.1735
 1327TIP3   OH225395   3.916   0.562   1.780  0.0138 -0.4153 -0.0337
 1327TIP3    H125396   3.832   0.538   1.818 -0.0556  0.2484  0.2510
 1327TIP3    H225397   3.970   0.484   1.788 -0.5582 -0.8268 -0.1618
 1328TIP3   OH225398   5.924   5.212  12.632  0.5400 -1.0605 -0.4177
 1328TIP3    H125399   5.941   5.169  12.548 -0.3935 -2.1179 -0.0955
 1328TIP3    H225400   5.882   5.144  12.685 -1.0996  0.2726  0.0675
 1329TIP3   OH225401   0.606   0.950  11.197  0.2189 -0.6819 -0.1057
 1329TIP3    H125402   0.515   0.977  11.183  0.5500  0.2500 -0.5604
 1329TIP3    H225403   0.615   0.870  11.146 -0.9234 -2.0208  1.6558
 1330TIP3   OH225404   6.691   1.324   1.927  1.0373  0.0627 -0.1899
 1330TIP3    H125405   6.672   1.368   2.009  1.5437 -2.0845  1.1543
 1330TIP3    H225406   6.729   1.392   1.871 -0.2205  1.8039  0.9526
 1331TIP3   OH225407   5.377   5.169  13.558 -0.4945  0.2018 -0.0578
 1331TIP3    H125408   5.306   5.111  13.586 -0.2648 -0.2272 -0.3647
 1331TIP3    H225409   5.388   5.151  13.465 -0.2235  0.5301 -0.0920
 1332TIP3   OH225410   2.479   3.958  15.003  0.3062  0.0494  0.0119
 1332TIP3    H125411   2.389   3.974  14.973  0.4507 -0.4381 -0.7208
 1332TIP3    H225412   2.475   3.872  15.045 -0.1384  1.2112  2.5138
 1333TIP3   OH225413   2.738   6.417   2.797 -0.0630  0.4755  0.2162
 1333TIP3    H125414   2.710   6.342   2.743  1.9031 -0.0023 -0.2042
 1333TIP3    H225415   2.707   6.395   2.885  0.6947 -0.9825  0.1543
 1334TIP3   OH225416   1.069   0.235   3.625 -0.2678  0.1471  0.8601
 1334TIP3    H125417   1.013   0.299   3.668  0.7095  0.9451  0.9717
 1334TIP3    H225418   1.133   0.210   3.691  0.1121 -0.0126  0.4400
 1335TIP3   OH225419   4.914   2.777   3.300 -0.1850 -0.0091 -0.1201
 1335TIP3    H125420   4.897   2.683   3.301  0.1081 -0.0676 -0.3712
 1335TIP3    H225421   4.843   2.815   3.351 -1.7107 -0.1194 -2.0419
 1336TIP3   OH225422   1.102   4.903  15.870 -0.2862  0.0011 -0.4155
 1336TIP3    H125423   1.192   4.928  15.851 -0.3580 -0.1475 -0.9665
 1336TIP3    H225424   1.109   4.837  15.940  0.0777 -0.5512 -0.9675
 1337TIP3   OH225425   4.108   3.481   4.701  0.3849  0.3450 -0.4293
 1337TIP3    H125426   4.097   3.386   4.702 -2.2867  0.5822  0.4487
 1337TIP3    H225427   4.075   3.508   4.616 -2.5191  0.7355  0.7249
 1338TIP3   OH225428   3.038   2.124   4.650  0.0516  0.1334 -0.1547
 1338TIP3    H125429   3.066   2.033   4.636 -3.0346 -1.0279  0.4734
 1338TIP3    H225430   3.004   2.152   4.565 -0.3016  0.1939  0.0060
 1339TIP3   OH225431   0.901   0.057   1.260  0.1377 -0.0754 -0.8252
 1339TIP3    H125432   0.865   0.144   1.238 -0.6076 -0.1977 -0.1533
 1339TIP3    H225433   0.832  -0.004   1.235 -0.2692 -0.3004  0.7357
 1340TIP3   OH225434   6.329   5.397   0.216  0.2272  0.1878 -0.3177
 1340TIP3    H125435   6.303   5.474   0.267 -1.1696 -0.3785 -0.1233
 1340TIP3    H225436   6.303   5.322   0.269 -2.7722 -0.4602 -2.4098
 1341TIP3   OH225437   5.469   2.518   4.070 -0.0775  0.4693  0.0437
 1341TIP3    H125438   5.519   2.562   4.001 -0.7668  0.6023 -0.3757
 1341TIP3    H225439   5.533   2.503   4.140  0.8417 -0.4695 -0.9722
 1342TIP3   OH225440   0.882   4.472  12.107 -0.8073  0.1666 -0.5465
 1342TIP3    H125441   0.938   4.398  12.129 -0.7760  0.5372  0.7086
 1342TIP3    H225442   0.805   4.432  12.066 -1.0681 -0.6288  0.6635
 1343TIP3   OH225443   2.971   5.603   3.317  0.7028  0.4110 -0.2684
 1343TIP3    H125444   3.031   5.533   3.292  0.7982  0.4837 -0.2416
 1343TIP3    H225445   2.965   5.659   3.240  3.1885  2.2159  0.7237
 1344TIP3   OH225446   3.093   3.857  13.330 -0.2753  0.0890  0.1483
 1344TIP3    H125447   3.007   3.826  13.359 -0.4533 -0.8109 -1.2677
 1344TIP3    H225448   3.155   3.795  13.370 -0.3303  0.2825  0.5418
 1345TIP3   OH225449   0.913   6.307   2.757  0.0735 -0.1944 -0.5980
 1345TIP3    H125450   0.838   6.339   2.807  0.8461  1.0034 -0.1703
 1345TIP3    H225451   0.927   6.218   2.789  0.0873  0.2838  0.7983
 1346TIP3   OH225452   5.418   3.732  17.417  0.4127 -0.1940  0.1530
 1346TIP3    H125453   5.344   3.694  17.370 -0.5334  0.3232  1.1617
 1346TIP3    H225454   5.488   3.668  17.408 -0.4953 -1.2038  0.0587
 1347TIP3   OH225455   5.512   2.579   2.235  0.1220  0.6075  0.0159
 1347TIP3    H125456   5.540   2.657   2.189  0.1320  0.9350  0.5677
 1347TIP3    H225457   5.567   2.575   2.313  2.2203 -1.5858 -1.4221
 1348TIP3   OH225458   5.294   4.504   1.595  0.7073  0.5637  0.1340
 1348TIP3    H125459   5.311   4.422   1.641  1.1089  0.5200 -0.0872
 1348TIP3    H225460   5.354   4.567   1.636 -1.5015  1.4718  2.2496
 1349TIP3   OH225461   6.527   1.770  11.278 -0.1054 -0.8016 -0.4106
 1349TIP3    H125462   6.484   1.756  11.194 -0.8069 -2.2203  0.1621
 1349TIP3    H225463   6.502   1.695  11.332 -1.2838  1.0101  1.7577
 1350TIP3   OH225464   0.848   1.938   5.405 -0.2089 -0.1993 -0.2557
 1350TIP3    H125465   0.788   1.870   5.373 -1.1469  0.3491  0.2692
 1350TIP3    H225466   0.794   1.990   5.465  0.2883  1.4081 -1.1422
 1351TIP3   OH225467   4.277   0.244  11.576 -0.3834 -0.0907  0.0150
 1351TIP3    H125468   4.249   0.192  11.650  1.4081 -1.8536 -0.4501
 1351TIP3    H225469   4.208   0.232  11.510  0.1571 -2.3073 -0.2354
 1352TIP3   OH225470   2.177   2.131   5.353  0.4856 -0.3416  0.3395
 1352TIP3    H125471   2.197   2.223   5.332 -0.2942 -0.1381  0.4682
 1352TIP3    H225472   2.116   2.136   5.427 -2.0095 -0.8425 -1.5542
 1353TIP3   OH225473   3.485   6.349  12.545  0.1354  0.4592  0.5378
 1353TIP3    H125474   3.495   6.416  12.477 -0.7366  0.2904  0.2330
 1353TIP3    H225475   3.419   6.290  12.510 -0.4145  0.4340  1.5906
 1354TIP3   OH225476   2.187   1.097  11.117 -0.3966  0.1050 -0.4134
 1354TIP3    H125477   2.123   1.153  11.161  0.1125  0.4492 -0.1081
 1354TIP3    H225478   2.209   1.144  11.037  0.0615  0.3656 -0.1379
 1355TIP3   OH225479   5.840   3.940  14.003  0.5086 -0.1948  0.4369
 1355TIP3    H125480   5.831   4.016  13.946 -0.9794 -0.1892  0.6204
 1355TIP3    H225481   5.840   3.865  13.944  1.7687 -0.0782  0.2696
 1356TIP3   OH225482   0.490   1.366  14.765 -0.1871 -0.4880 -0.2988
 1356TIP3    H125483   0.433   1.407  14.700 -0.7731 -0.9190 -0.0669
 1356TIP3    H225484   0.576   1.363  14.723 -0.6018 -0.9826 -1.1623
 1357TIP3   OH225485   6.400   5.154  11.451 -0.2470 -0.0082  0.4454
 1357TIP3    H125486   6.438   5.181  11.367 -0.5339 -1.1382 -0.0625
 1357TIP3    H225487   6.397   5.058  11.446 -0.5526 -0.0685  1.6254
 1358TIP3   OH225488   0.080   0.939  16.574 -0.2821 -0.3384 -0.0837
 1358TIP3    H125489   0.037   1.017  16.538  1.5851  0.4301 -0.8251
 1358TIP3    H225490   0.126   0.971  16.651 -0.6423 -1.0323  0.4232
 1359TIP3   OH225491   0.811   2.161   3.693  0.6651 -0.2438  0.3123
 1359TIP3    H125492   0.849   2.214   3.762  0.2176 -0.3943  0.6751
 1359TIP3    H225493   0.821   2.070   3.723  1.1691 -0.3602 -0.1740
 1360TIP3   OH225494   1.683   0.758   5.487 -0.5529 -0.1160  0.3316
 1360TIP3    H125495   1.697   0.679   5.540 -1.1693 -0.5568 -0.1507
 1360TIP3    H225496   1.676   0.828   5.551 -0.1708 -0.4803  0.7796
 1361TIP3   OH225497   2.804   5.061   2.229  0.1098  0.3597 -0.2143
 1361TIP3    H125498   2.867   5.121   2.190 -0.5481 -0.1161 -2.1409
 1361TIP3    H225499   2.745   5.117   2.279  0.9827  1.0151  0.0780
 1362TIP3   OH225500   5.807   2.811   1.508 -0.0475  0.0124  0.8734
 1362TIP3    H125501   5.878   2.843   1.563 -1.2859  1.6787  1.5564
 1362TIP3    H225502   5.790   2.883   1.447  0.1778 -1.1573 -0.6352
 1363TIP3   OH225503   0.868   2.039  10.189  0.4018  0.0016 -0.1354
 1363TIP3    H125504   0.806   2.016  10.258  1.8919  0.1265  1.2964
 1363TIP3    H225505   0.896   1.955  10.152  2.6279 -0.4184  2.2110
 1364TIP3   OH225506   5.676   5.612   3.683  0.1522 -0.0416 -0.3902
 1364TIP3    H125507   5.766   5.627   3.652 -0.3127  0.8046 -1.3994
 1364TIP3    H225508   5.686   5.581   3.773  1.4714 -0.3844 -0.6362
 1365TIP3   OH225509   5.452   0.231   1.332  0.4159 -0.0414  0.4544
 1365TIP3    H125510   5.535   0.196   1.298  0.0815  0.7781 -1.3382
 1365TIP3    H225511   5.392   0.157   1.329  0.0985  0.2205 -1.9354
 1366TIP3   OH225512   1.949   3.275  14.593 -0.6328  0.2057  0.4198
 1366TIP3    H125513   2.010   3.266  14.666 -0.5707  0.5164  0.4072
 1366TIP3    H225514   1.864   3.251  14.631 -0.6247  0.5100  0.6327
 1367TIP3   OH225515   1.889   2.523  12.585  0.2317 -0.1610 -0.4416
 1367TIP3    H125516   1.803   2.555  12.614  0.2259 -0.8500  0.3276
 1367TIP3    H225517   1.947   2.541  12.658  1.0399  1.4307 -1.4295
 1368TIP3   OH225518   1.884   1.561   3.857 -0.2097  0.4470 -1.1703
 1368TIP3    H125519   1.905   1.593   3.944 -2.3944 -0.5124 -0.2134
 1368TIP3    H225520   1.922   1.625   3.797 -0.3741  2.1996  0.5279
 1369TIP3   OH225521   3.453   0.200  12.590 -0.6342 -0.0319 -0.3155
 1369TIP3    H125522   3.468   0.168  12.679 -0.3350  1.0080  0.0288
 1369TIP3    H225523   3.359   0.218  12.587 -1.0196 -1.9268 -0.8760
 1370TIP3   OH225524   5.385   0.418  16.833 -0.2104  0.1495 -0.0820
 1370TIP3    H125525   5.477   0.408  16.857  0.4736  1.4207 -1.9704
 1370TIP3    H225526   5.345   0.335  16.857  1.2618 -0.2046  1.3652
 1371TIP3   OH225527   5.936   1.012  12.602  0.4856 -0.0193 -0.7148
 1371TIP3    H125528   5.862   1.014  12.663  1.3156  0.9339  0.3013
 1371TIP3    H225529   5.895   1.000  12.516 -0.6202 -2.9622  0.0922
 1372TIP3   OH225530   2.834   1.259   4.847 -0.6194 -0.3016 -0.1314
 1372TIP3    H125531   2.819   1.300   4.762 -0.5154 -0.4035 -0.1987
 1372TIP3    H225532   2.904   1.311   4.887  0.8000 -1.4895 -0.9623
 1373TIP3   OH225533   5.330   5.596   0.926 -0.3102 -0.7238 -0.0897
 1373TIP3    H125534   5.299   5.567   0.840 -0.7342 -1.6481  0.3628
 1373TIP3    H225535   5.259   5.652   0.959  0.3730  0.6406 -0.8294
 1374TIP3   OH225536   5.442   5.452  12.678  0.0035  0.3906 -0.8240
 1374TIP3    H125537   5.347   5.448  12.678 -0.0563  1.4947  0.4210
 1374TIP3    H225538   5.469   5.377  12.624 -1.4951 -1.6342  1.0872
 1375TIP3   OH225539   2.864   0.790   2.010  0.3222 -0.5227  0.3093
 1375TIP3    H125540   2.862   0.697   1.986  0.7974 -0.5954  0.5572
 1375TIP3    H225541   2.795   0.829   1.956  2.2721 -0.4309 -2.3307
 1376TIP3   OH225542   3.992   6.032  12.466  0.3850 -0.1703  0.2515
 1376TIP3    H125543   3.962   6.097  12.402  0.9203  1.1641  1.3109
 1376TIP3    H225544   3.964   5.948  12.430 -2.7348  0.8086  0.1201
 1377TIP3   OH225545   5.962   4.341  11.741  0.3613  0.3514 -0.1702
 1377TIP3    H125546   5.866   4.343  11.749  0.2210  1.6940 -1.7121
 1377TIP3    H225547   5.993   4.332  11.831 -1.2088 -1.7701  0.2381
 1378TIP3   OH225548   4.166   4.657   4.228 -0.1907 -0.0192  0.1949
 1378TIP3    H125549   4.239   4.717   4.247  0.4632 -1.2531  1.7938
 1378TIP3    H225550   4.098   4.682   4.291 -0.5459  0.0805 -0.2243
 1379TIP3   OH225551   5.946   6.289   1.876  0.2144 -0.0986  0.4137
 1379TIP3    H125552   5.979   6.206   1.842  2.3279  1.0580 -0.5997
 1379TIP3    H225553   5.999   6.306   1.954 -0.5888  0.0480  0.9362
 1380TIP3   OH225554   4.441   3.031  14.576 -0.2622 -0.2652  0.0171
 1380TIP3    H125555   4.500   3.047  14.649 -1.5044 -0.8348  1.1917
 1380TIP3    H225556   4.400   3.116  14.559 -0.2666 -0.2172  0.2579
 1381TIP3   OH225557   4.831   0.874   3.873 -0.5486  0.5081  0.0946
 1381TIP3    H125558   4.761   0.934   3.845 -1.8250 -0.5191  0.9299
 1381TIP3    H225559   4.912   0.919   3.850 -1.4772  1.1414 -2.1676
 1382TIP3   OH225560   1.372   6.164   2.562  0.2084  0.7147  0.6990
 1382TIP3    H125561   1.323   6.123   2.633 -0.8145  2.0163  0.7959
 1382TIP3    H225562   1.384   6.255   2.591 -1.3456  1.6303 -1.2898
 1383TIP3   OH225563   2.813   6.548  12.085 -0.0071 -0.1155 -0.6288
 1383TIP3    H125564   2.833   6.579  12.173 -0.5462  0.2310 -0.6239
 1383TIP3    H225565   2.747   6.609  12.052 -0.6108 -0.8832 -0.8663
 1384TIP3   OH225566   2.585   0.566   2.659 -0.1182 -0.2680  0.2651
 1384TIP3    H125567   2.520   0.635   2.656 -0.1188 -0.3012 -0.5780
 1384TIP3    H225568   2.659   0.604   2.707 -0.1352  0.2995 -0.1623
 1385TIP3   OH225569   3.882   4.048  12.351 -0.4038  0.6723 -0.1306
 1385TIP3    H125570   3.858   4.014  12.264 -1.9118  1.2245  0.0428
 1385TIP3    H225571   3.911   4.138  12.335  0.1540  0.4920 -0.1561
 1386TIP3   OH225572   3.689   1.228   6.402 -0.1058 -0.1389  0.1883
 1386TIP3    H125573   3.595   1.244   6.392 -0.6387 -2.3207  1.0472
 1386TIP3    H225574   3.694   1.139   6.437  2.3498 -0.7422 -1.4437
 1387TIP3   OH225575   4.763   4.150  13.398  0.1490  0.4039 -0.1964
 1387TIP3    H125576   4.817   4.224  13.371 -0.7024  0.6083 -1.4525
 1387TIP3    H225577   4.696   4.188  13.455 -0.0590  0.5450 -0.5308
 1388TIP3   OH225578   0.531   1.516  16.176 -0.1686  0.3525  0.1990
 1388TIP3    H125579   0.536   1.602  16.135 -0.3013  0.2133 -0.1109
 1388TIP3    H225580   0.482   1.463  16.114 -0.1639  0.0768  0.4312
 1389TIP3   OH225581   3.274   1.644   3.696  0.1785 -0.4643  0.0636
 1389TIP3    H125582   3.178   1.642   3.690  0.2188 -2.9652 -1.1643
 1389TIP3    H225583   3.296   1.737   3.702 -2.2811  0.2336 -0.5080
 1390TIP3   OH225584   1.997   5.261   1.838  0.0872  0.4668 -0.3530
 1390TIP3    H125585   1.965   5.197   1.901 -1.1308  0.2692 -1.1251
 1390TIP3    H225586   2.048   5.210   1.775 -0.0988  0.3875 -0.4426
 1391TIP3   OH225587   5.284   5.841  12.075  0.0122  0.1786  0.2306
 1391TIP3    H125588   5.249   5.925  12.102  0.8873  0.1149  1.6566
 1391TIP3    H225589   5.379   5.849  12.086  0.0692 -1.1846  1.0184
 1392TIP3   OH225590   4.857   3.391  13.870  0.2984  0.4028 -0.5900
 1392TIP3    H125591   4.913   3.335  13.815 -0.1000  0.8719 -1.4848
 1392TIP3    H225592   4.774   3.344  13.873  1.0903 -1.0514  1.9477
 1393TIP3   OH225593   0.098   1.025  12.270 -0.5108 -0.0265 -0.4613
 1393TIP3    H125594   0.003   1.023  12.261 -0.6351 -2.2867  0.6445
 1393TIP3    H225595   0.113   1.077  12.349 -0.8620 -0.0955 -0.3479
 1394TIP3   OH225596   1.984   5.304  16.064  0.0103  0.2976  0.3094
 1394TIP3    H125597   2.067   5.258  16.072 -0.2319 -0.3375 -0.7164
 1394TIP3    H225598   1.995   5.383  16.117  2.0758  1.3707 -1.5851
 1395TIP3   OH225599   1.433   0.968  12.781  0.3162  0.4484 -0.2402
 1395TIP3    H125600   1.473   1.047  12.744  1.1369 -0.5686 -1.5788
 1395TIP3    H225601   1.504   0.904  12.786 -0.6697 -0.7241 -0.6906
 1396TIP3   OH225602   3.251   1.354   1.507 -0.6834  0.3482  0.2535
 1396TIP3    H125603   3.226   1.262   1.497  0.0325  0.0843  0.8103
 1396TIP3    H225604   3.187   1.389   1.568  0.0509 -0.2330  1.3967
 1397TIP3   OH225605   6.101   4.415  11.516 -0.1349 -0.3604 -0.2858
 1397TIP3    H125606   6.076   4.507  11.507 -0.5714 -0.5313 -0.8929
 1397TIP3    H225607   6.053   4.384  11.593  0.9232  0.2159  0.6365
 1398TIP3   OH225608   2.028   1.679   1.042  0.3790 -0.0278 -0.4451
 1398TIP3    H125609   1.998   1.590   1.027 -1.1068  0.7087 -2.2844
 1398TIP3    H225610   2.100   1.670   1.104 -1.1365 -2.2768  1.1666
 1399TIP3   OH225611   5.437   5.867   0.349  0.1529 -0.6684 -0.2666
 1399TIP3    H125612   5.437   5.847   0.443 -2.8210  1.0319  0.2094
 1399TIP3    H225613   5.433   5.962   0.344 -1.8515 -0.7627 -2.0152
 1400TIP3   OH225614   1.556   5.338   5.541  0.8168 -0.8366 -0.0466
 1400TIP3    H125615   1.542   5.407   5.477 -0.5872 -0.5648  0.5091
 1400TIP3    H225616   1.513   5.261   5.504 -0.9289 -0.4122  0.9759
 1401TIP3   OH225617   2.038   3.336   4.700  0.6926 -0.2717 -0.0154
 1401TIP3    H125618   2.088   3.411   4.730  0.4414  0.0288 -0.3448
 1401TIP3    H225619   2.103   3.276   4.664  1.0657 -0.8769  1.6008
 1402TIP3   OH225620   6.257   3.453  12.467 -0.4218 -0.3645  0.0192
 1402TIP3    H125621   6.292   3.473  12.380 -0.1146  0.6900  0.3735
 1402TIP3    H225622   6.163   3.444  12.453 -0.2201 -1.7892 -0.6882
 1403TIP3   OH225623   0.169   6.574  13.812  0.0311  0.4372  0.0338
 1403TIP3    H125624   0.159   6.624  13.731  2.2451 -1.8869 -1.8543
 1403TIP3    H225625   0.156   6.483  13.786  2.8661 -0.5951  1.7516
 1404TIP3   OH225626   1.883   3.323  16.871  0.1763  0.1691  0.1934
 1404TIP3    H125627   1.895   3.249  16.930  2.6111 -0.4331 -0.9159
 1404TIP3    H225628   1.901   3.288  16.784 -1.2406  1.5043 -0.6930
 1405TIP3   OH225629   2.652   2.838  16.087 -0.6576  0.1074 -1.2162
 1405TIP3    H125630   2.697   2.818  16.169  0.1997  0.0679 -1.6902
 1405TIP3    H225631   2.635   2.932  16.091  0.8575  0.4237 -1.6974
 1406TIP3   OH225632   3.293   5.267   1.955  0.1218 -0.1190  0.0702
 1406TIP3    H125633   3.208   5.266   1.999  0.4322 -0.3579  0.6817
 1406TIP3    H225634   3.350   5.316   2.015  1.2399 -2.7540  1.2813
 1407TIP3   OH225635   3.212   3.048   2.921  0.3121  0.2882 -0.1058
 1407TIP3    H125636   3.237   2.988   2.991 -1.3708 -0.9404 -0.4923
 1407TIP3    H225637   3.122   3.074   2.943 -0.0394  0.3309 -1.4986
 1408TIP3   OH225638   3.652   1.050   3.823 -0.1572 -0.2912 -0.3245
 1408TIP3    H125639   3.614   1.049   3.911 -1.6498  1.6736 -0.8935
 1408TIP3    H225640   3.675   1.141   3.807  0.4381 -0.6766 -1.8553
 1409TIP3   OH225641   5.100   6.026   4.094 -0.0678 -0.3445  0.3820
 1409TIP3    H125642   5.145   6.074   4.163 -2.5119  0.8500  1.2424
 1409TIP3    H225643   5.070   5.945   4.136  1.0608 -1.0885 -0.1645
 1410TIP3   OH225644   5.222   6.653   2.604 -0.8896  0.4907  0.3579
 1410TIP3    H125645   5.276   6.709   2.549  0.5281  0.5546  1.7537
 1410TIP3    H225646   5.143   6.704   2.619 -0.5126  1.2349 -0.1064
 1411TIP3   OH225647   1.085   5.637   1.553  0.2350  0.2546 -0.3948
 1411TIP3    H125648   1.005   5.687   1.540 -1.6116 -2.2060  0.7731
 1411TIP3    H225649   1.155   5.702   1.549 -1.9680  2.8705  0.9505
 1412TIP3   OH225650   0.271   2.505   1.747  0.6661 -0.5986  0.2456
 1412TIP3    H125651   0.343   2.559   1.780 -0.1557 -0.1802  1.4550
 1412TIP3    H225652   0.284   2.501   1.653  0.4411  2.2326  0.0160
 1413TIP3   OH225653   5.114   5.170  16.583  0.5484 -0.5718  0.0788
 1413TIP3    H125654   5.175   5.244  16.583 -0.8643  0.7047  2.1061
 1413TIP3    H225655   5.169   5.093  16.597  1.8999  0.2326 -0.5843
 1414TIP3   OH225656   1.222   2.751  15.505 -0.1256  0.3555 -0.2946
 1414TIP3    H125657   1.262   2.836  15.524  1.7350 -0.1450 -1.7413
 1414TIP3    H225658   1.262   2.691  15.568  0.6749  0.0522 -1.0712
 1415TIP3   OH225659   2.933   0.095   4.618  0.0360 -0.5872 -0.4614
 1415TIP3    H125660   2.977   0.180   4.620  3.5376 -2.2275 -0.2817
 1415TIP3    H225661   2.941   0.062   4.707  1.2265 -2.2145 -1.1351
 1416TIP3   OH225662   0.008   5.172   6.284  0.0339  0.2996 -0.5206
 1416TIP3    H125663   0.099   5.178   6.255 -0.7024  2.0947 -2.6676
 1416TIP3    H225664  -0.020   5.262   6.295 -1.5643 -0.2196 -0.0962
 1417TIP3   OH225665   1.064   0.975  15.086 -0.1770 -0.0203  0.2496
 1417TIP3    H125666   1.067   0.880  15.082  0.4784 -0.0561  1.1692
 1417TIP3    H225667   0.973   0.998  15.068 -0.9700 -0.9896  2.5524
 1418TIP3   OH225668   5.412   2.020  16.913 -0.2978  0.1140 -0.5229
 1418TIP3    H125669   5.330   1.993  16.954  0.0916 -1.4946 -0.7640
 1418TIP3    H225670   5.423   1.960  16.839  1.5540 -0.3039  0.0495
 1419TIP3   OH225671   2.305   1.888  13.809 -0.2593  0.2928  0.6962
 1419TIP3    H125672   2.236   1.823  13.795  1.0319 -0.9227 -0.2659
 1419TIP3    H225673   2.318   1.889  13.904 -0.8735 -0.2250  0.7930
 1420TIP3   OH225674   1.201   0.511  10.814 -0.0069 -0.1764 -0.3293
 1420TIP3    H125675   1.186   0.451  10.887  0.9478  0.6455  0.5709
 1420TIP3    H225676   1.133   0.578  10.824 -0.7481 -0.7975 -1.0337
 1421TIP3   OH225677   1.132   5.238  14.694  1.0319 -0.7182  0.3591
 1421TIP3    H125678   1.210   5.218  14.641 -0.3108 -1.4212 -1.4648
 1421TIP3    H225679   1.058   5.211  14.639 -0.5186 -0.1359  2.0528
 1422TIP3   OH225680   5.522   4.791  11.822 -0.2106  0.3967 -0.6257
 1422TIP3    H125681   5.548   4.834  11.740  0.9344  0.3006 -0.3288
 1422TIP3    H225682   5.576   4.832  11.889 -0.4845 -0.1657 -0.0468
 1423TIP3   OH225683   6.715   2.298  16.217  0.0340  0.9064  0.1845
 1423TIP3    H125684   6.686   2.232  16.280 -2.4760  1.6241 -0.1217
 1423TIP3    H225685   6.664   2.376  16.238  1.8142  2.3155 -0.4530
 1424TIP3   OH225686   2.784   0.800   0.258  0.0523 -0.2319  0.2981
 1424TIP3    H125687   2.693   0.825   0.274  1.1782  3.1315  2.6464
 1424TIP3    H225688   2.803   0.833   0.170 -0.5452  0.7069  0.5092
 1425TIP3   OH225689   6.506   2.347   3.401 -0.0320 -0.2901 -0.1248
 1425TIP3    H125690   6.531   2.282   3.466 -1.1276 -0.6468 -0.0441
 1425TIP3    H225691   6.413   2.364   3.418  0.1325  1.0014 -0.4013
 1426TIP3   OH225692   5.492   6.166   0.929  0.2157 -0.3398 -0.6895
 1426TIP3    H125693   5.577   6.191   0.893  0.2453  0.0270 -0.3680
 1426TIP3    H225694   5.508   6.082   0.973  0.5305 -0.0265 -0.1917
 1427TIP3   OH225695   0.854   6.699  14.617 -0.2122 -0.4261  0.1769
 1427TIP3    H125696   0.892   6.653  14.543 -0.6733 -0.3137 -0.1368
 1427TIP3    H225697   0.928   6.722  14.673 -0.0346 -2.2306  0.7385
 1428TIP3   OH225698   5.245   4.026   2.059  0.3893  0.2015 -0.2959
 1428TIP3    H125699   5.268   4.118   2.076 -0.5392  0.2433  0.8381
 1428TIP3    H225700   5.274   4.011   1.969  0.4443  1.6425 -0.5534
 1429TIP3   OH225701   3.766   0.725  15.855  0.5629  0.5206 -0.5677
 1429TIP3    H125702   3.713   0.694  15.781 -0.9715  0.9717  0.3080
 1429TIP3    H225703   3.856   0.713  15.826  0.0285  1.6723 -2.9464
 1430TIP3   OH225704   5.275   2.346  10.874 -0.2636  0.1209  0.0972
 1430TIP3    H125705   5.307   2.431  10.845  2.1325 -0.6877  0.1677
 1430TIP3    H225706   5.213   2.319  10.806 -3.5254  3.1533  1.5342
 1431TIP3   OH225707   3.789   0.026  14.875  0.1509 -0.0539 -0.0689
 1431TIP3    H125708   3.803  -0.003  14.785  1.4211  0.3057 -0.0154
 1431TIP3    H225709   3.845   0.104  14.883  1.2041 -0.9264  1.4546
 1432TIP3   OH225710   4.613   1.307   2.646  0.1972  0.1477 -0.0376
 1432TIP3    H125711   4.692   1.277   2.691  0.0362  0.8665  0.7382
 1432TIP3    H225712   4.601   1.244   2.574 -0.2148 -1.7340  1.5929
 1433TIP3   OH225713   1.553   5.222   4.541  0.0751 -0.0992  0.1274
 1433TIP3    H125714   1.558   5.126   4.547 -0.1887 -0.2540 -1.4435
 1433TIP3    H225715   1.552   5.239   4.446 -0.3991  1.4316  0.3849
 1434TIP3   OH225716   4.822   4.648   3.823 -0.0767 -0.0129 -0.2956
 1434TIP3    H125717   4.851   4.599   3.900  0.3882 -1.9878 -1.6463
 1434TIP3    H225718   4.902   4.664   3.773 -0.6402 -1.0410 -1.5886
 1435TIP3   OH225719   0.674   6.147   1.827 -0.1968 -0.2919  0.0196
 1435TIP3    H125720   0.587   6.117   1.854 -0.8217  0.7382 -0.8145
 1435TIP3    H225721   0.659   6.227   1.778  1.3091  0.4432  0.6736
 1436TIP3   OH225722   2.202   5.410   6.530  0.2840 -0.1436 -0.7488
 1436TIP3    H125723   2.220   5.396   6.437  0.9932 -1.0810 -0.4862
 1436TIP3    H225724   2.157   5.330   6.557 -0.7153  0.4904 -0.4653
 1437TIP3   OH225725   0.900   4.131  11.769  0.5428 -0.1732  0.2154
 1437TIP3    H125726   0.900   4.035  11.774  3.1257 -0.1954  1.4598
 1437TIP3    H225727   0.857   4.159  11.850 -2.9322 -0.1474 -1.4637
 1438TIP3   OH225728   5.225   1.318  11.662 -0.6433 -0.0617  0.1559
 1438TIP3    H125729   5.145   1.363  11.632 -0.7825 -0.2489  0.2442
 1438TIP3    H225730   5.279   1.311  11.583 -0.2654  0.9924  0.3076
 1439TIP3   OH225731   0.565   6.118  15.222  0.3242 -0.4910  0.0180
 1439TIP3    H125732   0.472   6.106  15.242  0.1106  1.0702  0.0651
 1439TIP3    H225733   0.606   6.122  15.308 -0.0979  2.5045  0.1646
 1440TIP3   OH225734   2.246   0.806  12.175  0.4703  0.1364 -0.4286
 1440TIP3    H125735   2.152   0.805  12.154  0.0984 -1.1389  1.1358
 1440TIP3    H225736   2.289   0.799  12.090 -0.7839  1.9470 -1.3056
 1441TIP3   OH225737   5.865   2.909   1.840 -0.1457  0.6962  0.0145
 1441TIP3    H125738   5.909   2.830   1.871 -1.6909 -0.1599  0.1067
 1441TIP3    H225739   5.807   2.935   1.911  1.0597  2.5430  0.4093
 1442TIP3   OH225740   2.774   2.966  16.553  0.1765 -0.3660 -0.4690
 1442TIP3    H125741   2.722   2.905  16.500  1.3622 -0.2890 -1.7978
 1442TIP3    H225742   2.813   3.026  16.489  0.3820  0.7527  0.6593
 1443TIP3   OH225743   2.707   0.149  14.576  0.1748  0.9548 -0.3430
 1443TIP3    H125744   2.783   0.159  14.519  2.0829 -0.9653  1.6663
 1443TIP3    H225745   2.737   0.091  14.646 -3.3402 -0.4079  0.2432
 1444TIP3   OH225746   0.153   3.263   0.888 -1.0527 -0.0582 -0.2091
 1444TIP3    H125747   0.215   3.203   0.847 -0.4993  0.4921 -0.1890
 1444TIP3    H225748   0.141   3.333   0.824  0.4024  1.2069  0.8021
 1445TIP3   OH225749   5.077   0.800  16.933  0.5345 -0.3515 -0.0919
 1445TIP3    H125750   5.056   0.894  16.939 -0.7410 -0.5794 -0.5553
 1445TIP3    H225751   5.053   0.777  16.843 -0.7933 -1.4674  0.5106
 1446TIP3   OH225752   3.947   6.431  11.168 -0.4506 -0.1742 -0.1995
 1446TIP3    H125753   4.010   6.494  11.134 -0.4497  0.4070  0.8189
 1446TIP3    H225754   3.974   6.347  11.132 -0.4786  0.4005 -1.6240
 1447TIP3   OH225755   0.843   0.303  12.896 -0.2615  0.0659 -0.6680
 1447TIP3    H125756   0.810   0.385  12.933  2.9016  0.4353  1.7597
 1447TIP3    H225757   0.905   0.330  12.828  0.9356 -0.2083  0.2671
 1448TIP3   OH225758   3.886   3.018   1.415 -0.5861 -0.3936 -0.0606
 1448TIP3    H125759   3.823   2.971   1.360 -1.5695 -0.5170  1.1369
 1448TIP3    H225760   3.886   3.107   1.381 -1.1067 -0.4867 -0.3138
 1449TIP3   OH225761   1.931   3.038  12.327  0.2419  0.2731  0.1129
 1449TIP3    H125762   1.906   3.028  12.419 -0.9413 -1.6030 -0.3363
 1449TIP3    H225763   1.988   3.115  12.325 -0.9082  1.2642  2.1677
 1450TIP3   OH225764   0.664   5.529   5.701  0.6486 -0.2043 -0.1764
 1450TIP3    H125765   0.574   5.551   5.723  0.2126 -1.0511 -1.0343
 1450TIP3    H225766   0.717   5.574   5.767 -0.5021 -1.4514  1.6853
 1451TIP3   OH225767   3.993   4.632   4.618 -0.4550  0.1082  0.0857
 1451TIP3    H125768   3.999   4.537   4.631  1.8132  0.4050  1.8672
 1451TIP3    H225769   4.076   4.656   4.578 -1.5642  1.2222 -1.6627
 1452TIP3   OH225770   2.991   5.163  12.475  0.6640  0.3555 -0.1502
 1452TIP3    H125771   2.972   5.208  12.392  0.8339  4.4663  1.7848
 1452TIP3    H225772   3.084   5.179  12.491  0.6238 -0.3248  0.8686
 1453TIP3   OH225773   2.317   2.842  14.736 -0.3979  0.2664  0.1963
 1453TIP3    H125774   2.292   2.929  14.705 -1.6686 -0.1218  0.0705
 1453TIP3    H225775   2.408   2.831  14.707 -0.9746  0.6066 -1.9188
 1454TIP3   OH225776   1.523   3.594  10.725 -0.1569  0.0463  0.0744
 1454TIP3    H125777   1.453   3.550  10.677 -0.2965  2.1148 -1.8051
 1454TIP3    H225778   1.594   3.530  10.726 -1.0520 -1.0160 -0.6071
 1455TIP3   OH225779   1.658   4.533  11.282  0.2716  0.3961  0.1266
 1455TIP3    H125780   1.645   4.495  11.195 -1.6216  0.3458  0.3894
 1455TIP3    H225781   1.699   4.618  11.264  0.2436  0.2288 -0.7948
 1456TIP3   OH225782   0.396   5.703   1.140  0.0732 -0.0125  0.0373
 1456TIP3    H125783   0.434   5.790   1.155  0.3133 -0.5271  2.9587
 1456TIP3    H225784   0.468   5.643   1.155 -0.7197 -0.8084  0.7615
 1457TIP3   OH225785   0.083   1.043   2.574 -0.2706 -0.3268 -0.0558
 1457TIP3    H125786   0.093   1.084   2.488 -3.1479  0.3898 -0.1339
 1457TIP3    H225787   0.166   0.997   2.588  0.8717  0.7894 -2.5080
 1458TIP3   OH225788   5.004   4.186   3.267 -0.1335  0.1302  0.0887
 1458TIP3    H125789   5.080   4.226   3.225 -0.8311  0.7734 -0.5983
 1458TIP3    H225790   5.041   4.124   3.330  0.9501 -0.3893 -1.0100
 1459TIP3   OH225791   0.561   0.260  16.976  0.2058 -0.0296  0.0299
 1459TIP3    H125792   0.630   0.223  17.032 -0.4922 -2.2340 -0.4802
 1459TIP3    H225793   0.481   0.216  17.003 -0.8320  1.6118 -0.2111
 1460TIP3   OH225794   2.345   3.196  17.023  0.2705 -0.1378 -0.6419
 1460TIP3    H125795   2.278   3.256  17.057  0.2419 -0.1847 -0.6155
 1460TIP3    H225796   2.379   3.151  17.100 -0.1549 -0.6181 -0.7249
 1461TIP3   OH225797   5.326   5.042   3.531 -0.3210  0.5702  0.2565
 1461TIP3    H125798   5.292   5.107   3.594 -0.7518 -0.9260  1.6252
 1461TIP3    H225799   5.250   4.989   3.508  0.1748  0.0706 -0.2517
 1462TIP3   OH225800   2.942   1.425  16.260  0.1736  0.2584 -0.1559
 1462TIP3    H125801   2.946   1.404  16.354  1.9362 -0.8991 -0.4365
 1462TIP3    H225802   2.869   1.372  16.227 -0.4875  0.7037  0.5501
 1463TIP3   OH225803   4.964   3.083   2.886  0.4032  0.2462 -0.3951
 1463TIP3    H125804   4.986   3.005   2.938  0.2636  0.8665  0.6198
 1463TIP3    H225805   5.030   3.085   2.817 -0.6487 -1.7778 -1.5524
 1464TIP3   OH225806   1.679   2.034  13.152 -0.3500  0.4984 -0.0125
 1464TIP3    H125807   1.585   2.048  13.158 -0.3655  0.7248 -0.7076
 1464TIP3    H225808   1.699   2.042  13.059 -0.0722 -2.4968 -0.2951
 1465TIP3   OH225809   3.343   1.395   0.633  0.4229  0.2429  0.1716
 1465TIP3    H125810   3.375   1.361   0.717  0.6548 -0.1123 -0.0612
 1465TIP3    H225811   3.394   1.475   0.619 -0.1797  0.7398  0.7580
 1466TIP3   OH225812   6.013   5.355   3.625 -0.0733 -0.4148 -0.4242
 1466TIP3    H125813   5.930   5.383   3.664 -0.6150 -3.7752  1.2350
 1466TIP3    H225814   6.078   5.368   3.694  0.6231  1.1104 -1.3168
 1467TIP3   OH225815   3.127   1.245   0.867 -0.5834  0.0283  0.0087
 1467TIP3    H125816   3.176   1.163   0.871 -0.7645 -0.0458  2.3831
 1467TIP3    H225817   3.104   1.255   0.775  2.1587 -0.9455 -0.8762
 1468TIP3   OH225818   0.882   3.207  13.118 -0.2020 -0.4127  0.9271
 1468TIP3    H125819   0.851   3.270  13.053 -1.0304  1.0402  2.6263
 1468TIP3    H225820   0.819   3.135  13.114 -2.1042  1.0690  2.1519
 1469TIP3   OH225821   0.811   1.147  15.266 -0.4527 -0.5920  0.5590
 1469TIP3    H125822   0.718   1.167  15.267 -0.2128  0.5463  1.4241
 1469TIP3    H225823   0.832   1.136  15.173 -0.8636  2.0595  0.0869
 1470TIP3   OH225824   1.815   5.811  16.174 -0.2782 -0.1910  0.0096
 1470TIP3    H125825   1.733   5.836  16.133 -0.7939  0.4038  1.3409
 1470TIP3    H225826   1.877   5.879  16.147 -0.5839  0.1358  0.1282
 1471TIP3   OH225827   6.645   4.341  16.458  0.0515 -0.3140 -0.6317
 1471TIP3    H125828   6.691   4.385  16.386 -0.5515 -1.5260 -1.7836
 1471TIP3    H225829   6.655   4.248  16.440  1.8375 -0.7834  2.0950
 1472TIP3   OH225830   4.276   1.476   6.009 -0.1469 -0.1238 -0.0563
 1472TIP3    H125831   4.234   1.552   6.049 -1.7426 -0.7251 -0.4966
 1472TIP3    H225832   4.358   1.509   5.973  0.2490  0.9074  1.6776
 1473TIP3   OH225833   4.127   5.943   2.410  0.7141  0.6557  0.0548
 1473TIP3    H125834   4.068   5.989   2.470  0.2366  1.1285 -0.7644
 1473TIP3    H225835   4.130   5.999   2.332 -0.2080 -0.9077 -1.1478
 1474TIP3   OH225836   2.208   0.578   1.820 -0.1494 -0.1577 -0.0409
 1474TIP3    H125837   2.255   0.658   1.843 -0.5596  0.0892 -0.0399
 1474TIP3    H225838   2.218   0.521   1.897 -0.7582  0.3165  0.4089
 1475TIP3   OH225839   1.533   2.492   2.766 -0.4297 -0.4049  0.1690
 1475TIP3    H125840   1.446   2.524   2.789 -0.7337  0.4903 -2.0510
 1475TIP3    H225841   1.528   2.475   2.672  1.9735  0.3020 -0.1382
 1476TIP3   OH225842   1.527   3.385   4.339 -0.0488 -0.1317  0.1640
 1476TIP3    H125843   1.457   3.430   4.292  0.1554 -1.6215 -1.6813
 1476TIP3    H225844   1.590   3.454   4.361 -0.5611  0.7486 -1.0336
 1477TIP3   OH225845   5.109   5.203   2.076 -0.2296  0.3339  0.2973
 1477TIP3    H125846   5.167   5.218   2.151  0.7919 -2.0409  0.0641
 1477TIP3    H225847   5.039   5.267   2.087  1.1891  1.7156  1.8985
 1478TIP3   OH225848   1.563   1.194  11.000 -0.2019 -0.5332  0.0100
 1478TIP3    H125849   1.486   1.204  11.056 -0.1540  0.3264 -0.0614
 1478TIP3    H225850   1.527   1.187  10.912 -0.1890  0.8579 -0.1376
 1479TIP3   OH225851   0.726   0.764  16.917  0.1277 -0.1970 -0.4241
 1479TIP3    H125852   0.784   0.691  16.896 -0.0767 -0.5420  0.1751
 1479TIP3    H225853   0.659   0.725  16.973 -0.0753  0.4197 -0.2331
 1480TIP3   OH225854   6.106   4.546   4.879 -0.5383  0.1905 -0.3499
 1480TIP3    H125855   6.187   4.558   4.928 -1.0548  1.4081  0.2343
 1480TIP3    H225856   6.057   4.627   4.892 -0.7287  0.5464 -2.8275
 1481TIP3   OH225857   3.615   1.477  17.128  0.3111  0.2480  0.4254
 1481TIP3    H125858   3.648   1.405  17.074  0.6087  1.8423 -1.6578
 1481TIP3    H225859   3.650   1.460  17.215  0.0284 -2.3146  0.1132
 1482TIP3   OH225860   0.823   3.577   5.775 -0.2505 -0.0805  0.2993
 1482TIP3    H125861   0.797   3.668   5.765 -0.6769  0.0728  2.3550
 1482TIP3    H225862   0.902   3.580   5.829  0.3086 -0.8936 -0.4405
 1483TIP3   OH225863   2.713   5.869   2.998 -0.3804 -0.7604 -0.2049
 1483TIP3    H125864   2.744   5.778   2.995  0.5212 -0.5003  0.5537
 1483TIP3    H225865   2.658   5.873   3.075 -0.8828 -0.7948 -0.5602
 1484TIP3   OH225866   6.746   5.896   5.389  0.0192 -0.2878  0.1196
 1484TIP3    H125867   6.800   5.874   5.465 -1.0665  0.4550  1.1624
 1484TIP3    H225868   6.784   5.977   5.355 -0.5168  0.3534  0.9823
 1485TIP3   OH225869   2.524   1.193  16.021  0.0331  0.1290  0.3483
 1485TIP3    H125870   2.450   1.176  16.081 -1.1226  1.4626 -0.6198
 1485TIP3    H225871   2.484   1.193  15.934  1.1719  0.9274 -0.1951
 1486TIP3   OH225872   2.929   1.183   1.334  0.3755 -0.1205 -0.4072
 1486TIP3    H125873   2.992   1.144   1.396 -0.4854 -0.6907  0.1369
 1486TIP3    H225874   2.896   1.260   1.379 -1.2470 -1.2634  0.4743
 1487TIP3   OH225875   3.111   2.682  16.715 -0.3192  0.6055  0.0840
 1487TIP3    H125876   3.133   2.674  16.622 -0.1241  0.5840  0.1302
 1487TIP3    H225877   3.016   2.687  16.717 -0.3577  0.0439 -0.0829
 1488TIP3   OH225878   5.050   3.230  13.714  0.4609  0.3160 -0.2412
 1488TIP3    H125879   5.098   3.256  13.635  1.7654  0.3731  0.5338
 1488TIP3    H225880   5.117   3.189  13.769 -0.3586  0.5848  0.9757
 1489TIP3   OH225881   1.224   3.848   1.311 -0.3760  0.4705 -0.0870
 1489TIP3    H125882   1.289   3.845   1.382 -1.7098 -0.8033  1.1355
 1489TIP3    H225883   1.166   3.774   1.328 -1.0178  0.4126 -2.2707
 1490TIP3   OH225884   1.471   5.930  15.870  0.1432 -0.1532 -0.2790
 1490TIP3    H125885   1.489   5.845  15.830 -0.0838  0.3061 -1.3873
 1490TIP3    H225886   1.423   5.909  15.950  0.4742 -1.0800 -0.3084
 1491TIP3   OH225887   6.419   0.583   4.343  0.0280 -0.0562 -0.1050
 1491TIP3    H125888   6.383   0.496   4.329 -0.6929 -0.1347  1.8389
 1491TIP3    H225889   6.349   0.631   4.388  1.0316  0.9516  0.4407
 1492TIP3   OH225890   3.092   3.156  15.811 -0.8084  0.3260 -0.4719
 1492TIP3    H125891   3.036   3.156  15.889 -0.7007  3.7008 -0.2262
 1492TIP3    H225892   3.179   3.132  15.843 -1.2891 -1.0146 -0.1159
 1493TIP3   OH225893   1.640   2.792   2.926 -0.2074  0.5096 -0.0339
 1493TIP3    H125894   1.567   2.745   2.966 -1.2153  0.0546 -2.2482
 1493TIP3    H225895   1.710   2.727   2.919 -0.7363  0.0103 -0.8210
 1494TIP3   OH225896   5.600   3.229   2.476  0.5854 -0.6884 -0.6493
 1494TIP3    H125897   5.510   3.196   2.465  0.0644  0.3058  0.3680
 1494TIP3    H225898   5.634   3.181   2.551  0.6171 -0.5062 -0.5461
 1495TIP3   OH225899   0.121   5.653   1.109  0.0713 -0.6301 -0.2199
 1495TIP3    H125900   0.068   5.631   1.032  0.9105  0.7008 -1.2248
 1495TIP3    H225901   0.208   5.672   1.073  0.6932 -0.7953  1.1641
 1496TIP3   OH225902   0.041   4.157   1.560  0.4293  0.6488 -0.1741
 1496TIP3    H125903   0.043   4.196   1.647  0.1402  0.3827 -0.0432
 1496TIP3    H225904  -0.012   4.078   1.571  0.1210  0.7845 -0.6595
 1497TIP3   OH225905   0.278   4.968   0.987  0.6012  0.4075 -0.2091
 1497TIP3    H125906   0.316   5.037   1.042  0.5600 -0.7250  1.2799
 1497TIP3    H225907   0.207   4.931   1.040  1.7416 -1.9485 -0.2241
 1498TIP3   OH225908   1.014   2.452  11.809  0.1709  0.7583  1.0904
 1498TIP3    H125909   0.973   2.459  11.723  1.4597 -2.4568  0.0804
 1498TIP3    H225910   1.068   2.531  11.816  0.9026  0.5924 -1.5751
 1499TIP3   OH225911   0.641   4.515   4.193 -0.7022  0.1936 -0.3463
 1499TIP3    H125912   0.639   4.611   4.196 -1.1955  0.2146 -0.9928
 1499TIP3    H225913   0.549   4.490   4.187 -0.7231 -0.4170  1.7773
 1500TIP3   OH225914   3.706   1.101   1.278 -0.6156  0.0777  0.1420
 1500TIP3    H125915   3.703   1.164   1.351  1.4898 -2.0772  2.2766
 1500TIP3    H225916   3.615   1.092   1.251 -1.4219  1.3512  2.1922
 1501TIP3   OH225917   5.999   2.311   1.858  0.3044  0.0399  0.5041
 1501TIP3    H125918   6.011   2.297   1.952 -0.7707 -1.4161  0.4604
 1501TIP3    H225919   5.964   2.228   1.826 -0.4249  0.8903 -0.9951
 1502TIP3   OH225920   5.017   4.075  13.010 -0.5206  0.5606 -0.0649
 1502TIP3    H125921   4.963   4.032  13.077 -0.7161 -0.0054 -0.5831
 1502TIP3    H225922   5.021   4.013  12.938 -0.5361  1.2709 -0.6985
 1503TIP3   OH225923   5.075   5.933  13.114 -0.4178 -0.0880 -0.2934
 1503TIP3    H125924   5.005   5.994  13.090  0.1745  1.1878  1.0694
 1503TIP3    H225925   5.029   5.852  13.137 -1.5749  0.9414  1.2953
 1504TIP3   OH225926   0.782   3.890   4.101 -0.1587  0.2177  0.3747
 1504TIP3    H125927   0.723   3.815   4.108  0.1165  0.1284  2.1300
 1504TIP3    H225928   0.780   3.931   4.188 -0.0531  2.0737 -0.4456
 1505TIP3   OH225929   3.056   4.628  17.317 -0.2291 -0.1139  0.0271
 1505TIP3    H125930   3.111   4.554  17.344  0.2329 -0.9384 -2.7609
 1505TIP3    H225931   3.095   4.704  17.360  1.1259 -1.1122  0.6374
 1506TIP3   OH225932   0.280   4.945  16.650  1.0077  0.3576  0.2122
 1506TIP3    H125933   0.226   4.965  16.726  0.9141 -0.8818  0.4820
 1506TIP3    H225934   0.347   5.014  16.649 -0.8799  2.2750 -0.4661
 1507TIP3   OH225935   5.648   5.688   4.592 -0.1167 -0.9701 -0.2963
 1507TIP3    H125936   5.628   5.739   4.514 -3.8953 -0.1102  1.0211
 1507TIP3    H225937   5.714   5.739   4.638 -0.7400  0.5780 -1.0415
 1508TIP3   OH225938   5.962   1.418  10.964 -0.3177 -0.2854  0.1748
 1508TIP3    H125939   5.910   1.433  10.885 -1.1740 -0.7767  0.6401
 1508TIP3    H225940   6.016   1.497  10.971 -1.5660  0.6112  0.1286
 1509TIP3   OH225941   6.394   1.659   1.011 -0.0974 -0.5376 -0.5163
 1509TIP3    H125942   6.357   1.746   1.025 -0.3196 -0.8116  0.6570
 1509TIP3    H225943   6.388   1.645   0.916  1.1659  1.2662 -0.9124
 1510TIP3   OH225944   1.312   5.509  12.163 -0.1886 -0.3025 -0.0163
 1510TIP3    H125945   1.390   5.513  12.218 -0.6709 -0.5993  0.7063
 1510TIP3    H225946   1.308   5.419  12.132 -0.7848 -0.5670  0.7789
 1511TIP3   OH225947   5.682   2.975   2.686 -0.2975  0.0707 -0.5614
 1511TIP3    H125948   5.752   3.032   2.653 -0.3941 -0.6476 -2.0643
 1511TIP3    H225949   5.675   2.998   2.779  1.0260  1.0890 -0.6798
 1512TIP3   OH225950   6.464   0.519  13.539  0.3813  0.0553 -0.2012
 1512TIP3    H125951   6.447   0.467  13.461 -0.1010  1.9810 -1.4287
 1512TIP3    H225952   6.559   0.534  13.538  0.7924 -2.0488  1.0399
 1513TIP3   OH225953   3.208   4.753  15.688  0.1900 -0.5644  0.2666
 1513TIP3    H125954   3.215   4.685  15.756  1.0370 -0.6900  0.0650
 1513TIP3    H225955   3.199   4.835  15.737 -0.2883 -0.7617  0.5172
 1514TIP3   OH225956   5.977   6.214  15.739 -0.7414 -0.0050 -0.4110
 1514TIP3    H125957   5.950   6.145  15.679  0.3716  1.3033 -2.5579
 1514TIP3    H225958   6.025   6.168  15.809  0.6215 -1.3985 -2.1649
 1515TIP3   OH225959   5.243   2.437   4.223  0.2305 -0.3638  0.6522
 1515TIP3    H125960   5.260   2.501   4.292 -1.1852 -1.3646  1.9833
 1515TIP3    H225961   5.319   2.445   4.165  0.2923  2.2401  0.9387
 1516TIP3   OH225962   0.635   4.468   1.788  0.3060  0.0220 -0.9255
 1516TIP3    H125963   0.609   4.560   1.778  0.9633  0.2616 -0.5718
 1516TIP3    H225964   0.730   4.473   1.804  0.2265 -0.6615 -0.1732
 1517TIP3   OH225965   3.607   5.738  16.887 -0.5064  0.0526  0.2407
 1517TIP3    H125966   3.616   5.667  16.825 -0.9645 -0.1459  0.3933
 1517TIP3    H225967   3.536   5.792  16.851 -2.8112 -1.5796  1.9622
 1518TIP3   OH225968   3.057   0.346  16.516  0.2521 -0.6379 -0.4538
 1518TIP3    H125969   2.996   0.384  16.453  1.1616 -0.5160 -1.2726
 1518TIP3    H225970   3.139   0.394  16.502  0.7467 -1.3040  0.1233
 1519TIP3   OH225971   2.308   2.004   4.731  0.2931 -0.2308  0.4974
 1519TIP3    H125972   2.217   1.976   4.730  0.1262  0.3050 -0.0562
 1519TIP3    H225973   2.308   2.084   4.785 -0.0746  1.3419 -1.7016
 1520TIP3   OH225974   1.827   2.785   4.911 -0.5200  0.1076 -0.2039
 1520TIP3    H125975   1.764   2.827   4.853  0.0844  3.5043  1.3012
 1520TIP3    H225976   1.910   2.829   4.892  0.3799 -1.0081  0.9700
 1521TIP3   OH225977   4.981   4.576   0.913 -0.0638 -0.0137 -0.4259
 1521TIP3    H125978   4.926   4.503   0.885  0.4206 -0.4797 -0.1749
 1521TIP3    H225979   4.936   4.612   0.990 -0.3543  0.0165 -0.6095
 1522TIP3   OH225980   0.956   0.078   3.435 -0.1767  0.2439 -0.0752
 1522TIP3    H125981   0.986   0.141   3.501  1.2437  0.0107 -0.4682
 1522TIP3    H225982   0.978  -0.007   3.471 -2.2400 -0.1099  0.5250
 1523TIP3   OH225983   5.516   5.002   0.460 -0.1946 -0.1503 -0.3681
 1523TIP3    H125984   5.496   4.990   0.367 -0.7001  0.8659 -0.4009
 1523TIP3    H225985   5.449   4.951   0.506  0.0979 -0.7114 -0.5524
 1524TIP3   OH225986   0.723   3.380   0.561 -0.1485  0.4685 -0.2430
 1524TIP3    H125987   0.811   3.347   0.542 -0.8810 -0.9983 -1.4022
 1524TIP3    H225988   0.701   3.433   0.484  0.5507  2.8042  1.0738
 1525TIP3   OH225989   4.682   3.835   3.417 -0.3208 -0.1304 -0.0605
 1525TIP3    H125990   4.775   3.827   3.438 -0.0125 -1.0964 -1.6283
 1525TIP3    H225991   4.642   3.865   3.499  1.0438 -1.7896  1.3121
 1526TIP3   OH225992   5.036   3.383   5.088 -0.0466 -0.1070  0.1350
 1526TIP3    H125993   4.975   3.456   5.094  0.7237  0.5932 -0.4625
 1526TIP3    H225994   4.996   3.323   5.025 -0.0011  0.4599 -0.4318
 1527TIP3   OH225995   2.739   2.790   1.888 -0.2093  0.0746 -0.1394
 1527TIP3    H125996   2.750   2.880   1.918 -1.2097 -0.0772  0.7611
 1527TIP3    H225997   2.738   2.738   1.968 -1.3581 -0.5360 -0.5235
 1528TIP3   OH225998   0.489   5.800  15.152  0.9517  0.1252  0.6523
 1528TIP3    H125999   0.411   5.746  15.151  0.8429  0.2841  0.4673
 1528TIP3    H226000   0.460   5.884  15.189  0.3990  1.1230 -1.8298
 1529TIP3   OH226001   0.736   6.377   1.082 -0.4604  0.0547 -0.3289
 1529TIP3    H126002   0.651   6.351   1.118 -0.1264 -0.5584  0.0327
 1529TIP3    H226003   0.752   6.316   1.011 -1.2169  1.3936 -1.7019
 1530TIP3   OH226004   4.985   3.200   6.380 -0.0775  0.7782  0.0682
 1530TIP3    H126005   4.953   3.220   6.468  0.6206 -0.7538  0.6909
 1530TIP3    H226006   4.908   3.170   6.333 -0.2004  0.3128  0.5603
 1531TIP3   OH226007   0.931   3.210  12.733 -0.8467 -0.7300  0.0288
 1531TIP3    H126008   0.874   3.248  12.799 -1.1183  0.2109 -0.7235
 1531TIP3    H226009   0.929   3.272  12.660  1.1613 -0.6253 -0.0134
 1532TIP3   OH226010   0.765   4.018   4.792 -0.2098 -0.0988  0.0608
 1532TIP3    H126011   0.727   4.014   4.880 -3.6421 -2.1383 -1.2873
 1532TIP3    H226012   0.709   4.079   4.745 -0.9442 -1.9480 -1.6123
 1533TIP3   OH226013   1.911   5.060   6.437  0.0232  0.2006  0.3795
 1533TIP3    H126014   1.917   4.994   6.368 -0.3912  0.0766  0.4583
 1533TIP3    H226015   2.001   5.077   6.462  0.1895  0.4085 -0.3451
 1534TIP3   OH226016   0.794   6.649   0.593 -0.4432  0.0384 -0.2074
 1534TIP3    H126017   0.763   6.631   0.681  2.0202 -3.4450  0.1416
 1534TIP3    H226018   0.885   6.676   0.604 -0.5628  1.1778 -1.6527
 1535TIP3   OH226019   1.516   3.908  15.608 -0.7046 -0.1719  0.5220
 1535TIP3    H126020   1.584   3.975  15.614 -0.0935 -0.8685  1.6110
 1535TIP3    H226021   1.444   3.951  15.563  0.5728  0.4844 -0.9882
 1536TIP3   OH226022   4.226   2.330   3.497 -0.4761  0.1268 -0.1021
 1536TIP3    H126023   4.263   2.250   3.534 -2.7040 -0.1053  1.8328
 1536TIP3    H226024   4.210   2.309   3.405  1.9078 -0.4906 -0.4536
 1537TIP3   OH226025   1.594   5.493  16.581  0.1578  0.5794 -0.4942
 1537TIP3    H126026   1.585   5.570  16.636  0.5131  0.9835 -0.9965
 1537TIP3    H226027   1.516   5.441  16.601  1.1631 -0.1907  1.7575
 1538TIP3   OH226028   5.037   5.456  17.074  0.5461  0.2880  0.7802
 1538TIP3    H126029   5.099   5.460  17.001  0.8138 -0.9835  0.9100
 1538TIP3    H226030   4.971   5.523  17.054  1.0273  0.4751 -0.2329
 1539TIP3   OH226031   4.964   0.784   2.617  0.0466 -0.2665  0.1413
 1539TIP3    H126032   5.042   0.766   2.564  0.4829  1.8865 -0.0169
 1539TIP3    H226033   4.931   0.697   2.641  3.6934 -1.3579  2.0227
 1540TIP3   OH226034   4.723   3.441   0.259  0.0170 -0.3327 -0.2192
 1540TIP3    H126035   4.725   3.520   0.313 -0.5201  0.2858 -1.0796
 1540TIP3    H226036   4.653   3.387   0.298  0.7439 -0.6480  0.6958
 1541TIP3   OH226037   2.935   0.021  15.297 -0.4561 -0.4393  0.0649
 1541TIP3    H126038   2.982   0.021  15.214  0.4010  0.3732  0.5343
 1541TIP3    H226039   2.874  -0.052  15.290 -0.0537 -0.6849 -1.0809
 1542TIP3   OH226040   5.113   5.646  12.804 -0.1202 -0.1765  0.4056
 1542TIP3    H126041   5.099   5.580  12.736 -1.8151  0.9411 -0.3946
 1542TIP3    H226042   5.066   5.613  12.880 -1.0089  0.1205 -0.0091
 1543TIP3   OH226043   0.632   1.165  12.520 -0.4559  0.1893  0.0024
 1543TIP3    H126044   0.688   1.093  12.548  0.6641  1.2801  0.6732
 1543TIP3    H226045   0.568   1.124  12.462  1.8264 -0.9338 -1.8878
 1544TIP3   OH226046   3.313   4.631  15.465  0.3362  0.1002  0.6678
 1544TIP3    H126047   3.294   4.552  15.515  1.0003  0.5448  1.6635
 1544TIP3    H226048   3.309   4.702  15.529  1.9667  0.5952  0.2764
 1545TIP3   OH226049   5.491   3.572   1.906  0.6240 -0.4231  0.1541
 1545TIP3    H126050   5.576   3.545   1.940  0.6674 -2.2329 -1.2361
 1545TIP3    H226051   5.512   3.622   1.826  0.3958 -0.3981  0.1100
 1546TIP3   OH226052   2.989   6.679   4.259  0.1996  0.1220 -0.2291
 1546TIP3    H126053   3.016   6.602   4.309  1.1604  1.8023  2.0198
 1546TIP3    H226054   2.951   6.643   4.178  1.4774 -2.6356  0.2763
 1547TIP3   OH226055   5.423   2.673   0.349 -0.3404  0.3875  0.5161
 1547TIP3    H126056   5.412   2.588   0.391  0.8746  0.6222  1.3706
 1547TIP3    H226057   5.496   2.713   0.396 -1.6687  2.4146  0.9341
 1548TIP3   OH226058   2.324   0.054  16.576  0.4555  0.4306  0.4012
 1548TIP3    H126059   2.323   0.150  16.580  3.3301  0.5632  0.0042
 1548TIP3    H226060   2.382   0.028  16.647  2.5945 -0.7442 -1.6362
 1549TIP3   OH226061   2.760   2.223  16.872 -0.1113 -0.5013 -0.2144
 1549TIP3    H126062   2.686   2.191  16.820 -0.6875 -1.3047  1.0429
 1549TIP3    H226063   2.732   2.308  16.906 -0.0717 -0.3629 -0.5321
 1550TIP3   OH226064   2.524   0.844   0.295 -0.1818  0.2683 -0.4689
 1550TIP3    H126065   2.457   0.894   0.341  0.0376  0.2071 -0.0775
 1550TIP3    H226066   2.486   0.757   0.284 -0.5010  0.4730 -1.0098
 1551TIP3   OH226067   3.694   4.213  13.559 -0.0877 -0.5523 -0.1934
 1551TIP3    H126068   3.613   4.225  13.609  0.4410  3.6816  0.0450
 1551TIP3    H226069   3.724   4.302  13.541  4.1591 -1.9046 -0.9146
 1552TIP3   OH226070   3.681   6.343   0.052 -0.1209 -0.2760  0.1807
 1552TIP3    H126071   3.588   6.352   0.072 -0.5119 -0.0413 -1.6054
 1552TIP3    H226072   3.725   6.387   0.125 -1.4004 -0.1864  0.9356
 1553TIP3   OH226073   2.254   0.736   1.453  0.0801 -0.6339 -0.1123
 1553TIP3    H126074   2.184   0.766   1.396 -0.3472  0.6897  1.0484
 1553TIP3    H226075   2.297   0.816   1.483  2.7820 -1.4222 -1.5881
 1554TIP3   OH226076   5.878   4.394   5.631 -0.2886  0.5953  0.5886
 1554TIP3    H126077   5.878   4.430   5.720 -0.1841  1.0031  0.4258
 1554TIP3    H226078   5.962   4.349   5.624  0.0725  1.2699  0.4234
 1555TIP3   OH226079   0.728   6.429  16.373 -0.0622  0.2724 -0.5234
 1555TIP3    H126080   0.740   6.417  16.468  0.2177  2.1488 -0.2776
 1555TIP3    H226081   0.638   6.401  16.356 -0.7131  1.5538  0.6384
 1556TIP3   OH226082   5.992   1.611   5.232 -0.0456 -0.2871  0.1575
 1556TIP3    H126083   5.930   1.683   5.225 -0.2683 -0.3385  1.3168
 1556TIP3    H226084   6.052   1.623   5.159 -0.4065  0.7496  0.0193
 1557TIP3   OH226085   3.366   3.756  16.805 -0.1118  0.5520 -0.1328
 1557TIP3    H126086   3.298   3.824  16.802  0.0972  0.7743  0.1080
 1557TIP3    H226087   3.320   3.679  16.837 -0.0015  1.0345  1.2954
 1558TIP3   OH226088   2.723   0.800   0.980  0.1089  0.1886 -0.0400
 1558TIP3    H126089   2.651   0.740   1.001 -1.9961  2.9931  1.4750
 1558TIP3    H226090   2.685   0.862   0.917  1.3087  1.4909  0.4688
 1559TIP3   OH226091   2.230   6.433  15.405  0.0498 -0.2677 -0.3895
 1559TIP3    H126092   2.139   6.435  15.374 -0.0918 -0.0456  0.0299
 1559TIP3    H226093   2.230   6.367  15.474  0.0679  0.1427  0.0142
 1560TIP3   OH226094   3.561   3.259   0.495 -0.0277 -0.4246  0.4496
 1560TIP3    H126095   3.623   3.332   0.503 -0.4944 -0.1233  1.4579
 1560TIP3    H226096   3.613   3.182   0.516 -0.0779 -0.1299  1.7198
 1561TIP3   OH226097   3.246   5.110  11.833 -0.1545  0.5590 -0.1344
 1561TIP3    H126098   3.238   5.143  11.743  1.2944  1.2267 -0.0409
 1561TIP3    H226099   3.260   5.188  11.886 -3.4065  0.4609  1.0921
 1562TIP3   OH226100   0.130   1.901   5.220 -0.1036 -0.4298 -0.2693
 1562TIP3    H126101   0.199   1.887   5.156  2.8525  1.5262  2.2230
 1562TIP3    H226102   0.089   1.984   5.194 -0.0819 -0.5053 -0.5468
 1563TIP3   OH226103   3.497   0.131  11.001 -0.4650  0.1015 -0.0303
 1563TIP3    H126104   3.577   0.079  11.005 -0.0506  0.7588  0.3092
 1563TIP3    H226105   3.513   0.194  10.930 -0.3818  0.7221  0.5360
 1564TIP3   OH226106   2.594   5.261   2.065  0.1634 -0.2400  0.3244
 1564TIP3    H126107   2.543   5.298   2.137  1.3088  1.2766  0.4307
 1564TIP3    H226108   2.682   5.297   2.078  0.6531 -0.7941 -1.2314
 1565TIP3   OH226109   1.070   2.930  12.928 -0.2842 -0.2353 -0.5105
 1565TIP3    H126110   1.069   2.874  13.006 -1.4348  1.1756  0.5689
 1565TIP3    H226111   1.101   3.015  12.961 -2.1038  0.7718 -1.2703
 1566TIP3   OH226112   3.148   1.517  12.142  0.4491 -0.0505  0.0279
 1566TIP3    H126113   3.186   1.604  12.158  1.6530 -0.6335  0.4029
 1566TIP3    H226114   3.059   1.525  12.176  0.4630  1.1040 -0.1417
 1567TIP3   OH226115   0.110   2.635   5.619  0.2933 -0.2889  0.2176
 1567TIP3    H126116   0.069   2.696   5.681  0.1694  0.6052 -0.7231
 1567TIP3    H226117   0.037   2.584   5.585  0.0407  0.7462 -0.8447
 1568TIP3   OH226118   4.734   3.712  14.330  0.3187  0.4706 -0.5565
 1568TIP3    H126119   4.663   3.672  14.380  1.2439  1.4577  1.7118
 1568TIP3    H226120   4.722   3.806  14.343  2.3538  0.6493  0.4475
 1569TIP3   OH226121   6.179   2.608  16.659  0.0269  0.4734 -0.0669
 1569TIP3    H126122   6.092   2.569  16.673  0.3539 -0.2377  0.0417
 1569TIP3    H226123   6.162   2.683  16.604 -0.5112 -0.4182 -1.1625
 1570TIP3   OH226124   0.570   2.243  13.469 -0.0852 -0.8403 -0.0111
 1570TIP3    H126125   0.486   2.240  13.424 -0.5163  2.2061  0.3482
 1570TIP3    H226126   0.548   2.264  13.560  1.0189  1.3630 -0.1770
 1571TIP3   OH226127   3.886   0.252  12.143 -0.3697 -0.0656 -0.4018
 1571TIP3    H126128   3.883   0.279  12.051 -2.4192 -2.0774 -1.0157
 1571TIP3    H226129   3.803   0.207  12.157  0.1652 -0.3597  2.2918
 1572TIP3   OH226130   2.066   2.871  14.421 -0.2613 -0.1578 -0.0953
 1572TIP3    H126131   2.072   2.920  14.503 -1.7852  1.1424 -0.7116
 1572TIP3    H226132   1.972   2.862  14.406 -0.2182  2.9651 -3.5451
 1573TIP3   OH226133   0.316   4.394  17.305 -0.5869 -0.2008  0.0748
 1573TIP3    H126134   0.386   4.348  17.259 -2.0942 -1.5030 -1.0262
 1573TIP3    H226135   0.361   4.461  17.356  1.6276 -2.0682  0.7742
 1574TIP3   OH226136   3.812   2.303  17.414  0.3820  0.0115 -0.2014
 1574TIP3    H126137   3.761   2.279  17.337 -0.7661 -0.0407  0.5505
 1574TIP3    H226138   3.887   2.244  17.411  1.7483  1.6891 -2.6213
 1575TIP3   OH226139   1.326   6.495  15.469  0.5532 -0.6153 -0.1427
 1575TIP3    H126140   1.251   6.545  15.439  1.3061  1.5124  1.2909
 1575TIP3    H226141   1.290   6.430  15.529 -0.1052  1.5154  1.9364
 1576TIP3   OH226142   6.065   3.128   4.873  0.1596  0.1398  0.1453
 1576TIP3    H126143   6.030   3.192   4.935  1.8997  0.0883  1.2462
 1576TIP3    H226144   6.156   3.116   4.900  0.4307 -1.3123 -1.2772
 1577TIP3   OH226145   6.735   6.105   5.792 -0.2443  0.1104 -0.3232
 1577TIP3    H126146   6.722   6.013   5.769  2.7203 -0.4078 -0.2877
 1577TIP3    H226147   6.683   6.118   5.871 -0.6585 -1.5255 -0.2981
 1578TIP3   OH226148   2.751   0.303  17.359  0.0823 -0.2915 -0.4987
 1578TIP3    H126149   2.677   0.308  17.299  0.3507  1.0171 -0.7484
 1578TIP3    H226150   2.800   0.226  17.329  0.0076  0.1154 -1.7347
 1579TIP3   OH226151   5.998   3.098   0.103 -0.3266  1.0017  0.0485
 1579TIP3    H126152   5.984   3.189   0.127 -0.6847  0.6048  1.4678
 1579TIP3    H226153   6.079   3.074   0.148 -2.0251 -0.3184  2.6752
 1580TIP3   OH226154   3.360   4.546  10.998  0.2818  0.1714  0.4367
 1580TIP3    H126155   3.373   4.469  10.943 -0.4119 -0.1983  0.7683
 1580TIP3    H226156   3.383   4.620  10.942  0.2087 -0.2342 -0.1395
 1581TIP3   OH226157   6.627   0.933  11.110  0.3269  0.2199  0.4398
 1581TIP3    H126158   6.693   0.867  11.132 -1.1420 -0.7338  2.2685
 1581TIP3    H226159   6.677   1.006  11.074  2.2909 -0.7469  1.0548
 1582TIP3   OH226160   0.934   5.124   6.616  0.5852 -0.4231 -0.6609
 1582TIP3    H126161   1.014   5.151   6.662  0.5780 -1.5024  0.0028
 1582TIP3    H226162   0.960   5.048   6.564  0.5269  0.6049 -2.2903
 1583TIP3   OH226163   4.623   5.494   3.103 -0.2471 -0.1043  0.9242
 1583TIP3    H126164   4.642   5.489   3.009  2.0008  1.7017  1.2001
 1583TIP3    H226165   4.591   5.584   3.115  0.9402  0.1826  2.0842
 1584TIP3   OH226166   2.141   6.026  11.471  0.1828 -0.4614 -0.4946
 1584TIP3    H126167   2.051   6.058  11.465 -0.1201 -1.2682 -0.2743
 1584TIP3    H226168   2.179   6.043  11.384 -0.7876 -1.9180 -1.2425
 1585TIP3   OH226169   3.882   4.495  16.415  0.7378 -0.0386 -0.2075
 1585TIP3    H126170   3.953   4.460  16.363  0.9665  1.1019 -0.6813
 1585TIP3    H226171   3.908   4.585  16.436 -0.7500  0.5608 -0.7713
 1586TIP3   OH226172   0.069   6.017  11.475  0.1370  0.1745 -0.3082
 1586TIP3    H126173   0.120   5.946  11.514 -0.6729 -1.2256 -1.6912
 1586TIP3    H226174   0.067   6.084  11.543  0.5143 -1.3139  1.2544
 1587TIP3   OH226175   3.371   5.076   0.224 -0.4548  0.4861 -0.2539
 1587TIP3    H126176   3.422   5.057   0.145  0.2658  3.4008 -0.6215
 1587TIP3    H226177   3.386   5.170   0.239 -2.1243  0.4228  2.2553
 1588TIP3   OH226178   0.212   5.601  14.110 -0.6736  0.3574 -0.3101
 1588TIP3    H126179   0.282   5.536  14.105  1.5392  2.2437  2.7849
 1588TIP3    H226180   0.139   5.555  14.151 -0.3431 -0.9520 -1.1269
 1589TIP3   OH226181   4.822   4.062   3.505  0.5712  0.3037 -0.0613
 1589TIP3    H126182   4.728   4.056   3.519  0.6063 -2.6961 -0.5569
 1589TIP3    H226183   4.831   4.107   3.421 -0.3942  0.6791  0.0262
 1590TIP3   OH226184   4.546   3.760  13.356  0.0159  0.5252  0.0456
 1590TIP3    H126185   4.617   3.794  13.411  0.4931  1.1264 -0.9206
 1590TIP3    H226186   4.471   3.816  13.376  0.1875  0.7400  0.0914
 1591TIP3   OH226187   5.872   1.000  11.166  0.2001  0.1936 -0.8764
 1591TIP3    H126188   5.822   1.041  11.096 -0.5900 -2.6260 -2.0990
 1591TIP3    H226189   5.946   0.957  11.123  0.3573 -0.6231  0.1393
 1592TIP3   OH226190   5.621   3.515  12.927 -0.0386 -0.0747 -0.0361
 1592TIP3    H126191   5.679   3.485  12.997  0.4237  0.5826 -0.1397
 1592TIP3    H226192   5.679   3.547  12.859 -0.5011 -0.3419 -0.5659
 1593TIP3   OH226193   0.835   5.550   2.825  0.3685  0.1750  0.5762
 1593TIP3    H126194   0.838   5.623   2.888  3.5443  0.3303  0.4065
 1593TIP3    H226195   0.796   5.588   2.746 -0.5211  0.8959  1.3288
 1594TIP3   OH226196   3.197   0.094  11.442 -0.1722 -0.7322  0.3439
 1594TIP3    H126197   3.280   0.069  11.484 -0.0145  0.0980  0.5478
 1594TIP3    H226198   3.195   0.043  11.361  1.3801  0.4738 -0.5121
 1595TIP3   OH226199   0.471   2.678   1.768  0.4854  0.0458 -0.1844
 1595TIP3    H126200   0.558   2.708   1.793 -0.3965  3.6470 -0.8313
 1595TIP3    H226201   0.441   2.741   1.702 -0.8526 -3.7324 -3.6845
 1596TIP3   OH226202   5.137   2.048   0.590  0.4787  0.4742 -0.2209
 1596TIP3    H126203   5.185   2.082   0.515  2.0114 -1.0546 -0.0067
 1596TIP3    H226204   5.190   2.072   0.666 -0.3934  0.8969  0.2682
 1597TIP3   OH226205   5.317   0.952  13.765  0.1372 -0.2199  0.0821
 1597TIP3    H126206   5.258   1.007  13.816 -0.4629  0.2626 -1.0827
 1597TIP3    H226207   5.393   0.939  13.821 -0.8887 -0.5014  1.4502
 1598TIP3   OH226208   3.836   1.404  13.641 -0.5054 -0.1268  0.1447
 1598TIP3    H126209   3.878   1.385  13.725  0.4370 -3.7642 -0.9976
 1598TIP3    H226210   3.908   1.410  13.579 -1.2858  1.1815 -0.6904
 1599TIP3   OH226211   5.311   6.024   1.732 -1.0436  0.1104  0.3827
 1599TIP3    H126212   5.328   5.979   1.650  0.2195  0.0893  0.6345
 1599TIP3    H226213   5.252   6.095   1.709 -1.3990 -0.4287 -0.3834
 1600TIP3   OH226214   0.388   3.653   5.440  0.4671 -0.1775  0.0623
 1600TIP3    H126215   0.404   3.559   5.430  0.7147 -0.1511  0.2059
 1600TIP3    H226216   0.315   3.671   5.381  0.3962 -0.4672  0.0595
 1601TIP3   OH226217   2.896   6.451  11.262  0.5049 -0.0313 -0.5812
 1601TIP3    H126218   2.878   6.425  11.172  0.9542  0.6553 -0.8750
 1601TIP3    H226219   2.901   6.368  11.310  0.4229 -0.4110 -1.2122
 1602TIP3   OH226220   4.411   0.949   4.917 -0.0807  0.1639  0.3375
 1602TIP3    H126221   4.373   0.946   5.005 -1.5458  2.4236 -0.1269
 1602TIP3    H226222   4.351   1.004   4.868  1.4681  0.1146 -1.7210
 1603TIP3   OH226223   4.365   0.788  11.196 -0.1901  0.0765 -0.2029
 1603TIP3    H126224   4.403   0.700  11.188  0.2829  0.4027 -1.7415
 1603TIP3    H226225   4.397   0.835  11.120 -3.4532  0.4505 -1.4843
 1604TIP3   OH226226   4.237   2.623  13.289  0.1515 -0.2214 -0.4886
 1604TIP3    H126227   4.225   2.718  13.293 -0.1392 -0.2926  1.3927
 1604TIP3    H226228   4.281   2.601  13.371  0.9148 -1.6340 -1.2397
 1605TIP3   OH226229   6.048   0.511   0.810  0.0873 -0.1940  0.1914
 1605TIP3    H126230   5.985   0.439   0.802  0.2949 -0.2157 -1.8262
 1605TIP3    H226231   6.008   0.584   0.762  0.9535  0.2286  0.0884
 1606TIP3   OH226232   3.545   1.998   4.107 -0.0777  0.3664 -1.2321
 1606TIP3    H126233   3.633   2.029   4.084  0.5380  0.6031  1.2376
 1606TIP3    H226234   3.504   1.981   4.022  1.7881  1.7460 -2.5050
 1607TIP3   OH226235   2.340   3.965   5.451 -0.0116  0.2471 -0.0495
 1607TIP3    H126236   2.303   3.878   5.438  1.4318 -0.4315  0.1818
 1607TIP3    H226237   2.412   3.970   5.388  2.1771 -0.1330  2.2486
 1608TIP3   OH226238   0.254   0.837  11.411  0.0379 -0.2720 -0.6390
 1608TIP3    H126239   0.290   0.925  11.401 -0.4045  0.0686  0.6255
 1608TIP3    H226240   0.224   0.833  11.502 -1.9291 -0.9956 -1.2760
 1609TIP3   OH226241   0.506   3.658  13.464 -0.5788 -0.0269 -0.5942
 1609TIP3    H126242   0.556   3.579  13.444 -0.6824 -0.2097 -0.1518
 1609TIP3    H226243   0.435   3.627  13.520  0.4341  0.6308  1.1440
 1610TIP3   OH226244   6.354   4.929   1.130 -0.2900 -0.2568  0.6791
 1610TIP3    H126245   6.424   4.995   1.129 -0.6739  0.1645 -0.7503
 1610TIP3    H226246   6.358   4.892   1.218  0.0300  1.5669  1.4925
 1611TIP3   OH226247   0.982   3.929   3.246 -0.5128  0.1276 -0.4592
 1611TIP3    H126248   0.915   3.996   3.258 -1.0260  0.1201 -2.8321
 1611TIP3    H226249   0.933   3.846   3.251 -0.2827  0.0189  0.0508
 1612TIP3   OH226250   6.650   0.459  16.773 -0.1857  0.2609  0.6190
 1612TIP3    H126251   6.728   0.514  16.762  0.2654 -0.3927  0.5395
 1612TIP3    H226252   6.676   0.373  16.741 -2.1299  0.8875 -3.2092
 1613TIP3   OH226253   4.285   5.770   0.595  0.0949 -0.4327 -0.2929
 1613TIP3    H126254   4.301   5.818   0.676  1.4545  0.3110 -0.9718
 1613TIP3    H226255   4.192   5.784   0.577  0.2158  1.0642  0.0900
 1614TIP3   OH226256   4.238   6.435   1.013 -0.2847  0.2676  0.5169
 1614TIP3    H126257   4.272   6.431   1.102  1.3704 -2.6364 -0.1217
 1614TIP3    H226258   4.313   6.461   0.959 -0.2281 -1.6551 -0.4003
 1615TIP3   OH226259   2.051   5.914   4.991 -0.4476 -0.3132  0.1494
 1615TIP3    H126260   2.003   5.957   4.920  0.7940 -0.5932 -0.8898
 1615TIP3    H226261   2.132   5.965   4.999 -1.4496  1.0729  2.8695
 1616TIP3   OH226262   0.116   0.776  13.575 -0.2706  0.2040 -0.0908
 1616TIP3    H126263   0.049   0.833  13.537 -0.6651 -0.8865 -1.0784
 1616TIP3    H226264   0.199   0.811  13.542 -0.4746  0.4355 -0.3643
 1617TIP3   OH226265   5.190   1.876   4.146 -0.7734  0.1548  0.1757
 1617TIP3    H126266   5.281   1.868   4.120 -0.9402 -2.0921  0.1405
 1617TIP3    H226267   5.193   1.893   4.240 -0.3106 -1.2277  0.4305
 1618TIP3   OH226268   4.875   3.044  16.304 -0.3092 -0.0539 -0.3492
 1618TIP3    H126269   4.884   2.978  16.234  2.1444 -0.4013  0.1995
 1618TIP3    H226270   4.839   2.995  16.378  1.1499 -0.7484 -0.0627
 1619TIP3   OH226271   0.668   4.686  16.527 -0.0387 -0.0081  0.2904
 1619TIP3    H126272   0.752   4.732  16.527 -0.1512  0.4687 -3.2376
 1619TIP3    H226273   0.622   4.722  16.602  2.8320 -0.2568  2.3375
 1620TIP3   OH226274   6.459   0.628   2.556  1.1946 -0.4025  0.7170
 1620TIP3    H126275   6.522   0.699   2.542 -0.3505  0.7461 -0.9626
 1620TIP3    H226276   6.473   0.569   2.482  0.6224 -0.3710  0.5779
 1621TIP3   OH226277   1.911   5.691   2.254 -0.0268  0.3734 -0.8730
 1621TIP3    H126278   1.860   5.771   2.266 -0.1125  0.1646  0.2864
 1621TIP3    H226279   2.002   5.721   2.254 -0.0410  0.4501 -0.0739
 1622TIP3   OH226280   6.692   3.628  15.830 -0.4429  0.4948 -0.3931
 1622TIP3    H126281   6.600   3.607  15.814 -0.0164 -0.1313 -2.2835
 1622TIP3    H226282   6.718   3.568  15.899 -0.4896 -2.1135 -2.4857
 1623TIP3   OH226283   5.153   2.993  15.130 -0.3276  0.1670 -0.1082
 1623TIP3    H126284   5.089   2.951  15.186 -0.7934  1.0651  0.0351
 1623TIP3    H226285   5.102   3.034  15.061  0.1932 -0.3219 -0.8063
 1624TIP3   OH226286   0.516   3.031  10.538  0.5024  0.1888  0.4957
 1624TIP3    H126287   0.502   2.939  10.563  1.7055 -0.3781 -0.7987
 1624TIP3    H226288   0.441   3.077  10.575 -0.9500 -1.5527 -0.1333
 1625TIP3   OH226289   5.843   5.120  12.261 -0.6510 -0.2421  0.0421
 1625TIP3    H126290   5.876   5.187  12.202 -0.5053 -0.6344 -0.3249
 1625TIP3    H226291   5.768   5.161  12.305  1.2089  1.2001  2.0314
 1626TIP3   OH226292   5.306   5.489  14.774 -0.4003  0.0036 -0.2841
 1626TIP3    H126293   5.214   5.491  14.801 -0.8984 -2.2166 -1.4916
 1626TIP3    H226294   5.310   5.550  14.701 -0.1756  2.3127  1.5656
 1627TIP3   OH226295   0.592   0.842   5.783  0.9275 -0.1988  0.5391
 1627TIP3    H126296   0.553   0.929   5.790  2.3475  0.4804  0.3749
 1627TIP3    H226297   0.525   0.789   5.740  0.4710  1.1073 -0.4269
 1628TIP3   OH226298   1.798   3.370   5.044  0.3857  0.0847  0.0834
 1628TIP3    H126299   1.763   3.317   4.973 -0.5008  2.0317 -1.0165
 1628TIP3    H226300   1.888   3.388   5.019 -0.1937  1.5426 -1.0913
 1629TIP3   OH226301   0.593   3.102  16.608  0.2944 -0.4761  0.2537
 1629TIP3    H126302   0.500   3.102  16.583 -0.0895  0.5382  1.5668
 1629TIP3    H226303   0.603   3.025  16.664  0.5432 -1.2414 -0.8016
 1630TIP3   OH226304   1.800   2.151  11.539 -0.1765  0.4786 -0.6643
 1630TIP3    H126305   1.886   2.162  11.582 -1.1594  1.4623  1.1876
 1630TIP3    H226306   1.793   2.057  11.523  0.3212  0.0460  1.3156
 1631TIP3   OH226307   3.881   2.492   1.362  0.1324  0.3299 -0.1165
 1631TIP3    H126308   3.819   2.421   1.379 -0.0029  0.1529 -1.2660
 1631TIP3    H226309   3.876   2.547   1.440 -2.0784  0.7648 -0.4948
 1632TIP3   OH226310   2.410   5.889  16.390  0.2797  0.1873  0.0655
 1632TIP3    H126311   2.381   5.952  16.324  0.1061  0.8287  0.7352
 1632TIP3    H226312   2.483   5.932  16.435  0.6480 -0.3984  0.0407
 1633TIP3   OH226313   1.689   2.741  16.756  0.0548  0.5154  0.5970
 1633TIP3    H126314   1.743   2.812  16.791  1.0016  0.5593 -0.8993
 1633TIP3    H226315   1.695   2.672  16.822  1.8604  0.5636  0.5229
 1634TIP3   OH226316   2.845   4.491  14.911  0.0649  0.2033 -0.6120
 1634TIP3    H126317   2.770   4.534  14.953  1.9607  1.3012  1.9301
 1634TIP3    H226318   2.857   4.538  14.829 -1.5072  0.5070 -0.7082
 1635TIP3   OH226319   4.116   3.659   4.896 -0.1655  0.0616  0.2053
 1635TIP3    H126320   4.118   3.602   4.820 -3.7293  0.4914 -0.3942
 1635TIP3    H226321   4.204   3.695   4.902  0.9740 -2.0785 -2.0106
 1636TIP3   OH226322   1.285   3.080   3.176 -0.1102  0.0118 -0.5302
 1636TIP3    H126323   1.260   3.033   3.255 -0.0188  0.4363 -0.2444
 1636TIP3    H226324   1.202   3.103   3.135 -0.2397  1.6104  0.5301
 1637TIP3   OH226325   0.310   6.348  11.229 -0.8457 -0.3769 -0.0417
 1637TIP3    H126326   0.355   6.303  11.301 -1.0135 -1.1349 -0.3971
 1637TIP3    H226327   0.379   6.363  11.163 -0.1897  2.2939  1.1330
 1638TIP3   OH226328   0.194   4.946  12.525 -0.0862  0.3362 -0.0033
 1638TIP3    H126329   0.111   4.899  12.520  0.0319 -0.0957  1.5484
 1638TIP3    H226330   0.260   4.878  12.539  0.5313  0.6802 -1.1495
 1639TIP3   OH226331   1.023   2.792  16.664 -0.5315  0.1258  0.3034
 1639TIP3    H126332   0.960   2.738  16.711  0.9048 -2.7617 -0.8422
 1639TIP3    H226333   0.972   2.834  16.594 -1.2161 -2.3916 -0.8093
 1640TIP3   OH226334   1.736   1.264  13.634  0.0742 -0.2804 -0.4013
 1640TIP3    H126335   1.767   1.203  13.567 -0.0889 -2.3097  1.2671
 1640TIP3    H226336   1.805   1.266  13.700  0.3348  1.8572 -0.6536
 1641TIP3   OH226337   2.346   6.164  13.719  0.2336 -0.2361 -0.1581
 1641TIP3    H126338   2.398   6.203  13.789 -0.9365  0.6114  0.2761
 1641TIP3    H226339   2.364   6.218  13.643  0.5783 -0.4214 -0.2103
 1642TIP3   OH226340   4.369   3.671   2.608 -0.6434  0.4673  0.1374
 1642TIP3    H126341   4.408   3.739   2.665 -1.8631  1.0757  0.2779
 1642TIP3    H226342   4.280   3.660   2.642 -0.5235 -1.0993 -0.0024
 1643TIP3   OH226343   5.969   5.662  10.461  0.5586  0.5622 -0.1377
 1643TIP3    H126344   5.900   5.726  10.445 -0.9686 -0.4261  1.9268
 1643TIP3    H226345   5.935   5.580  10.425  1.3752  0.3638 -0.4919
 1644TIP3   OH226346   0.403   1.769  14.363 -0.3958  0.2144  0.2844
 1644TIP3    H126347   0.383   1.678  14.384  2.4586 -0.2992  1.3077
 1644TIP3    H226348   0.324   1.802  14.320 -1.3176 -2.9050 -0.6973
 1645TIP3   OH226349   2.354   2.152  14.779  0.2876 -0.6400 -0.3912
 1645TIP3    H126350   2.345   2.210  14.703  0.3561 -0.1107  0.0017
 1645TIP3    H226351   2.434   2.103  14.762 -0.4106 -1.5300 -1.3235
 1646TIP3   OH226352   4.319   0.889   3.216 -0.3300  0.2684  0.3220
 1646TIP3    H126353   4.327   0.853   3.128  1.4703 -0.9175  0.9233
 1646TIP3    H226354   4.360   0.976   3.209  2.1619 -0.8218  0.5068
 1647TIP3   OH226355   6.103   3.773   1.315  0.3018  0.7254 -0.0622
 1647TIP3    H126356   6.162   3.780   1.390  1.6317 -2.0601 -0.7114
 1647TIP3    H226357   6.087   3.864   1.289  3.0986  1.6772  1.0794
 1648TIP3   OH226358   0.212   3.542  11.166 -0.1553 -0.8607 -0.1448
 1648TIP3    H126359   0.283   3.478  11.162  0.4778 -0.1218 -1.1052
 1648TIP3    H226360   0.133   3.489  11.178  0.5773 -1.6626  1.5819
 1649TIP3   OH226361   0.106   4.519   5.349 -0.2618  0.1418 -0.2632
 1649TIP3    H126362   0.156   4.441   5.323 -1.0497 -0.2999 -0.4739
 1649TIP3    H226363   0.074   4.498   5.437  0.2903  0.6101  0.0570
 1650TIP3   OH226364   5.233   1.812  16.055 -1.1176 -0.2201  0.3766
 1650TIP3    H126365   5.259   1.902  16.036 -1.4354  0.0837  1.3575
 1650TIP3    H226366   5.149   1.802  16.010 -0.4794 -0.4490 -0.8025
 1651TIP3   OH226367   6.565   0.406   2.368  0.6741 -0.3855 -0.0307
 1651TIP3    H126368   6.546   0.453   2.286 -0.7362  0.2086  0.6068
 1651TIP3    H226369   6.501   0.335   2.370 -0.3460  0.5128  1.2576
 1652TIP3   OH226370   3.489   0.548   3.986  0.4557  0.1864  0.1262
 1652TIP3    H126371   3.429   0.495   4.037  1.8612 -2.2585 -0.5699
 1652TIP3    H226372   3.440   0.571   3.907 -0.3126  0.2754  0.6211
 1653TIP3   OH226373   5.317   1.482   0.015 -0.3980 -0.3838  0.2202
 1653TIP3    H126374   5.403   1.449  -0.009 -1.1445 -1.3349 -1.3073
 1653TIP3    H226375   5.296   1.545  -0.054 -2.0395 -2.2029 -1.0735
 1654TIP3   OH226376   3.828   5.446   4.154 -0.0959  0.3342  0.5036
 1654TIP3    H126377   3.880   5.435   4.234 -0.7494 -0.5137  0.8124
 1654TIP3    H226378   3.763   5.376   4.156 -0.9537  1.0826 -0.1289
 1655TIP3   OH226379   2.697   2.824  12.011  0.1448 -0.1009  0.5097
 1655TIP3    H126380   2.628   2.858  12.068 -0.1710 -0.3406  0.2678
 1655TIP3    H226381   2.759   2.897  12.004  0.2772 -0.1288  1.3028
 1656TIP3   OH226382   5.080   4.418   2.174  0.5038  0.4407  0.6899
 1656TIP3    H126383   5.118   4.435   2.088  1.7961 -0.9568  0.9523
 1656TIP3    H226384   5.042   4.502   2.200 -1.5480  0.4861 -1.9750
 1657TIP3   OH226385   0.397   4.010   1.720 -0.1141 -0.0153  0.1346
 1657TIP3    H126386   0.422   4.103   1.728 -0.4922  0.0092  1.2887
 1657TIP3    H226387   0.303   4.009   1.740 -0.0657 -0.6654  0.3463
 1658TIP3   OH226388   0.322   5.314  11.721 -0.1666 -0.2248  0.0965
 1658TIP3    H126389   0.256   5.291  11.786 -1.6415  1.1897 -0.7936
 1658TIP3    H226390   0.344   5.231  11.678 -2.7093 -0.5583 -0.7407
 1659TIP3   OH226391   0.248   4.062   2.727 -0.2159  0.5008 -0.4550
 1659TIP3    H126392   0.242   4.157   2.738 -1.3833  0.7028 -2.4134
 1659TIP3    H226393   0.157   4.032   2.727  0.1406 -0.6847  0.4470
 1660TIP3   OH226394   0.632   2.163   0.377  0.0437 -0.3375 -0.9074
 1660TIP3    H126395   0.625   2.109   0.298  0.8819 -1.8313 -0.0068
 1660TIP3    H226396   0.651   2.101   0.447 -0.7871  0.9366  0.5116
 1661TIP3   OH226397   3.248   4.233   0.343  0.2498 -0.1123 -0.0132
 1661TIP3    H126398   3.246   4.248   0.437  0.8812 -0.6955  0.1049
 1661TIP3    H226399   3.340   4.243   0.319  0.4536 -2.0050 -0.2001
 1662TIP3   OH226400   0.506   4.862  14.936  0.4292  0.3153  0.3618
 1662TIP3    H126401   0.586   4.816  14.959  0.4033  0.5261  0.8683
 1662TIP3    H226402   0.517   4.884  14.843  0.4483 -0.6929  0.1049
 1663TIP3   OH226403   3.570   5.558   3.932  0.0671  0.4379  0.1103
 1663TIP3    H126404   3.635   5.592   3.993  0.3727 -0.8723  0.5537
 1663TIP3    H226405   3.488   5.559   3.981 -0.9213  4.4417 -1.2174
 1664TIP3   OH226406   4.964   3.750  17.427  0.0794  0.0853  0.0922
 1664TIP3    H126407   4.997   3.661  17.416 -0.4478  0.0509 -1.3902
 1664TIP3    H226408   4.879   3.739  17.469 -0.0844 -0.1262 -0.2936
 1665TIP3   OH226409   1.666   0.326   1.646  0.3958  0.0444 -0.6109
 1665TIP3    H126410   1.742   0.268   1.638  1.1859  1.0838 -0.9137
 1665TIP3    H226411   1.618   0.315   1.563 -0.4773 -1.5061  0.0497
 1666TIP3   OH226412   1.296   4.915   2.227 -0.1130  0.5229 -0.0193
 1666TIP3    H126413   1.263   5.004   2.240  0.2435  0.7628 -0.6896
 1666TIP3    H226414   1.228   4.872   2.173 -0.1732  0.4619  0.1049
 1667TIP3   OH226415   4.915   4.382   0.004  0.6762 -0.5021  0.0769
 1667TIP3    H126416   4.982   4.424  -0.049  0.1543  2.4555  1.5564
 1667TIP3    H226417   4.872   4.320  -0.055  2.2972  0.1738 -1.9042
 1668TIP3   OH226418   6.364   4.628  14.313 -0.7617 -0.4825 -0.0645
 1668TIP3    H126419   6.359   4.719  14.343 -1.4849 -0.4183 -0.3713
 1668TIP3    H226420   6.383   4.635  14.219 -1.1736 -0.6465 -0.1576
 1669TIP3   OH226421   0.283   5.671   2.020 -0.1382 -0.1050  0.0062
 1669TIP3    H126422   0.334   5.602   2.062 -1.2077 -2.4544 -2.2337
 1669TIP3    H226423   0.330   5.690   1.938 -1.1224  0.0582 -0.5417
 1670TIP3   OH226424   1.494   4.340   1.225  0.0324  0.0364  0.3406
 1670TIP3    H126425   1.433   4.371   1.292 -0.7560 -2.7137  1.0106
 1670TIP3    H226426   1.475   4.247   1.216  0.1450  0.2350 -3.7327
 1671TIP3   OH226427   1.152   6.651  15.337  0.4072  0.6869  0.1309
 1671TIP3    H126428   1.063   6.686  15.334  0.3603  0.6088  0.6343
 1671TIP3    H226429   1.208   6.726  15.315  0.2643  0.9138  0.5300
 1672TIP3   OH226430   6.175   4.489  14.570  0.0253  0.0944  0.1470
 1672TIP3    H126431   6.254   4.527  14.608  0.3649 -0.7066  0.2479
 1672TIP3    H226432   6.114   4.480  14.643 -0.1875  0.7577  0.0597
 1673TIP3   OH226433   6.654   1.068   5.175 -0.1590 -0.1098  0.4741
 1673TIP3    H126434   6.715   1.002   5.206 -0.9072  0.1001  2.5348
 1673TIP3    H226435   6.568   1.037   5.202 -0.5682  1.4813  1.1443
 1674TIP3   OH226436   5.244   2.205  13.851 -0.0709 -0.1378 -0.2171
 1674TIP3    H126437   5.171   2.157  13.813 -1.0049  0.2740  0.9908
 1674TIP3    H226438   5.274   2.263  13.781 -0.4270 -0.8241 -0.9499
 1675TIP3   OH226439   1.189   1.938   4.398  0.1086  0.4843 -0.2818
 1675TIP3    H126440   1.100   1.967   4.414 -0.0266 -0.6300  1.2686
 1675TIP3    H226441   1.202   1.950   4.304 -1.6231  0.7949 -0.5166
 1676TIP3   OH226442   6.593   4.682  13.746 -0.3400  0.6769 -0.0147
 1676TIP3    H126443   6.550   4.754  13.701 -2.1372  0.3048  1.0040
 1676TIP3    H226444   6.544   4.671  13.827  1.0062 -0.5379  0.6934
 1677TIP3   OH226445   2.767   4.047   3.845  0.4806  0.0823 -0.0547
 1677TIP3    H126446   2.853   4.005   3.855  0.4584 -0.2279 -1.0789
 1677TIP3    H226447   2.782   4.138   3.873  0.3182 -0.7391  3.0372
 1678TIP3   OH226448   0.131   1.575  12.931 -0.4554  0.4454 -0.2748
 1678TIP3    H126449   0.128   1.581  12.836 -0.8314  1.7235 -0.2010
 1678TIP3    H226450   0.167   1.488  12.949  0.2634  0.4543 -1.5805
 1679TIP3   OH226451   0.876   1.894  15.746 -0.0372  0.4546  0.0528
 1679TIP3    H126452   0.911   1.978  15.715  2.0142 -0.1300  0.5962
 1679TIP3    H226453   0.913   1.829  15.687  1.0528 -0.3356  1.5415
 1680TIP3   OH226454   5.282   3.835   3.166 -0.0367  0.0289  0.6576
 1680TIP3    H126455   5.274   3.904   3.099  1.0270 -1.1697 -0.7895
 1680TIP3    H226456   5.309   3.882   3.245  0.0199  1.3592 -0.1139
 1681TIP3   OH226457   1.160   3.619  12.381  0.1035 -0.2098  0.1864
 1681TIP3    H126458   1.175   3.688  12.316 -1.4202  0.0656  0.1044
 1681TIP3    H226459   1.241   3.567  12.379  1.5332  1.8515  0.6473
 1682TIP3   OH226460   6.510   5.621   2.869 -0.8359  0.4678  0.3263
 1682TIP3    H126461   6.439   5.558   2.867 -0.8411  0.4597  0.6617
 1682TIP3    H226462   6.551   5.615   2.783 -2.6380  2.1018 -0.7036
 1683TIP3   OH226463   4.053   4.455  16.188 -0.2971  0.1457 -0.3298
 1683TIP3    H126464   4.112   4.384  16.164 -1.8723 -1.1032 -0.7126
 1683TIP3    H226465   4.036   4.500  16.105  3.1734  3.1143  0.3340
 1684TIP3   OH226466   1.816   1.066  14.902 -0.7874  0.1797 -0.1837
 1684TIP3    H126467   1.900   1.088  14.943  0.1250 -3.8143  0.4982
 1684TIP3    H226468   1.816   1.114  14.819  1.8654  0.8170  0.0967
 1685TIP3   OH226469   4.483   3.067  11.509  0.3605 -0.4779 -0.6784
 1685TIP3    H126470   4.546   3.051  11.580  0.2652 -0.2766 -0.5503
 1685TIP3    H226471   4.456   2.979  11.482 -1.2839 -0.5352  1.0169
 1686TIP3   OH226472   5.240   3.357   3.152 -0.3984  0.1653 -0.5243
 1686TIP3    H126473   5.300   3.283   3.151 -0.0360  0.4497 -0.0918
 1686TIP3    H226474   5.154   3.319   3.170 -0.5104 -0.3496 -1.9644
 1687TIP3   OH226475   3.877   5.457   0.971  0.2265  0.5465 -0.2134
 1687TIP3    H126476   3.856   5.497   0.887  0.8367  0.5689 -0.3575
 1687TIP3    H226477   3.811   5.492   1.031 -0.0991  0.6716 -0.6391
 1688TIP3   OH226478   4.334   4.846  15.866  0.1976  0.7212  1.0787
 1688TIP3    H126479   4.303   4.770  15.915  0.6060 -0.4158 -0.3497
 1688TIP3    H226480   4.427   4.829  15.852  0.2724  1.4345  0.6323
 1689TIP3   OH226481   3.292   1.930  14.782 -0.5524 -0.5574 -0.8013
 1689TIP3    H126482   3.292   1.836  14.795 -0.7861 -0.7674 -2.1606
 1689TIP3    H226483   3.330   1.942  14.695  0.5962  0.6876 -0.1597
 1690TIP3   OH226484   3.427   2.934  13.205 -0.2001  0.1369 -0.3561
 1690TIP3    H126485   3.491   3.005  13.201 -1.1107  1.0143  0.1902
 1690TIP3    H226486   3.401   2.931  13.297 -1.6675  0.4546 -0.7397
 1691TIP3   OH226487   1.613   1.606   3.213 -0.1643  0.5996 -0.2172
 1691TIP3    H126488   1.657   1.673   3.160  1.0433  0.4083  0.5023
 1691TIP3    H226489   1.675   1.533   3.215 -1.3614 -0.4582 -0.7814
 1692TIP3   OH226490   1.789   4.203   4.539 -0.1349  0.5060  0.4427
 1692TIP3    H126491   1.779   4.150   4.461 -0.1719  0.4755  0.4678
 1692TIP3    H226492   1.712   4.182   4.593 -0.2803  0.7744  0.3402
 1693TIP3   OH226493   2.518   3.250   4.994 -0.5098  0.4999  0.0407
 1693TIP3    H126494   2.519   3.258   4.899 -0.3379 -0.0319 -0.0068
 1693TIP3    H226495   2.427   3.233   5.016 -0.6303  1.1099  0.0149
 1694TIP3   OH226496   2.401   1.795   5.763 -0.4290  0.2036 -0.3659
 1694TIP3    H126497   2.369   1.879   5.730  2.5008  2.5482  2.1170
 1694TIP3    H226498   2.369   1.790   5.853  0.2796 -0.8104 -0.1464
 1695TIP3   OH226499   5.822   3.828   3.894  0.5303 -0.1847  0.0188
 1695TIP3    H126500   5.826   3.907   3.840 -0.3231  1.6524  2.4545
 1695TIP3    H226501   5.872   3.850   3.973  0.6220 -2.2677  0.6150
 1696TIP3   OH226502   1.904   0.408  16.196 -0.2673 -0.3620  0.0129
 1696TIP3    H126503   1.957   0.399  16.117  2.4678  1.6552  1.4447
 1696TIP3    H226504   1.869   0.497  16.192  1.0219  0.2695  1.6220
 1697TIP3   OH226505   6.078   2.617   0.345  0.0752 -0.5459 -0.7487
 1697TIP3    H126506   6.150   2.614   0.409  0.3247 -4.0052 -0.9588
 1697TIP3    H226507   6.075   2.708   0.316  0.6794  0.9594  3.2988
 1698TIP3   OH226508   3.075   5.772  14.958 -0.0069  0.2123  0.4319
 1698TIP3    H126509   3.170   5.778  14.960  0.0147  0.6810 -0.8524
 1698TIP3    H226510   3.045   5.851  15.003  0.2465  1.2603 -1.1572
 1699TIP3   OH226511   6.564   4.686  17.166  0.3339  0.4532  0.3630
 1699TIP3    H126512   6.501   4.749  17.131  0.3347  0.2381 -0.0332
 1699TIP3    H226513   6.620   4.664  17.092  2.0383  1.9863  1.1126
 1700TIP3   OH226514   3.334   1.957   0.716 -0.0120  0.1713  0.0494
 1700TIP3    H126515   3.284   1.876   0.705  1.5896 -0.9162  0.4848
 1700TIP3    H226516   3.425   1.933   0.697  0.2053  2.4440 -2.2875
 1701TIP3   OH226517   1.560   3.156   3.273  0.0322  0.3682 -0.0861
 1701TIP3    H126518   1.464   3.150   3.268 -0.3452 -0.5668  4.2999
 1701TIP3    H226519   1.576   3.232   3.328  2.0805  1.9568 -2.6440
 1702TIP3   OH226520   0.102   2.052  15.314 -0.1236 -0.2109 -0.4165
 1702TIP3    H126521   0.058   2.076  15.396 -1.1168  1.8031 -1.4600
 1702TIP3    H226522   0.031   2.041  15.252  0.6702 -0.8184 -1.2371
 1703TIP3   OH226523   1.492   3.337  11.619  0.0250  0.0969  0.4106
 1703TIP3    H126524   1.520   3.328  11.528  1.0751 -3.1626  0.9223
 1703TIP3    H226525   1.573   3.342  11.669 -0.4119 -1.4384  1.3528
 1704TIP3   OH226526   3.146   0.019  14.042  0.2103  0.1115 -0.1895
 1704TIP3    H126527   3.139   0.054  14.130 -1.3895 -2.2621  0.7434
 1704TIP3    H226528   3.069   0.051  13.996 -2.2292 -3.1946  1.1938
 1705TIP3   OH226529   5.301   1.335   3.794 -0.2760 -0.0707 -0.0904
 1705TIP3    H126530   5.306   1.394   3.718  1.8450  0.8037  0.6405
 1705TIP3    H226531   5.211   1.303   3.794 -1.8020  3.6581 -0.2123
 1706TIP3   OH226532   3.432   3.102   5.834  0.4280  0.1712  0.1174
 1706TIP3    H126533   3.499   3.086   5.899 -1.5443  1.4994  2.6652
 1706TIP3    H226534   3.371   3.029   5.843 -1.0464  1.4994  1.4885
 1707TIP3   OH226535   1.754   0.281   0.200  0.4930 -0.3027  0.4294
 1707TIP3    H126536   1.684   0.221   0.225 -0.4631  1.1318  1.3470
 1707TIP3    H226537   1.732   0.307   0.110 -0.5123  0.5668  0.9004
 1708TIP3   OH226538   0.009   1.114   0.269  0.1809 -0.6914  0.3731
 1708TIP3    H126539   0.105   1.115   0.268  0.1937  0.4105 -0.8839
 1708TIP3    H226540  -0.015   1.180   0.334  0.2701 -0.9678  0.6892
 1709TIP3   OH226541   1.918   3.907  13.668 -0.0687  0.2064  0.2513
 1709TIP3    H126542   1.918   3.963  13.591  0.9428  2.1679  1.5870
 1709TIP3    H226543   1.864   3.955  13.732 -1.0660 -1.4721  0.7256
 1710TIP3   OH226544   6.208   4.093  16.169 -0.0692 -0.1299 -0.4939
 1710TIP3    H126545   6.222   4.183  16.140  0.1784 -0.5303 -1.6331
 1710TIP3    H226546   6.290   4.069  16.211 -0.8373  0.8660  1.7636
 1711TIP3   OH226547   6.550   3.708   4.645 -0.2563 -0.4818  0.2026
 1711TIP3    H126548   6.458   3.715   4.670  0.1713  0.0222  1.7751
 1711TIP3    H226549   6.548   3.672   4.557 -1.9740 -0.0349  0.0106
 1712TIP3   OH226550   6.541   2.264  10.704 -0.0245  0.1325 -0.4629
 1712TIP3    H126551   6.628   2.225  10.702  0.0235  0.2288 -0.2909
 1712TIP3    H226552   6.496   2.227  10.628 -0.3862 -1.2040  0.3789
 1713TIP3   OH226553   3.662   5.817  12.815  0.6074  0.0653 -0.1806
 1713TIP3    H126554   3.608   5.784  12.744  0.2772  1.6403 -0.7111
 1713TIP3    H226555   3.617   5.896  12.845  2.1081  0.9057 -0.0092
 1714TIP3   OH226556   2.804   4.075   2.222  0.2691  0.1478 -0.3578
 1714TIP3    H126557   2.872   4.037   2.278  2.2715  3.8168  0.0418
 1714TIP3    H226558   2.759   4.137   2.279 -0.7908  0.6186 -1.6659
 1715TIP3   OH226559   1.544   0.690  15.914  0.2184  0.1971  0.2544
 1715TIP3    H126560   1.469   0.690  15.855 -0.2052  1.3274  0.7649
 1715TIP3    H226561   1.506   0.694  16.002  0.8695  0.7913  0.5255
 1716TIP3   OH226562   5.068   3.121  12.191 -0.3636  0.4328  0.3141
 1716TIP3    H126563   4.973   3.117  12.176 -0.7518  0.6945  2.3118
 1716TIP3    H226564   5.088   3.042  12.241  0.2104  1.0233  1.0437
 1717TIP3   OH226565   6.424   2.649   3.179  0.7936  0.8522  0.4812
 1717TIP3    H126566   6.459   2.632   3.266  1.6538  0.3337  0.0514
 1717TIP3    H226567   6.367   2.725   3.190  0.6940  0.6373  1.5371
 1718TIP3   OH226568   3.492   2.230   1.905 -0.4121  0.4946 -0.3041
 1718TIP3    H126569   3.533   2.259   1.823 -1.3723  2.0886 -0.2525
 1718TIP3    H226570   3.413   2.184   1.877 -1.0570  1.5640 -0.2720
 1719TIP3   OH226571   4.761   5.085  15.666 -0.3435 -0.0294 -0.4672
 1719TIP3    H126572   4.842   5.060  15.620  0.3708  0.0927  0.6969
 1719TIP3    H226573   4.718   5.002  15.685 -0.7221 -0.0791 -1.4500
 1720TIP3   OH226574   5.053   4.838   4.419 -0.2526  0.8562  0.0252
 1720TIP3    H126575   4.978   4.879   4.463 -0.4567  2.0211 -1.3048
 1720TIP3    H226576   5.030   4.746   4.413 -1.2165  1.0628  0.3636
 1721TIP3   OH226577   6.104   5.897  13.099 -0.2412  0.4236 -0.1143
 1721TIP3    H126578   6.016   5.916  13.067 -0.3149 -1.6494 -1.2697
 1721TIP3    H226579   6.144   5.984  13.110 -2.5001  1.4509  0.8226
 1722TIP3   OH226580   5.004   3.881  12.477 -0.0083 -0.2195  0.0562
 1722TIP3    H126581   4.934   3.818  12.493 -0.8059 -0.0444 -2.3757
 1722TIP3    H226582   5.075   3.829  12.439  0.7184 -0.1589  1.2456
 1723TIP3   OH226583   1.806   0.066  14.781 -0.7079 -0.2382 -0.0056
 1723TIP3    H126584   1.813   0.022  14.696  1.3858 -0.4530  0.2237
 1723TIP3    H226585   1.737   0.131  14.768 -0.1765  0.0057 -2.0015
 1724TIP3   OH226586   0.231   4.798  11.861  0.3810  0.3173 -0.0778
 1724TIP3    H126587   0.185   4.881  11.874  0.4663  0.3345  0.1039
 1724TIP3    H226588   0.171   4.732  11.896  0.8356  0.4088  0.8800
 1725TIP3   OH226589   5.456   4.406  15.986 -1.0137 -0.1370  0.3551
 1725TIP3    H126590   5.401   4.474  15.948 -2.5836 -0.9889  1.0055
 1725TIP3    H226591   5.538   4.410  15.936 -2.3430 -0.0534 -1.9214
 1726TIP3   OH226592   4.409   1.185   1.626  0.0958 -0.2227 -0.1752
 1726TIP3    H126593   4.359   1.122   1.677 -1.5585 -0.9226 -2.5164
 1726TIP3    H226594   4.344   1.238   1.580  1.4578  0.1319 -1.8336
 1727TIP3   OH226595   2.988   6.168   0.511  0.3235  1.1020  0.2019
 1727TIP3    H126596   2.928   6.109   0.555 -1.2828  0.3886 -2.6899
 1727TIP3    H226597   3.066   6.170   0.566 -1.4468  0.2195  2.8843
 1728TIP3   OH226598   4.511   5.020  17.363 -0.1774 -0.4219 -0.0692
 1728TIP3    H126599   4.465   5.100  17.389 -2.4285 -1.3911 -0.7720
 1728TIP3    H226600   4.469   4.951  17.414  2.6932 -1.0801  1.6245
 1729TIP3   OH226601   2.808   5.565  13.898  0.2282  0.5066 -0.0081
 1729TIP3    H126602   2.902   5.571  13.914  0.3972  3.0994 -1.4686
 1729TIP3    H226603   2.775   5.509  13.968  2.9749 -1.4296 -0.0963
 1730TIP3   OH226604   4.314   4.338  14.247 -0.1275 -0.4802  0.1241
 1730TIP3    H126605   4.319   4.380  14.161  0.1011 -1.5568 -0.4129
 1730TIP3    H226606   4.299   4.410  14.308 -0.5776  0.2821 -0.8447
 1731TIP3   OH226607   4.271   4.645  14.900 -0.4710 -0.0880  0.5387
 1731TIP3    H126608   4.323   4.587  14.845  1.0903  0.2168  1.6287
 1731TIP3    H226609   4.252   4.721  14.845  0.2285 -0.2191  0.1099
 1732TIP3   OH226610   1.624   2.477   5.093 -0.1864 -0.5432 -0.0737
 1732TIP3    H126611   1.668   2.473   5.008  0.6594  2.5370  0.0841
 1732TIP3    H226612   1.537   2.439   5.077 -0.5852  1.2295 -2.7360
 1733TIP3   OH226613   0.319   6.281  15.560 -0.2812 -0.0277 -0.5583
 1733TIP3    H126614   0.252   6.286  15.492 -0.5383 -1.1909 -0.4119
 1733TIP3    H226615   0.280   6.324  15.636 -0.7880 -0.5228 -0.5345
 1734TIP3   OH226616   2.339   5.707   2.376  0.2232 -0.0335 -0.4864
 1734TIP3    H126617   2.379   5.793   2.379  0.3364 -0.0930 -0.2887
 1734TIP3    H226618   2.301   5.701   2.288 -1.7805  1.1270  0.2130
 1735TIP3   OH226619   3.811   4.129   0.557 -0.2737 -0.0985  0.5145
 1735TIP3    H126620   3.777   4.197   0.616 -0.4472  0.8467 -0.6460
 1735TIP3    H226621   3.883   4.089   0.607 -1.7514 -0.7948  2.2160
 1736TIP3   OH226622   1.402   5.915  15.168  0.5469  0.1355  0.6866
 1736TIP3    H126623   1.319   5.870  15.188 -1.3691  2.4781 -1.3977
 1736TIP3    H226624   1.460   5.845  15.138 -1.8597 -1.2156 -1.1609
 1737TIP3   OH226625   0.468   6.023  12.157  0.1383 -0.3003 -0.7719
 1737TIP3    H126626   0.470   6.013  12.062  1.5225  1.0725 -0.9240
 1737TIP3    H226627   0.558   6.046  12.181 -0.5243  0.9427  0.6785
 1738TIP3   OH226628   2.802   4.951  17.209  0.3228  0.2263 -0.6742
 1738TIP3    H126629   2.760   5.020  17.261  0.1479 -0.5520  0.2466
 1738TIP3    H226630   2.803   4.985  17.120 -0.9434  0.8913 -0.4585
 1739TIP3   OH226631   2.796   4.461  17.070  0.2895  0.8640  0.2990
 1739TIP3    H126632   2.768   4.553  17.071  1.2531  1.1780 -0.2303
 1739TIP3    H226633   2.818   4.444  16.978  2.6309  0.9002  0.7999
 1740TIP3   OH226634   1.895   3.143  11.602  0.0972  0.7543 -0.0673
 1740TIP3    H126635   1.981   3.141  11.560  0.2111 -0.5526  0.1825
 1740TIP3    H226636   1.908   3.195  11.682  0.5017  1.0742 -0.3404
 1741TIP3   OH226637   5.682   6.254   0.730  0.0275 -0.1579  0.0060
 1741TIP3    H126638   5.647   6.343   0.730 -1.5246 -0.7161  1.0430
 1741TIP3    H226639   5.644   6.213   0.653 -1.1760 -0.5782  0.7919
 1742TIP3   OH226640   3.587   0.733   0.538 -0.1882 -0.6428 -0.1248
 1742TIP3    H126641   3.592   0.814   0.488 -0.5664 -0.7626 -0.3571
 1742TIP3    H226642   3.662   0.681   0.507  0.3842 -0.1564  0.4313
 1743TIP3   OH226643   1.885   6.113  15.023  0.0493 -0.4324 -0.6088
 1743TIP3    H126644   1.954   6.048  15.039 -0.0763 -0.2463  0.8557
 1743TIP3    H226645   1.804   6.065  15.038 -0.0321  0.3246  1.9636
 1744TIP3   OH226646   2.417   5.602  11.622  0.2528  0.0426 -0.0040
 1744TIP3    H126647   2.507   5.574  11.611  1.1142  1.5819  2.3300
 1744TIP3    H226648   2.383   5.611  11.533  1.9968 -1.6581 -0.9108
 1745TIP3   OH226649   2.782   2.224  11.819 -0.0567 -0.4939  0.4246
 1745TIP3    H126650   2.812   2.264  11.738 -1.0454  1.0592  0.7802
 1745TIP3    H226651   2.838   2.148  11.831 -1.0744 -1.8865 -2.6726
 1746TIP3   OH226652   2.784   3.159   5.065 -0.0304 -0.2467  0.0101
 1746TIP3    H126653   2.700   3.196   5.093  0.3243 -0.4869  1.4814
 1746TIP3    H226654   2.838   3.236   5.046 -0.3071 -0.0718 -0.0850
 1747TIP3   OH226655   6.013   6.418  14.388  0.1106 -0.0653  0.1447
 1747TIP3    H126656   6.063   6.345  14.427  1.1900  0.7543  0.3538
 1747TIP3    H226657   6.081   6.479  14.359 -0.7838  0.8340 -0.0671
 1748TIP3   OH226658   2.801   3.288  11.646 -0.0302  0.3529  0.6963
 1748TIP3    H126659   2.756   3.211  11.612 -0.9779  0.5528  1.4504
 1748TIP3    H226660   2.884   3.291  11.597 -0.8400  0.0076 -0.7668
 1749TIP3   OH226661   2.991   2.370   5.039 -0.4469  0.0254 -0.1198
 1749TIP3    H126662   2.949   2.452   5.012 -2.6089 -0.7545  0.6445
 1749TIP3    H226663   2.943   2.302   4.992 -1.3094 -1.0268  2.1008
 1750TIP3   OH226664   1.766   4.043  11.225  0.4788 -0.0112  0.1283
 1750TIP3    H126665   1.810   4.105  11.283 -2.6410  1.8365  0.7625
 1750TIP3    H226666   1.749   4.093  11.145  3.4129 -2.0846 -2.0062
 1751TIP3   OH226667   3.036   5.536   4.189  0.5813  0.0958 -0.4109
 1751TIP3    H126668   2.993   5.528   4.104  0.7633 -0.2050 -0.4751
 1751TIP3    H226669   3.052   5.446   4.216  1.5257  0.2079 -0.5659
 1752TIP3   OH226670   1.965   3.173   1.097  0.2543  0.0160  0.4611
 1752TIP3    H126671   1.869   3.167   1.092  0.2654 -0.5057  0.7957
 1752TIP3    H226672   1.983   3.181   1.190  0.5681 -0.5244  0.4496
 1753TIP3   OH226673   4.121   4.220  13.853  0.1837 -0.0268 -0.2021
 1753TIP3    H126674   4.175   4.153  13.896 -0.8769 -0.0970  1.1091
 1753TIP3    H226675   4.036   4.211  13.895  0.1000  2.3797  0.2467
 1754TIP3   OH226676   0.085   6.432  14.051  0.0142 -0.1016 -0.0462
 1754TIP3    H126677  -0.009   6.449  14.059  0.0144  0.5900 -1.2020
 1754TIP3    H226678   0.114   6.492  13.982  1.1944 -0.7106 -0.1081
 1755TIP3   OH226679   6.333   5.372   5.325 -0.6027 -0.0199 -0.5901
 1755TIP3    H126680   6.265   5.437   5.342  0.6297  0.7412  1.9455
 1755TIP3    H226681   6.289   5.288   5.336 -1.2792  0.4547  0.5678
 1756TIP3   OH226682   6.606   0.924  13.146 -0.1323 -0.1746  0.3732
 1756TIP3    H126683   6.686   0.891  13.188 -0.8609  0.5174  2.4102
 1756TIP3    H226684   6.635   0.998  13.093  0.5351  0.3548  1.4527
 1757TIP3   OH226685   4.702   4.147  14.001 -0.7563 -0.2588 -0.2673
 1757TIP3    H126686   4.654   4.220  13.963 -1.6743 -1.7280 -2.1064
 1757TIP3    H226687   4.688   4.154  14.095 -1.0711  1.7189 -0.4370
 1758TIP3   OH226688   1.044   4.243  12.729  0.3304 -0.5957 -0.0169
 1758TIP3    H126689   1.046   4.196  12.646 -3.6662 -0.4549 -0.3974
 1758TIP3    H226690   1.063   4.334  12.705  2.6763 -1.0682 -0.1380
 1759TIP3   OH226691   6.206   1.705  15.711 -0.3127 -0.3320 -0.3147
 1759TIP3    H126692   6.250   1.628  15.747 -1.6148 -1.5372 -1.1779
 1759TIP3    H226693   6.215   1.695  15.616 -2.2568 -0.5667 -0.5224
 1760TIP3   OH226694   5.151   5.782  11.827  0.1937 -0.3685  0.1610
 1760TIP3    H126695   5.058   5.767  11.842  0.2377  0.5302  1.5277
 1760TIP3    H226696   5.191   5.770  11.913  1.4247 -1.1723 -0.4861
 1761TIP3   OH226697   6.673   2.144   4.843 -0.6678 -0.2480 -0.5145
 1761TIP3    H126698   6.701   2.061   4.804 -1.2312 -1.3874  1.3767
 1761TIP3    H226699   6.602   2.174   4.786 -0.4772 -1.0831 -1.2151
 1762TIP3   OH226700   5.973   0.739  13.925  0.5109 -0.2655 -0.0567
 1762TIP3    H126701   6.002   0.694  14.004 -0.6336 -1.3797 -0.2288
 1762TIP3    H226702   5.986   0.674  13.855 -3.5025 -1.3992  0.0388
 1763TIP3   OH226703   5.779   6.486   3.946  0.4140  0.5692 -0.2747
 1763TIP3    H126704   5.687   6.466   3.967  0.2349  1.9834  0.4021
 1763TIP3    H226705   5.788   6.461   3.854 -0.7467  0.7230 -0.4488
 1764TIP3   OH226706   3.794   5.338  14.439 -0.0795  0.1768  0.3683
 1764TIP3    H126707   3.763   5.362  14.526 -0.7630 -0.9861  0.4579
 1764TIP3    H226708   3.827   5.249  14.449 -2.1861 -0.8330 -0.9943
 1765TIP3   OH226709   6.748   0.919   0.562 -0.2527 -0.0636 -0.2527
 1765TIP3    H126710   6.789   0.876   0.638  0.4130 -0.8462 -1.0285
 1765TIP3    H226711   6.758   1.012   0.579 -1.6523 -0.1730  1.4363
 1766TIP3   OH226712   0.053   3.329   4.809 -0.2587  0.6638  0.1380
 1766TIP3    H126713  -0.005   3.401   4.834 -0.0156  0.6510  0.7484
 1766TIP3    H226714   0.033   3.313   4.717 -0.3912  1.4410  0.0267
 1767TIP3   OH226715   3.783   6.041   6.123  0.0384 -0.1980  0.1355
 1767TIP3    H126716   3.826   5.956   6.134  0.5744  0.0777  0.1977
 1767TIP3    H226717   3.701   6.020   6.078  0.5627 -0.6592 -0.6482
 1768TIP3   OH226718   3.443   2.528  17.163 -0.5153 -0.4518 -0.5634
 1768TIP3    H126719   3.354   2.494  17.154 -1.1627  0.2302  2.2300
 1768TIP3    H226720   3.434   2.622  17.150 -0.8574  0.0494  2.5344
 1769TIP3   OH226721   2.839   1.859   0.449 -0.1652 -0.2329 -0.1664
 1769TIP3    H126722   2.921   1.904   0.469  0.7475 -1.6243 -0.6311
 1769TIP3    H226723   2.798   1.847   0.535  0.2479  0.2304  0.1024
 1770TIP3   OH226724   5.945   2.319   4.208  0.2644 -0.5954 -0.0990
 1770TIP3    H126725   6.000   2.271   4.269  1.2048  0.5547  0.0069
 1770TIP3    H226726   5.910   2.391   4.259  0.0473 -0.3411 -0.5955
 1771TIP3   OH226727   3.974   5.028  14.651 -0.2127  0.9604  0.1107
 1771TIP3    H126728   4.057   5.021  14.698 -0.5161 -0.2158  0.5191
 1771TIP3    H226729   3.907   5.010  14.718 -0.6726 -0.3112 -0.6406
 1772TIP3   OH226730   4.846   0.013  11.300  0.5343 -0.5431  0.0627
 1772TIP3    H126731   4.827  -0.024  11.386  1.8703 -1.1496  0.1288
 1772TIP3    H226732   4.837   0.108  11.313  0.4433 -0.6432  0.7970
 1773TIP3   OH226733   4.057   6.642   1.124 -0.3541  0.1643  0.6000
 1773TIP3    H126734   4.118   6.706   1.087 -0.9842 -0.0265 -0.8563
 1773TIP3    H226735   4.090   6.557   1.095 -0.4599 -0.0469  1.0966
 1774TIP3   OH226736   1.022   4.286  15.763  0.0095  0.3357 -0.0466
 1774TIP3    H126737   1.080   4.238  15.822 -0.6106 -1.6250 -0.9614
 1774TIP3    H226738   1.073   4.298  15.683  0.6390  2.4760  0.6085
 1775TIP3   OH226739   6.268   1.209  13.367 -0.5992  0.4920  0.0649
 1775TIP3    H126740   6.237   1.127  13.328  0.8260 -0.4452  0.8380
 1775TIP3    H226741   6.332   1.243  13.303 -2.1585  1.7486 -0.9064
 1776TIP3   OH226742   6.238   2.120   4.282 -0.3186  0.6161 -0.2237
 1776TIP3    H126743   6.219   2.095   4.372  2.0758 -2.2331 -0.3477
 1776TIP3    H226744   6.333   2.136   4.280 -0.5988  2.5712 -1.8869
 1777TIP3   OH226745   2.340   2.904  12.002 -0.2823  0.3560  0.6185
 1777TIP3    H126746   2.255   2.913  12.045  0.3174 -0.6774  2.1070
 1777TIP3    H226747   2.401   2.948  12.060  0.4302 -0.3638  0.4293
 1778TIP3   OH226748   0.341   1.969   4.948 -0.5049 -0.3830  0.2721
 1778TIP3    H126749   0.432   1.958   4.921 -0.2918 -0.8289  1.1366
 1778TIP3    H226750   0.291   1.953   4.869  0.1565 -0.5125 -0.1296
 1779TIP3   OH226751   5.089   6.066  14.541 -0.1496 -0.1789 -0.3975
 1779TIP3    H126752   5.181   6.058  14.564 -0.4272  0.4216  1.0096
 1779TIP3    H226753   5.089   6.072  14.445  1.1175 -1.9297 -0.5658
 1780TIP3   OH226754   2.604   3.399   2.346 -0.1319  0.2461 -0.6014
 1780TIP3    H126755   2.622   3.317   2.301  2.1162  1.3797 -1.9458
 1780TIP3    H226756   2.653   3.392   2.428 -0.7597 -0.1352 -0.2536
 1781TIP3   OH226757   3.496   6.629   3.259 -0.4396 -0.2890 -0.4483
 1781TIP3    H126758   3.475   6.704   3.313  1.4916 -0.0187  0.0175
 1781TIP3    H226759   3.513   6.665   3.172 -0.5509 -0.3129 -0.4792
 1782TIP3   OH226760   1.874   4.606  16.525  0.2548 -0.0263  0.6934
 1782TIP3    H126761   1.807   4.621  16.458  1.5910  0.9297 -0.4633
 1782TIP3    H226762   1.951   4.653  16.494  1.1128 -0.0790  2.6033
 1783TIP3   OH226763   0.738   3.369   0.153 -0.3135 -0.0452  0.6737
 1783TIP3    H126764   0.657   3.410   0.122  0.0249 -0.8862 -1.5019
 1783TIP3    H226765   0.710   3.311   0.223 -1.6449 -0.4228 -0.1310
 1784TIP3   OH226766   1.313   2.559   1.265  0.1037  0.0383 -0.0430
 1784TIP3    H126767   1.235   2.595   1.223 -0.7203 -0.8293  0.7040
 1784TIP3    H226768   1.324   2.472   1.225  0.6196  0.1098 -0.0632
 1785TIP3   OH226769   4.037   3.512   4.448  0.1567  0.2878 -0.6393
 1785TIP3    H126770   4.084   3.565   4.383  0.4873 -0.7509 -1.2641
 1785TIP3    H226771   4.040   3.423   4.414  1.5809 -0.5654  1.4642
 1786TIP3   OH226772   1.208   5.065   1.534  0.4941  0.2473  0.0115
 1786TIP3    H126773   1.271   5.130   1.564  2.5144 -0.5521 -2.2170
 1786TIP3    H226774   1.251   5.022   1.460 -1.4782 -2.4180  0.2749
 1787TIP3   OH226775   1.888   6.320   2.821 -0.1856 -0.1599 -0.1064
 1787TIP3    H126776   1.915   6.231   2.838  0.0371  0.3093  2.2605
 1787TIP3    H226777   1.805   6.311   2.775  0.5379 -1.5571 -1.2168
 1788TIP3   OH226778   3.617   3.788   1.616  0.0044 -0.3753  0.1806
 1788TIP3    H126779   3.705   3.749   1.617 -0.8593 -2.4581  1.0708
 1788TIP3    H226780   3.596   3.798   1.523  0.8733 -0.5882 -0.0473
 1789TIP3   OH226781   5.655   5.715  13.647 -0.4690  0.2301  0.0365
 1789TIP3    H126782   5.717   5.716  13.720 -1.6228  0.9313  1.0447
 1789TIP3    H226783   5.702   5.755  13.574  0.7556 -0.6276  0.3228
 1790TIP3   OH226784   3.391   5.646  11.999  0.2790  0.0177 -0.1558
 1790TIP3    H126785   3.301   5.673  12.019  0.2824 -0.0003 -0.1166
 1790TIP3    H226786   3.424   5.609  12.081  0.0713 -0.6536 -0.3676
 1791TIP3   OH226787   3.226   6.470  16.172  0.2200  0.0133 -0.3364
 1791TIP3    H126788   3.158   6.470  16.105 -0.5837 -1.0654  0.4409
 1791TIP3    H226789   3.211   6.550  16.222 -1.1546 -0.7073  0.4571
 1792TIP3   OH226790   0.967   2.632  15.433 -0.5188 -0.5722  0.0133
 1792TIP3    H126791   0.925   2.698  15.488  0.3611 -0.9137  1.1187
 1792TIP3    H226792   1.058   2.658  15.428 -0.0161 -1.9895  0.9703
 1793TIP3   OH226793   1.553   6.610   2.420  0.0972 -0.6044  0.3498
 1793TIP3    H126794   1.574   6.519   2.398  0.4238 -0.5057  0.2356
 1793TIP3    H226795   1.543   6.653   2.335 -1.3376 -0.8096  0.3954
 1794TIP3   OH226796   4.907   2.804  16.491 -0.4264  0.3516  0.2578
 1794TIP3    H126797   4.893   2.742  16.562 -0.3554 -0.7105 -0.6199
 1794TIP3    H226798   5.000   2.825  16.494 -0.2892 -0.2160  0.0741
 1795TIP3   OH226799   0.230   5.141  11.495 -0.6048 -0.1428  0.3023
 1795TIP3    H126800   0.147   5.094  11.484  0.4882 -2.5006  1.3840
 1795TIP3    H226801   0.226   5.213  11.432 -3.4456 -0.1738  0.3410
 1796TIP3   OH226802   1.919   1.083   1.065  0.0451  0.0323  0.3027
 1796TIP3    H126803   1.876   1.083   1.151 -2.1863  1.4241 -0.7197
 1796TIP3    H226804   2.000   1.133   1.079 -0.8794  1.3187  1.3815
 1797TIP3   OH226805   4.176   3.967  12.278  0.3833 -0.1765 -0.5847
 1797TIP3    H126806   4.155   4.051  12.237 -0.3416  0.6554  1.3511
 1797TIP3    H226807   4.092   3.922  12.284  0.9130 -1.5206 -2.5035
 1798TIP3   OH226808   1.892   1.687  16.855 -0.0645  0.0802 -0.8084
 1798TIP3    H126809   1.938   1.770  16.867  0.3114 -0.3067  0.5581
 1798TIP3    H226810   1.949   1.636  16.797  1.1948 -0.3315  0.7293
 1799TIP3   OH226811   0.450   4.703  16.171 -0.0482 -0.2984 -0.2058
 1799TIP3    H126812   0.422   4.745  16.253 -0.5707  0.5551 -0.8072
 1799TIP3    H226813   0.519   4.643  16.198  0.4398  0.6558  0.7494
 1800TIP3   OH226814   4.527   2.411  15.342 -0.0793  0.0628 -0.8856
 1800TIP3    H126815   4.569   2.443  15.422 -0.6467 -2.3035  0.4666
 1800TIP3    H226816   4.599   2.382  15.287  0.2443 -0.8673 -0.0080
 1801TIP3   OH226817   1.751   0.116   0.569  0.2024 -0.4658 -0.4378
 1801TIP3    H126818   1.728   0.197   0.614 -0.3297 -1.1428  0.5626
 1801TIP3    H226819   1.667   0.079   0.541  0.1515 -1.9389  1.4302
 1802TIP3   OH226820   5.754   4.624   6.106  0.3878 -0.6526 -0.4138
 1802TIP3    H126821   5.794   4.678   6.173 -0.6187 -0.0701 -0.2629
 1802TIP3    H226822   5.761   4.675   6.026  0.6736 -0.9005 -0.5466
 1803TIP3   OH226823   4.453   3.499  15.521 -0.3611  0.3806 -0.0315
 1803TIP3    H126824   4.531   3.512  15.576 -0.7882 -1.1492  0.9989
 1803TIP3    H226825   4.488   3.488  15.433  0.9925 -3.3943  0.7900
 1804TIP3   OH226826   4.182   2.394  12.126  0.1171 -0.0883  0.3267
 1804TIP3    H126827   4.183   2.430  12.038 -2.6368 -0.9857 -0.1718
 1804TIP3    H226828   4.108   2.437  12.169 -0.2213 -1.5422  1.2899
 1805TIP3   OH226829   4.715   3.539   5.233  0.0897 -0.4959 -0.1831
 1805TIP3    H126830   4.721   3.581   5.147 -0.5654  1.3541  0.6153
 1805TIP3    H226831   4.635   3.575   5.272  0.8767 -0.5504  1.5715
 1806TIP3   OH226832   5.275   4.084  10.498 -0.0264  0.0059  0.2779
 1806TIP3    H126833   5.187   4.054  10.475  0.1086 -1.4490  1.4480
 1806TIP3    H226834   5.269   4.179  10.499 -1.4834 -0.0612 -0.0647
 1807TIP3   OH226835   3.760   4.214   2.497 -0.1067 -0.3403  0.0874
 1807TIP3    H126836   3.795   4.158   2.566  0.9578 -0.1603 -0.2932
 1807TIP3    H226837   3.798   4.300   2.514 -0.2669 -0.1687 -0.4152
 1808TIP3   OH226838   2.146   0.310  11.805 -0.2939  0.3799  0.1264
 1808TIP3    H126839   2.212   0.377  11.820  2.5817 -2.4038  1.1079
 1808TIP3    H226840   2.174   0.265  11.726 -1.0532 -0.8033  0.4992
 1809TIP3   OH226841   5.100   5.083  14.054  0.3511  0.3858 -0.1722
 1809TIP3    H126842   5.120   5.001  14.011 -0.7275  0.4994 -0.9445
 1809TIP3    H226843   5.076   5.143  13.983 -0.0800  1.0012  0.4671
 1810TIP3   OH226844   0.484   1.921   0.878 -0.2625 -0.3454  0.1274
 1810TIP3    H126845   0.459   2.009   0.849  0.8841  0.0629  0.2941
 1810TIP3    H226846   0.556   1.936   0.939  0.1402 -1.4147 -0.0600
 1811TIP3   OH226847   3.625   0.726   5.841  0.2150 -0.3777  0.4229
 1811TIP3    H126848   3.635   0.820   5.824 -0.5218 -0.3228  0.2786
 1811TIP3    H226849   3.561   0.721   5.911  0.5395 -0.7617  0.6965
 1812TIP3   OH226850   0.650   1.680   2.453 -0.0333  0.4011  0.1510
 1812TIP3    H126851   0.674   1.634   2.533 -0.1369  2.7961  1.6446
 1812TIP3    H226852   0.570   1.636   2.423  0.0156 -0.5325  1.3444
 1813TIP3   OH226853   4.141   2.195  15.149 -0.5806  0.4231  0.3237
 1813TIP3    H126854   4.206   2.208  15.218 -0.1558  0.4916 -0.0847
 1813TIP3    H226855   4.058   2.185  15.195 -0.1642 -0.5028  0.8884
 1814TIP3   OH226856   0.535   0.124  14.780  0.0272  0.5015 -0.3154
 1814TIP3    H126857   0.472   0.127  14.852  1.8806 -0.1445  1.4421
 1814TIP3    H226858   0.618   0.102  14.822  1.2369  0.2529 -2.6597
 1815TIP3   OH226859   4.472   1.858   5.781  0.1488  0.1120 -0.3403
 1815TIP3    H126860   4.558   1.884   5.816  0.5480 -2.2900  0.7136
 1815TIP3    H226861   4.433   1.807   5.852 -1.1071 -0.8899 -1.7118
 1816TIP3   OH226862   5.515   5.504  16.966  0.2278  0.0076 -0.8505
 1816TIP3    H126863   5.579   5.502  17.037 -2.0668 -2.3916  1.3725
 1816TIP3    H226864   5.448   5.565  16.997 -0.5308 -0.6280 -1.2278
 1817TIP3   OH226865   2.472   3.772   0.525 -0.1032 -0.3580 -0.1356
 1817TIP3    H126866   2.504   3.829   0.456  3.7789 -0.6229  1.1836
 1817TIP3    H226867   2.376   3.778   0.520  0.0278  0.8775 -4.3508
 1818TIP3   OH226868   4.413   1.563   3.423  0.2180  0.0326 -0.4594
 1818TIP3    H126869   4.343   1.535   3.363 -0.2712 -0.5023  0.3355
 1818TIP3    H226870   4.441   1.648   3.389 -2.5657  1.5162  0.6039
 1819TIP3   OH226871   2.761   1.519   1.110 -0.0025 -0.3886  0.1267
 1819TIP3    H126872   2.694   1.585   1.097 -0.5114 -0.6869  1.1573
 1819TIP3    H226873   2.728   1.465   1.182  1.3893 -0.4722  0.7253
 1820TIP3   OH226874   3.886   6.239   5.046  0.1639  0.0396  0.4726
 1820TIP3    H126875   3.967   6.189   5.032  1.6308  1.8687  1.9102
 1820TIP3    H226876   3.873   6.287   4.964  1.1408  0.5229  0.5931
 1821TIP3   OH226877   5.713   5.370  14.410 -0.5375 -0.5702  0.0215
 1821TIP3    H126878   5.635   5.317  14.395 -0.1637 -0.6702 -1.7559
 1821TIP3    H226879   5.690   5.424  14.486 -1.6966 -1.7676  0.5664
 1822TIP3   OH226880   1.118   6.494   6.435 -0.0725 -0.1983 -0.3082
 1822TIP3    H126881   1.086   6.420   6.384  0.3146 -0.4823 -0.1480
 1822TIP3    H226882   1.043   6.522   6.488 -0.2706 -0.3578 -0.5070
 1823TIP3   OH226883   1.514   1.772  14.933  0.2973 -0.3655  0.4190
 1823TIP3    H126884   1.457   1.710  14.979  0.8234 -0.8442  0.4247
 1823TIP3    H226885   1.467   1.855  14.940 -1.9705 -1.2710 -2.2381
 1824TIP3   OH226886   0.654   4.826   3.792  0.1436  0.0766 -0.1937
 1824TIP3    H126887   0.680   4.737   3.813  1.2046  0.3925 -0.1238
 1824TIP3    H226888   0.559   4.826   3.800  0.2834  0.1202  4.6490
 1825TIP3   OH226889   0.792   4.269   2.073  0.0133  0.1198  0.3831
 1825TIP3    H126890   0.704   4.274   2.110 -1.0328 -1.5144 -1.7298
 1825TIP3    H226891   0.809   4.358   2.041 -1.6648  0.0362 -0.8564
 1826TIP3   OH226892   3.369   0.404   0.074 -0.4282 -0.1093  0.3098
 1826TIP3    H126893   3.394   0.374  -0.014 -0.4110  0.9305 -0.0580
 1826TIP3    H226894   3.438   0.467   0.097 -1.6473  1.3501  0.0960
 1827TIP3   OH226895   4.651   6.450  14.988  0.3996  0.2167  0.0911
 1827TIP3    H126896   4.723   6.393  14.964  0.1745  0.0941 -0.2955
 1827TIP3    H226897   4.689   6.538  14.986  1.1013  0.0115  1.9813
 1828TIP3   OH226898   3.692   0.023   0.790 -0.1820  0.1929  0.3846
 1828TIP3    H126899   3.675   0.113   0.818  2.2195  1.0353 -0.6257
 1828TIP3    H226900   3.776   0.001   0.830 -0.1470 -1.1476 -0.3660
 1829TIP3   OH226901   3.637   6.127   3.344  0.6204  0.3759 -0.4258
 1829TIP3    H126902   3.688   6.047   3.335  1.2448  0.6192  0.6417
 1829TIP3    H226903   3.554   6.109   3.301  1.6343  0.0117 -2.3386
 1830TIP3   OH226904   6.207   0.774  15.413  0.0649 -0.4071  0.4344
 1830TIP3    H126905   6.192   0.697  15.358  0.1476  0.2403 -0.5104
 1830TIP3    H226906   6.188   0.744  15.502 -2.0492 -0.9497 -0.1430
 1831TIP3   OH226907   5.428   2.766   4.861  0.0355 -0.2479 -0.3494
 1831TIP3    H126908   5.428   2.680   4.902  1.3267  0.1042  0.4503
 1831TIP3    H226909   5.396   2.750   4.772  1.6501 -1.8071 -0.7100
 1832TIP3   OH226910   3.366   6.193  17.236 -0.2870 -0.8168  0.2059
 1832TIP3    H126911   3.317   6.249  17.296 -0.5700  0.1800 -0.9108
 1832TIP3    H226912   3.299   6.149  17.184 -0.0361 -0.5334 -0.3700
 1833TIP3   OH226913   2.523   4.013  13.797  0.2366  0.0082  0.2613
 1833TIP3    H126914   2.603   4.009  13.745  0.0442 -0.1811 -0.0246
 1833TIP3    H226915   2.534   3.943  13.862  0.6939  0.5647  0.8001
 1834TIP3   OH226916   2.832   2.636  13.245 -0.0963 -0.3419 -0.7591
 1834TIP3    H126917   2.868   2.677  13.324  0.3068 -0.7443 -0.7322
 1834TIP3    H226918   2.737   2.645  13.255 -0.0755 -0.8519  0.0338
 1835TIP3   OH226919   6.195   5.811  14.240  0.0563 -0.3110 -0.0650
 1835TIP3    H126920   6.243   5.837  14.161  1.5357  0.9588  1.1859
 1835TIP3    H226921   6.129   5.878  14.252 -0.2710 -0.5887 -0.2970
 1836TIP3   OH226922   0.009   1.853  12.472 -0.4825  0.2806  0.1106
 1836TIP3    H126923  -0.064   1.791  12.464  0.5071 -0.8855 -0.2747
 1836TIP3    H226924   0.017   1.869  12.566  0.7074 -2.0574  0.4759
 1837TIP3   OH226925   3.693   3.190  14.690 -0.0547 -0.3220 -0.1039
 1837TIP3    H126926   3.656   3.173  14.777  0.8116 -0.0574  0.3339
 1837TIP3    H226927   3.703   3.285  14.686 -2.1063 -0.1088 -1.3703
 1838TIP3   OH226928   3.428   5.523  14.795  0.8402  0.2023  0.0688
 1838TIP3    H126929   3.482   5.487  14.866  0.7661 -0.1756 -0.0642
 1838TIP3    H226930   3.370   5.451  14.770  1.1046  0.2195 -0.6129
 1839TIP3   OH226931   5.626   6.446  15.521 -0.6841 -0.0146 -0.4039
 1839TIP3    H126932   5.655   6.355  15.528 -0.9492 -0.0636  0.1632
 1839TIP3    H226933   5.596   6.468  15.610 -0.3516  0.7195 -0.4678
 1840TIP3   OH226934   4.826   5.730   3.338 -0.1476  0.3225  0.0589
 1840TIP3    H126935   4.891   5.710   3.406 -0.8889  0.9779  0.9924
 1840TIP3    H226936   4.769   5.653   3.336  1.3150 -0.7912 -1.6235
 1841TIP3   OH226937   1.591   3.776  16.469  0.3335 -0.2789 -0.7579
 1841TIP3    H126938   1.561   3.829  16.395 -1.8349 -1.0066 -0.4864
 1841TIP3    H226939   1.634   3.838  16.527 -1.2146  1.0350 -0.9280
 1842TIP3   OH226940   2.726   1.697  15.358  0.3760  0.1117 -0.0717
 1842TIP3    H126941   2.820   1.682  15.348  0.9107  0.5121  3.0521
 1842TIP3    H226942   2.691   1.611  15.384  0.3774  0.4670  1.1828
 1843TIP3   OH226943   2.762   3.052  14.734  0.1769 -0.9213  0.4472
 1843TIP3    H126944   2.760   2.957  14.731  0.4114 -0.9058 -0.6313
 1843TIP3    H226945   2.855   3.075  14.722 -0.1436 -0.5334 -1.9306
 1844TIP3   OH226946   1.720   4.108   1.689  0.3108  0.3189 -0.1134
 1844TIP3    H126947   1.801   4.129   1.642  0.4162 -0.3757 -0.2486
 1844TIP3    H226948   1.730   4.016   1.713 -0.1349  0.4298  0.4885
 1845TIP3   OH226949   2.541   6.463   4.655  0.1419 -0.4072 -0.1582
 1845TIP3    H126950   2.569   6.495   4.569  1.2868 -1.3013 -0.1375
 1845TIP3    H226951   2.536   6.542   4.710  2.2993 -0.1476 -0.2722
 1846TIP3   OH226952   0.929   6.346   2.068  0.1629  0.4056  0.2481
 1846TIP3    H126953   1.013   6.316   2.104  1.0298  2.7313  0.3658
 1846TIP3    H226954   0.869   6.273   2.083  2.2204 -1.4937 -0.1832
 1847TIP3   OH226955   4.949   1.426  14.267  0.3773  0.2967 -0.3569
 1847TIP3    H126956   4.913   1.338  14.267 -0.6225  0.6840 -0.8549
 1847TIP3    H226957   4.952   1.451  14.359  1.5949 -0.6009 -0.1288
 1848TIP3   OH226958   0.972   0.992  11.324  0.2336 -0.2257 -0.1880
 1848TIP3    H126959   1.023   0.974  11.403 -0.0553 -1.4695 -0.2706
 1848TIP3    H226960   0.983   1.086  11.310  1.5500 -0.2570  0.4564
 1849TIP3   OH226961   4.447   4.215   0.987 -0.3350 -0.7307 -0.3871
 1849TIP3    H126962   4.355   4.203   1.008 -1.4137  2.6720 -2.5223
 1849TIP3    H226963   4.488   4.239   1.071 -1.8470 -0.0336  0.1743
 1850TIP3   OH226964   2.087   0.966   1.881 -0.5334  0.8059  0.5159
 1850TIP3    H126965   2.168   0.915   1.886 -0.4851  0.9255  0.9389
 1850TIP3    H226966   2.044   0.933   1.802 -0.4207  0.2300  0.6920
 1851TIP3   OH226967   4.854   2.654  11.962 -0.8997 -0.6584  0.5284
 1851TIP3    H126968   4.796   2.659  11.886 -1.6114 -1.8601  0.9649
 1851TIP3    H226969   4.797   2.629  12.035  0.0487 -1.2775  1.0931
 1852TIP3   OH226970   5.132   2.365  17.367 -0.7353  0.0581 -0.6506
 1852TIP3    H126971   5.071   2.343  17.296 -2.3698 -0.4246  0.8192
 1852TIP3    H226972   5.110   2.456  17.389 -0.2125  0.2170 -0.7847
 1853TIP3   OH226973   4.347   0.831   1.965 -0.5318 -0.5135  0.8626
 1853TIP3    H126974   4.384   0.778   2.035 -0.4459  0.1439  1.3118
 1853TIP3    H226975   4.366   0.781   1.885  2.0914  0.2058  0.9627
 1854TIP3   OH226976   6.522   6.006  10.738 -0.0470  0.3518 -0.7124
 1854TIP3    H126977   6.523   5.939  10.670  1.1217 -1.3480  0.8815
 1854TIP3    H226978   6.576   6.077  10.702  2.0056 -1.2291 -0.9396
 1855TIP3   OH226979   0.431   1.976   6.699 -0.0105 -0.3833  0.1170
 1855TIP3    H126980   0.517   1.935   6.703  0.2897  0.3024  0.7073
 1855TIP3    H226981   0.382   1.922   6.637  1.2785  0.0642 -1.3229
 1856TIP3   OH226982   0.324   2.810  17.181  0.0165  0.1923  0.3785
 1856TIP3    H126983   0.310   2.856  17.098 -1.2117  0.9688  0.9847
 1856TIP3    H226984   0.252   2.747  17.187 -0.1377  0.4195  1.0312
 1857TIP3   OH226985   3.385   2.436   1.295  0.1494 -0.6316 -0.3281
 1857TIP3    H126986   3.394   2.512   1.238  0.3783 -0.5535 -0.1871
 1857TIP3    H226987   3.446   2.372   1.260  0.6388 -0.4107  0.1142
 1858TIP3   OH226988   1.129   1.296   0.301 -0.1347  0.0727  0.0361
 1858TIP3    H126989   1.036   1.279   0.317 -0.1229 -0.1633 -0.1348
 1858TIP3    H226990   1.164   1.210   0.276 -0.1814  0.4575 -1.4032
 1859TIP3   OH226991   1.229   6.458   4.869  0.8887 -0.8672  0.2494
 1859TIP3    H126992   1.247   6.548   4.841  1.2960 -0.1304  2.6302
 1859TIP3    H226993   1.148   6.435   4.824 -0.6197  1.6447  1.4039
 1860TIP3   OH226994   0.122   3.519   4.450  0.6748 -0.0550 -0.8577
 1860TIP3    H126995   0.107   3.468   4.371 -0.0750  1.7850 -1.9623
 1860TIP3    H226996   0.124   3.454   4.520 -0.8079 -1.5488 -2.1130
 1861TIP3   OH226997   5.707   2.249   0.379  0.3910  0.3063  0.5785
 1861TIP3    H126998   5.771   2.283   0.317  1.3406 -1.8700  0.2940
 1861TIP3    H226999   5.757   2.191   0.437 -1.1719 -0.9326  0.7817
 1862TIP3   OH227000   0.917   6.581   1.015  0.0666  0.2877 -0.0128
 1862TIP3    H127001   0.865   6.658   1.038 -0.4032  0.1545 -0.5954
 1862TIP3    H227002   0.864   6.507   1.043  0.8856  0.1716  1.3043
 1863TIP3   OH227003   6.726   5.343  11.105  0.1220  0.3589 -0.3268
 1863TIP3    H127004   6.774   5.374  11.028 -0.4724  1.3261 -0.3241
 1863TIP3    H227005   6.694   5.256  11.079  3.6092 -1.3104  0.4438
 1864TIP3   OH227006   4.331   0.854  14.667 -0.2575 -0.4180  0.1131
 1864TIP3    H127007   4.254   0.892  14.626 -1.0890 -1.0442  1.0134
 1864TIP3    H227008   4.323   0.760  14.649  0.0416 -0.5386  0.5986
 1865TIP3   OH227009   6.620   0.248   5.709 -0.4810  0.0402  0.3257
 1865TIP3    H127010   6.673   0.230   5.786  0.0557  0.0844 -0.0332
 1865TIP3    H227011   6.553   0.310   5.740 -0.1118  0.2587  0.6903
 1866TIP3   OH227012   3.411   4.439   4.490 -0.0866  0.8561  0.2229
 1866TIP3    H127013   3.367   4.512   4.448 -2.3073  0.1643  1.1895
 1866TIP3    H227014   3.342   4.374   4.505  0.9459  0.2319  3.0422
 1867TIP3   OH227015   5.297   4.415  14.331 -0.0907 -0.3953 -0.1275
 1867TIP3    H127016   5.330   4.502  14.350 -2.6770  0.7133 -0.3051
 1867TIP3    H227017   5.375   4.364  14.307  1.5397  1.6966  0.4778
 1868TIP3   OH227018   6.214   2.972  14.856  0.0061 -0.4319 -0.5794
 1868TIP3    H127019   6.189   3.012  14.773 -0.6174  0.1042 -0.1502
 1868TIP3    H227020   6.245   3.046  14.910  2.0703 -0.9946 -0.8965
 1869TIP3   OH227021   3.871   1.460   6.391 -0.2312  0.2849 -1.1682
 1869TIP3    H127022   3.897   1.472   6.300 -2.8703  2.6197 -1.7384
 1869TIP3    H227023   3.822   1.378   6.391 -1.9089  1.2344 -2.3481
 1870TIP3   OH227024   2.560   6.718   4.789 -0.0401 -0.1272 -0.2217
 1870TIP3    H127025   2.527   6.691   4.874 -0.8629  1.8935  0.1662
 1870TIP3    H227026   2.612   6.797   4.807  0.4089 -0.0920 -1.5062
 1871TIP3   OH227027   4.363   1.392  13.165  0.2046 -0.3947  0.3000
 1871TIP3    H127028   4.351   1.430  13.078 -0.4236  0.4022  0.7110
 1871TIP3    H227029   4.277   1.356  13.187  0.4401 -0.8613  0.4756
 1872TIP3   OH227030   2.718   2.958   0.739  0.2955  0.4146  0.7984
 1872TIP3    H127031   2.719   3.012   0.819  1.3260  1.0563  0.3685
 1872TIP3    H227032   2.806   2.968   0.702  0.1818 -0.7593  0.1592
 1873TIP3   OH227033   5.705   4.221  13.590  0.7507 -0.4174  0.0251
 1873TIP3    H127034   5.679   4.301  13.544  3.6104 -0.7033 -2.3908
 1873TIP3    H227035   5.748   4.167  13.523  2.5142 -2.2205  2.4129
 1874TIP3   OH227036   6.230   2.908   5.607  0.3828 -0.5696 -0.1934
 1874TIP3    H127037   6.273   2.994   5.610 -1.1729  0.2205  0.2517
 1874TIP3    H227038   6.236   2.875   5.697 -0.4610 -0.1789  0.0139
 1875TIP3   OH227039   3.276   2.689   4.720 -0.6114  0.1253 -0.4525
 1875TIP3    H127040   3.222   2.610   4.724  2.9306 -2.4865  1.4928
 1875TIP3    H227041   3.269   2.728   4.807 -0.9832  1.0001 -0.8637
 1876TIP3   OH227042   2.245   0.609  16.186 -0.3550  0.3740 -0.3905
 1876TIP3    H127043   2.246   0.686  16.128  0.3559  1.9517  1.6005
 1876TIP3    H227044   2.171   0.625  16.245  0.5041  0.1363  0.7797
 1877TIP3   OH227045   2.785   6.541   6.067  0.6079  0.1785 -0.0937
 1877TIP3    H127046   2.734   6.535   6.148 -0.4568 -1.1638 -0.8213
 1877TIP3    H227047   2.848   6.611   6.084 -0.3287  0.7042  1.4781
 1878TIP3   OH227048   0.309   1.335   3.970  0.0115  0.1759 -0.1905
 1878TIP3    H127049   0.299   1.359   3.878 -0.6421 -2.0721 -0.7661
 1878TIP3    H227050   0.359   1.407   4.008 -0.5060  1.6039 -2.0830
 1879TIP3   OH227051   4.245   2.611   0.405 -0.1923 -0.4532  0.2425
 1879TIP3    H127052   4.181   2.681   0.393 -1.5255 -1.8000 -0.9629
 1879TIP3    H227053   4.202   2.534   0.369  0.9239 -2.0717  2.2123
 1880TIP3   OH227054   5.628   1.937  14.266  0.4947  0.2289  0.5621
 1880TIP3    H127055   5.719   1.921  14.241  0.7559  1.8264  0.3731
 1880TIP3    H227056   5.608   2.023  14.230 -0.9867  0.0686  0.9250
 1881TIP3   OH227057   1.460   2.882   1.089 -0.2458  0.2832  0.1528
 1881TIP3    H127058   1.368   2.911   1.088 -0.1723  0.6532  1.4769
 1881TIP3    H227059   1.490   2.903   1.177  1.0251 -0.1480 -0.1581
 1882TIP3   OH227060   1.752   0.428  11.246  0.0185 -0.0343 -0.0361
 1882TIP3    H127061   1.802   0.509  11.256 -0.9097  0.3498  1.8989
 1882TIP3    H227062   1.661   0.457  11.236 -0.2700 -0.8107  0.2805
 1883TIP3   OH227063   2.098   1.445  11.575 -0.3621 -0.1132 -0.4312
 1883TIP3    H127064   2.028   1.381  11.566 -0.8220  0.0845  1.4695
 1883TIP3    H227065   2.165   1.415  11.513 -1.7320 -0.7949 -1.6351
 1884TIP3   OH227066   4.185   1.440   1.042 -0.2466 -0.2000 -0.5257
 1884TIP3    H127067   4.189   1.445   1.137 -1.9037  0.0876 -0.4491
 1884TIP3    H227068   4.152   1.352   1.024 -0.2361 -0.1436 -0.8252
 1885TIP3   OH227069   2.124   0.216  15.794 -0.1348 -0.3401  0.0637
 1885TIP3    H127070   2.163   0.282  15.736  0.1136  0.1994  0.8272
 1885TIP3    H227071   2.069   0.163  15.737  1.6051 -1.0390 -1.0394
 1886TIP3   OH227072   6.258   3.056   3.633 -0.3647 -0.2909  0.0415
 1886TIP3    H127073   6.205   3.106   3.571  0.1477  0.7354  0.4079
 1886TIP3    H227074   6.206   2.977   3.650 -0.5893 -0.5205 -1.5410
 1887TIP3   OH227075   4.300   6.065  15.801 -0.2828 -0.2393  0.1062
 1887TIP3    H127076   4.229   6.128  15.810 -0.2432 -0.2157  0.2555
 1887TIP3    H227077   4.326   6.071  15.709  0.4533  0.7573  0.3646
 1888TIP3   OH227078   5.041   5.587  13.091  0.7037 -0.1263  0.2842
 1888TIP3    H127079   5.085   5.548  13.166  1.5669 -0.7513 -0.5284
 1888TIP3    H227080   4.957   5.541  13.085  0.9216 -0.5505  0.4607
 1889TIP3   OH227081   0.642   5.268   5.812 -0.1801 -0.2442  0.1252
 1889TIP3    H127082   0.639   5.351   5.764  1.0166  0.5071  1.2783
 1889TIP3    H227083   0.647   5.294   5.904  0.0261 -1.6079  0.5189
 1890TIP3   OH227084   1.335   2.863  12.713  0.2739  0.2371  0.7849
 1890TIP3    H127085   1.323   2.916  12.791 -0.6770  0.2490  0.6435
 1890TIP3    H227086   1.424   2.884  12.683 -0.4585  2.6997  0.0457
 1891TIP3   OH227087   5.173   3.557   0.676  0.6151 -0.4898  0.7482
 1891TIP3    H127088   5.178   3.554   0.772  1.3872  0.0246  0.7381
 1891TIP3    H227089   5.239   3.494   0.647  0.8979 -0.1113  0.5595
 1892TIP3   OH227090   0.191   0.285  17.404  0.1507 -0.4653  0.0438
 1892TIP3    H127091   0.225   0.302  17.492  0.9263  0.3707 -0.4007
 1892TIP3    H227092   0.176   0.371  17.367 -0.5770 -0.8146 -0.5068
 1893TIP3   OH227093   1.676   2.522  14.770 -0.8184  0.2561  0.0319
 1893TIP3    H127094   1.606   2.495  14.711  0.8369 -0.7476 -1.6060
 1893TIP3    H227095   1.692   2.446  14.825  0.0216 -0.1372 -0.7152
 1894TIP3   OH227096   3.141   0.386  13.069 -0.5526 -0.1980 -0.4423
 1894TIP3    H127097   3.088   0.430  13.136 -1.3702  0.9383 -1.7747
 1894TIP3    H227098   3.229   0.419  13.084 -0.8646  0.6409 -0.3973
 1895TIP3   OH227099   5.529   5.687  15.457  0.6414  0.1403 -0.0499
 1895TIP3    H127100   5.437   5.699  15.481 -0.4040  2.5787 -4.1590
 1895TIP3    H227101   5.541   5.592  15.452 -1.0684 -0.2727  2.1848
 1896TIP3   OH227102   4.711   2.072   1.797  0.3918 -0.1422 -0.1751
 1896TIP3    H127103   4.633   2.113   1.834  0.5404  0.3752 -0.4360
 1896TIP3    H227104   4.768   2.056   1.872  0.2140 -0.1386 -0.0397
 1897TIP3   OH227105   3.058   4.211   0.958 -0.4052 -0.0239 -0.2884
 1897TIP3    H127106   3.017   4.266   0.891  0.2393  1.6532  0.6418
 1897TIP3    H227107   3.058   4.265   1.037  1.9035 -0.6287  0.2102
 1898TIP3   OH227108   2.243   3.337  16.797  0.7420  0.0965 -0.0030
 1898TIP3    H127109   2.193   3.414  16.826 -1.7242 -1.7057  0.8727
 1898TIP3    H227110   2.268   3.293  16.878  2.0386 -0.1286 -0.5045
 1899TIP3   OH227111   4.832   5.120  12.456  0.1587 -0.1155  0.2072
 1899TIP3    H127112   4.829   5.024  12.452 -0.7187 -0.1721  1.4755
 1899TIP3    H227113   4.824   5.148  12.365  2.3896 -1.2535 -0.4067
 1900TIP3   OH227114   5.903   4.929  14.620 -0.2064  0.5554 -0.1026
 1900TIP3    H127115   5.930   4.876  14.545 -0.0470  0.0190  0.3244
 1900TIP3    H227116   5.907   5.019  14.589  0.7816  0.3990 -0.4612
 1901TIP3   OH227117   1.222   2.873  11.593 -1.0079 -0.3812 -0.5316
 1901TIP3    H127118   1.222   2.966  11.571 -0.8503 -0.5400 -1.2493
 1901TIP3    H227119   1.180   2.831  11.517 -3.8214 -0.6156  1.0434
 1902TIP3   OH227120   4.879   5.601   0.406  0.0352 -0.0834  0.0175
 1902TIP3    H127121   4.933   5.529   0.439 -0.6411  0.1852  1.8739
 1902TIP3    H227122   4.942   5.663   0.369  1.0052 -0.0376  1.6167
 1903TIP3   OH227123   2.639   2.332   0.710  0.3626  0.0897  0.0625
 1903TIP3    H127124   2.617   2.372   0.794 -0.4559  2.9159 -1.3723
 1903TIP3    H227125   2.558   2.291   0.680  0.0630  0.9154 -0.2727
 1904TIP3   OH227126   1.477   4.867   3.504  0.1874  0.4072 -0.0097
 1904TIP3    H127127   1.509   4.828   3.422 -1.7104 -1.6826  0.1466
 1904TIP3    H227128   1.383   4.853   3.502  0.1878 -0.9643  3.1177
 1905TIP3   OH227129   5.889   3.590   3.143 -0.1030 -0.0388  0.4234
 1905TIP3    H127130   5.844   3.508   3.164  1.1920 -0.8846  0.0291
 1905TIP3    H227131   5.972   3.585   3.191  1.1932 -0.2506 -1.6756
 1906TIP3   OH227132   4.166   2.317  10.706  0.3790 -0.1571 -0.4805
 1906TIP3    H127133   4.074   2.321  10.680  0.7435 -2.6623 -2.6317
 1906TIP3    H227134   4.205   2.396  10.669 -0.7224  0.4022 -0.4634
 1907TIP3   OH227135   3.073   4.846   2.647  0.4647 -0.4784 -0.0027
 1907TIP3    H127136   3.007   4.795   2.694 -0.5336  0.7815  0.0415
 1907TIP3    H227137   3.121   4.892   2.716  1.4667 -1.4662 -0.0316
 1908TIP3   OH227138   1.499   3.474  12.679  0.3597  0.3126  0.0342
 1908TIP3    H127139   1.522   3.562  12.647  0.2244 -0.0274 -1.0133
 1908TIP3    H227140   1.501   3.483  12.775  1.1344  1.2537 -0.0489
 1909TIP3   OH227141   0.923   3.925  14.045  0.3937 -0.4662  0.0214
 1909TIP3    H127142   0.910   3.987  13.974  2.0451 -1.2982 -1.0669
 1909TIP3    H227143   0.992   3.866  14.013  1.1340 -0.9128  2.2725
 1910TIP3   OH227144   5.019   1.686  16.746 -0.5040 -0.0455 -0.5124
 1910TIP3    H127145   5.053   1.597  16.743 -0.2169  0.0881 -2.1232
 1910TIP3    H227146   4.932   1.681  16.708 -0.0641  0.5109 -1.6516
 1911TIP3   OH227147   2.704   2.663  12.869  0.2196 -0.4820  0.3354
 1911TIP3    H127148   2.686   2.577  12.832 -2.1173 -1.0143  2.3969
 1911TIP3    H227149   2.630   2.679  12.928  0.2871  3.1768 -0.3336
 1912TIP3   OH227150   0.552   5.731  14.039 -0.1069 -0.0201 -0.0871
 1912TIP3    H127151   0.507   5.662  13.990  0.0161 -0.2126  0.0714
 1912TIP3    H227152   0.481   5.784  14.075 -0.2222 -0.6516  0.6340
 1913TIP3   OH227153   1.012   4.476  13.662 -0.1636 -0.1253 -0.3361
 1913TIP3    H127154   1.027   4.527  13.741 -0.0898  0.5470 -0.7739
 1913TIP3    H227155   0.956   4.531  13.608  0.5058 -0.1924 -1.1225
 1914TIP3   OH227156   3.677   2.375   1.017  0.1869  0.1890  0.1380
 1914TIP3    H127157   3.595   2.348   0.975 -1.9830  1.7339  2.9720
 1914TIP3    H227158   3.693   2.463   0.983 -0.4943  0.6592  0.9613
 1915TIP3   OH227159   1.062   3.951  12.000 -0.5591 -0.0001 -0.2118
 1915TIP3    H127160   1.013   3.889  11.947  2.0094 -1.6402 -0.8777
 1915TIP3    H227161   1.065   4.031  11.948 -2.3120  0.0977 -0.2033
 1916TIP3   OH227162   1.711   1.692   1.079 -0.7861  1.1648  0.1950
 1916TIP3    H127163   1.742   1.616   1.129 -1.3435  1.4438  0.9902
 1916TIP3    H227164   1.731   1.671   0.988  0.6297  0.8184  0.5629
 1917TIP3   OH227165   0.435   6.387   1.611 -0.3370 -0.3370  0.2637
 1917TIP3    H127166   0.515   6.423   1.647 -0.9365  0.2703  1.0161
 1917TIP3    H227167   0.412   6.445   1.539 -0.0892 -0.5287  0.0291
 1918TIP3   OH227168   5.609   3.775  11.744  0.2645  0.6647 -0.3810
 1918TIP3    H127169   5.527   3.820  11.723 -0.7707 -0.2586  1.4697
 1918TIP3    H227170   5.649   3.830  11.812  1.8624  1.7736 -2.1044
 1919TIP3   OH227171   0.160   4.310   4.397  0.6886 -0.2903 -0.5157
 1919TIP3    H127172   0.127   4.241   4.339 -1.8758  0.1542  0.2771
 1919TIP3    H227173   0.156   4.390   4.344  1.4542 -0.3904 -0.7253
 1920TIP3   OH227174   5.159   4.834  14.297 -0.0579 -0.2052  0.4753
 1920TIP3    H127175   5.223   4.792  14.240  0.1548  2.4616 -1.4013
 1920TIP3    H227176   5.211   4.875  14.366 -0.0380 -0.5336  0.6616
 1921TIP3   OH227177   1.480   3.281   6.237  0.0342 -0.7865 -0.0517
 1921TIP3    H127178   1.453   3.357   6.186  2.6068  0.5200  0.3497
 1921TIP3    H227179   1.570   3.301   6.264  0.1121 -3.1115  1.7575
 1922TIP3   OH227180   4.264   5.419  15.060  0.2279  0.0330  0.1155
 1922TIP3    H127181   4.224   5.372  14.987 -0.6124  1.2966 -0.2630
 1922TIP3    H227182   4.248   5.364  15.137 -0.8671 -0.2262 -0.2958
 1923TIP3   OH227183   6.220   4.400  15.685 -0.5940  0.0641  0.2884
 1923TIP3    H127184   6.314   4.382  15.685 -0.4557  0.7274 -0.7476
 1923TIP3    H227185   6.181   4.319  15.720  0.3884  0.0842  1.5341
 1924TIP3   OH227186   5.474   6.592   2.248  0.4400  0.0666 -0.5440
 1924TIP3    H127187   5.521   6.531   2.305  1.9502  1.5367 -0.1082
 1924TIP3    H227188   5.466   6.672   2.300  0.0463  0.7842 -1.6683
 1925TIP3   OH227189   1.381   1.329   3.238  0.7454 -0.2472  0.1263
 1925TIP3    H127190   1.373   1.368   3.325 -0.4106 -0.9518  0.3545
 1925TIP3    H227191   1.296   1.287   3.222  0.7243  0.3351 -1.5712
 1926TIP3   OH227192   1.808   4.111   3.425 -0.2921 -0.2509  0.0599
 1926TIP3    H127193   1.889   4.115   3.475 -0.7813  0.6458  0.8184
 1926TIP3    H227194   1.833   4.137   3.336  0.1989  0.3212  0.3604
 1927TIP3   OH227195   6.694   2.151  15.533 -0.8148 -0.3564  0.5292
 1927TIP3    H127196   6.659   2.207  15.602 -2.6355 -0.9540  0.1426
 1927TIP3    H227197   6.701   2.208  15.456 -2.2239 -0.5164  0.2603
 1928TIP3   OH227198   1.631   5.726   0.203  0.3986 -0.4269 -0.6068
 1928TIP3    H127199   1.652   5.813   0.238 -1.2515 -0.2705  0.0937
 1928TIP3    H227200   1.669   5.726   0.116  1.2608  0.6403 -0.2555
 1929TIP3   OH227201   2.863   4.883   0.800  0.2780  0.0220  0.2642
 1929TIP3    H127202   2.814   4.887   0.883  0.3577  0.3882  0.2956
 1929TIP3    H227203   2.883   4.974   0.780 -0.7338  0.0373 -0.7538
 1930TIP3   OH227204   1.205   2.768  12.324  0.1671 -0.3305 -0.0416
 1930TIP3    H127205   1.284   2.733  12.283 -0.6481  0.5858 -2.5921
 1930TIP3    H227206   1.220   2.863  12.327 -0.8274 -0.1427 -0.5917
 1931TIP3   OH227207   2.272   0.371   0.888  0.3703  0.0607  0.0726
 1931TIP3    H127208   2.232   0.421   0.959 -0.1256  0.6890 -0.6283
 1931TIP3    H227209   2.364   0.365   0.911 -0.2692 -2.6941  2.4830
 1932TIP3   OH227210   2.252   4.145  12.774 -0.1623 -0.2650 -0.1772
 1932TIP3    H127211   2.182   4.079  12.772  0.4958 -0.9718 -0.4814
 1932TIP3    H227212   2.291   4.142  12.686  1.2358 -0.9858  0.4332
 1933TIP3   OH227213   0.190   1.136   5.390  0.2713  0.5281  0.5251
 1933TIP3    H127214   0.183   1.072   5.461 -0.3081  2.0625  1.9190
 1933TIP3    H227215   0.104   1.177   5.385 -0.3054 -0.8001 -2.3900
 1934TIP3   OH227216   4.363   6.717   3.149 -0.0069  1.0292 -0.1783
 1934TIP3    H127217   4.310   6.668   3.087 -0.2497  0.9786  0.0653
 1934TIP3    H227218   4.440   6.745   3.099  0.7552 -0.6485  0.0069
 1935TIP3   OH227219   0.648   4.553  14.919 -0.2084 -0.1642  0.0592
 1935TIP3    H127220   0.560   4.516  14.918 -0.2992 -0.0015  1.2312
 1935TIP3    H227221   0.657   4.593  15.006  0.9055  0.0985 -0.1600
 1936TIP3   OH227222   1.317   0.058   4.013 -0.5434 -0.2926  0.5571
 1936TIP3    H127223   1.278   0.096   3.934  0.3593 -1.2387 -0.3847
 1936TIP3    H227224   1.260  -0.016   4.035 -0.9446  0.1302  0.9652
 1937TIP3   OH227225   3.867   1.618   5.164  0.1171  0.1368 -0.0876
 1937TIP3    H127226   3.842   1.576   5.081 -1.1405 -1.7652  1.1821
 1937TIP3    H227227   3.880   1.710   5.141 -1.1335 -0.1578 -2.2232
 1938TIP3   OH227228   0.342   5.940   0.243 -0.8467  0.2088  0.1253
 1938TIP3    H127229   0.297   6.008   0.294 -0.5816  0.5671 -0.1118
 1938TIP3    H227230   0.411   5.987   0.197 -0.5069 -0.2681  0.1483
 1939TIP3   OH227231   5.097   1.856  16.295  0.2830  0.2087  0.1054
 1939TIP3    H127232   5.043   1.928  16.261  0.4647 -0.1220 -0.9182
 1939TIP3    H227233   5.151   1.830  16.221  1.1876 -0.0932  0.8560
 1940TIP3   OH227234   5.589   0.325   5.542  0.1707  0.1020 -0.2063
 1940TIP3    H127235   5.640   0.379   5.602  1.3793  0.0242 -1.1206
 1940TIP3    H227236   5.508   0.374   5.529  0.2917  0.5758  0.7313
 1941TIP3   OH227237   5.977   3.198   3.190  0.4176  0.7505 -0.4237
 1941TIP3    H127238   5.910   3.266   3.191 -0.7814 -0.3599 -1.5762
 1941TIP3    H227239   6.051   3.236   3.238 -0.7552  2.2793  0.2366
 1942TIP3   OH227240   2.564   2.567  12.285  0.3276 -0.0677  0.2654
 1942TIP3    H127241   2.486   2.592  12.335 -0.2364 -1.7374  0.2729
 1942TIP3    H227242   2.556   2.615  12.203 -1.0508 -0.6587  0.0205
 1943TIP3   OH227243   6.287   1.829  17.071 -0.3640  0.0857 -0.5655
 1943TIP3    H127244   6.250   1.904  17.118 -0.5495  0.1797 -0.8605
 1943TIP3    H227245   6.340   1.784  17.136 -0.6197  0.2160 -0.2642
 1944TIP3   OH227246   3.803   0.812  16.742  0.0417  0.2791  0.4758
 1944TIP3    H127247   3.828   0.841  16.830  0.2467  1.8288 -0.0587
 1944TIP3    H227248   3.728   0.867  16.720  0.9792  1.0377 -0.9314
 1945TIP3   OH227249   4.917   1.760  11.383  0.1962  0.3206  0.0803
 1945TIP3    H127250   4.822   1.753  11.390  0.0825 -0.6241 -1.7519
 1945TIP3    H227251   4.947   1.773  11.473 -1.4766 -1.9441  1.0541
 1946TIP3   OH227252   2.433   5.142   5.634  0.2875  0.0672 -0.2959
 1946TIP3    H127253   2.507   5.109   5.583  0.4662  0.6355 -0.4109
 1946TIP3    H227254   2.415   5.072   5.698  0.2594 -0.5116 -0.9266
 1947TIP3   OH227255   3.775   2.879  14.947 -0.3904 -0.1129  0.1847
 1947TIP3    H127256   3.861   2.860  14.910 -0.6403 -0.5304 -0.1870
 1947TIP3    H227257   3.739   2.794  14.972 -0.8797  0.0088 -0.0792
 1948TIP3   OH227258   1.078   1.226  13.899 -0.1108  0.0874  0.5905
 1948TIP3    H127259   1.154   1.180  13.935 -0.3811 -0.0293  1.0241
 1948TIP3    H227260   1.053   1.176  13.822  1.3195  1.1122 -0.6036
 1949TIP3   OH227261   3.469   2.773   3.947 -0.3135  0.4971  0.1490
 1949TIP3    H127262   3.511   2.829   4.013  0.3821 -0.5135  0.5906
 1949TIP3    H227263   3.541   2.728   3.904 -0.8954 -1.3582  0.9859
 1950TIP3   OH227264   3.088   0.660  16.572 -0.1731 -0.3501  0.1298
 1950TIP3    H127265   3.109   0.748  16.539 -0.6600 -0.6176 -0.9629
 1950TIP3    H227266   3.155   0.604  16.534 -0.0647 -0.5061  0.5478
 1951TIP3   OH227267   3.616   0.522  17.232 -0.8955  0.2129 -0.2962
 1951TIP3    H127268   3.641   0.609  17.262  0.1296  0.2362 -1.1759
 1951TIP3    H227269   3.642   0.464  17.303  0.0399  0.4365 -0.4514
 1952TIP3   OH227270   4.619   1.850   4.499  0.5046 -0.5166 -0.2039
 1952TIP3    H127271   4.594   1.937   4.530  1.0992 -0.1934 -0.6113
 1952TIP3    H227272   4.537   1.807   4.478  0.1840 -0.1911  0.3702
 1953TIP3   OH227273   3.615   4.633  15.784  0.1479  0.3522 -0.4273
 1953TIP3    H127274   3.657   4.639  15.698  0.1114 -3.0486 -0.8258
 1953TIP3    H227275   3.538   4.577  15.769 -0.1683  0.1337  1.7053
 1954TIP3   OH227276   4.714   1.205  13.427  0.3229 -0.3337 -0.1973
 1954TIP3    H127277   4.686   1.209  13.518 -0.4279 -0.5444 -0.4138
 1954TIP3    H227278   4.802   1.168  13.431 -0.5417 -2.4967  0.3224
 1955TIP3   OH227279   1.162   0.360   2.687  1.0621  0.0429 -0.0808
 1955TIP3    H127280   1.087   0.312   2.723  0.8885 -1.2597 -2.0374
 1955TIP3    H227281   1.161   0.444   2.733 -1.1654 -0.2277  0.4720
 1956TIP3   OH227282   0.748   2.346   5.407 -0.6444  0.2033 -0.2925
 1956TIP3    H127283   0.653   2.338   5.412 -0.7177  1.1418  0.1502
 1956TIP3    H227284   0.763   2.418   5.346 -0.2097 -0.1730 -0.6292
 1957TIP3   OH227285   2.879   3.087   1.642  0.2342 -0.3817  0.5114
 1957TIP3    H127286   2.844   3.118   1.726  0.1583  2.2681 -0.4010
 1957TIP3    H227287   2.946   3.151   1.619  1.0468 -1.6879 -0.9575
 1958TIP3   OH227288   2.191   5.367   2.185 -0.2083  0.1599  0.3705
 1958TIP3    H127289   2.189   5.444   2.129 -1.6676 -0.1757 -0.0630
 1958TIP3    H227290   2.113   5.374   2.240  0.7280  0.0287  1.7674
 1959TIP3   OH227291   0.791   0.060   5.728 -0.4977  0.2600  0.3475
 1959TIP3    H127292   0.787   0.055   5.823 -1.9329 -1.0533  0.2538
 1959TIP3    H227293   0.837   0.142   5.710  0.7061  0.0470  2.1574
 1960TIP3   OH227294   0.810   0.161  11.988 -0.3584 -0.3519  0.3399
 1960TIP3    H127295   0.759   0.176  11.909 -2.0639  2.1774  1.7837
 1960TIP3    H227296   0.745   0.160  12.059  1.3425  0.3364  2.0026
 1961TIP3   OH227297   5.693   4.906   1.176  0.2568 -0.1144 -0.3405
 1961TIP3    H127298   5.673   4.913   1.083 -0.4102  0.8857 -0.1374
 1961TIP3    H227299   5.774   4.956   1.187  0.4950 -0.4752 -0.4208
 1962TIP3   OH227300   0.610   2.334  10.280 -0.0746  0.5236  0.8045
 1962TIP3    H127301   0.607   2.404  10.345 -0.4808 -0.7629  2.2601
 1962TIP3    H227302   0.534   2.279  10.301  0.5938 -0.6919  0.1490
 1963TIP3   OH227303   0.796   3.630  12.590 -0.0761  0.1825 -0.4001
 1963TIP3    H127304   0.803   3.710  12.538 -1.2398  1.3036  1.0652
 1963TIP3    H227305   0.703   3.608  12.588 -0.0593 -0.0673  0.6895
 1964TIP3   OH227306   2.737   2.284  13.073 -0.6417 -0.1773 -0.3147
 1964TIP3    H127307   2.698   2.294  13.160 -0.9272 -1.5027 -0.2611
 1964TIP3    H227308   2.818   2.334  13.077 -0.8462  0.1008  0.5852
 1965TIP3   OH227309   3.271   6.719   5.502  0.6250 -0.0246  1.0481
 1965TIP3    H127310   3.211   6.675   5.562 -0.3034 -0.9490 -0.4824
 1965TIP3    H227311   3.268   6.666   5.423  2.5450  0.6143  0.5003
 1966TIP3   OH227312   1.095   0.071   1.064  0.1099 -0.3488  0.6052
 1966TIP3    H127313   1.072   0.062   1.156 -0.4084  1.1178  0.6550
 1966TIP3    H227314   1.055  -0.004   1.021 -1.0502 -0.1714  1.3414
 1967TIP3   OH227315   2.216   2.081   4.383 -0.1926  0.5014  0.0371
 1967TIP3    H127316   2.137   2.098   4.434  0.4871 -1.9655  2.1705
 1967TIP3    H227317   2.206   1.990   4.353  0.6514  1.0421 -2.0304
 1968TIP3   OH227318   0.672   1.163   0.664 -0.3405  0.1479 -0.4622
 1968TIP3    H127319   0.599   1.107   0.691  0.0589  0.0023  0.3551
 1968TIP3    H227320   0.740   1.146   0.729 -0.0618  1.2692 -0.4383
 1969TIP3   OH227321   4.827   5.369   4.270  0.2827 -0.0945  0.6042
 1969TIP3    H127322   4.761   5.342   4.206 -0.0903  0.8680  0.5734
 1969TIP3    H227323   4.793   5.338   4.354  0.2573 -0.4321  0.4709
 1970TIP3   OH227324   1.579   1.987  13.766 -0.1602 -0.3167 -0.1725
 1970TIP3    H127325   1.503   1.944  13.806 -1.1723  0.4063 -1.2390
 1970TIP3    H227326   1.574   2.078  13.797 -0.2604 -0.0448 -0.9677
 1971TIP3   OH227327   0.412   1.957  14.704 -0.1341 -0.1058 -0.0644
 1971TIP3    H127328   0.338   1.971  14.644 -0.2736 -0.1892  0.0871
 1971TIP3    H227329   0.423   1.862  14.707 -0.3087 -0.1163  0.2588
 1972TIP3   OH227330   6.710   3.429  12.651  0.6374  0.0752 -0.3583
 1972TIP3    H127331   6.688   3.342  12.618 -0.7485  0.7101 -1.2383
 1972TIP3    H227332   6.784   3.415  12.710  1.9868 -1.3754 -2.3004
 1973TIP3   OH227333   5.150   4.716  13.100 -0.3692  0.5058  0.0950
 1973TIP3    H127334   5.214   4.766  13.050  0.3955 -1.5522 -1.1123
 1973TIP3    H227335   5.199   4.684  13.177 -0.2953  0.0482 -0.1356
 1974TIP3   OH227336   1.784   2.091  12.889  0.2779  0.5805  0.2683
 1974TIP3    H127337   1.843   2.160  12.857  1.6136  0.5083  2.3995
 1974TIP3    H227338   1.697   2.128  12.880  0.6700  1.1123 -1.9723
 1975TIP3   OH227339   5.740   4.095  12.122 -0.3058  0.1225 -0.3695
 1975TIP3    H127340   5.753   4.047  12.204 -0.3642 -0.9642 -0.9862
 1975TIP3    H227341   5.725   4.186  12.150  2.1202  0.2653  0.7006
 1976TIP3   OH227342   6.632   6.245  13.267 -0.1273 -0.3621 -0.3677
 1976TIP3    H127343   6.633   6.319  13.206  0.4173 -1.3581 -1.6312
 1976TIP3    H227344   6.542   6.242  13.300 -0.2000  0.7426 -0.4328
 1977TIP3   OH227345   6.704   5.739  16.032  0.4832  0.0555 -0.2433
 1977TIP3    H127346   6.722   5.646  16.047 -0.0057  0.0170  0.1482
 1977TIP3    H227347   6.674   5.743  15.941 -0.9134 -0.4062  0.1707
 1978TIP3   OH227348   1.085   4.895   5.935  0.3562 -0.2066 -0.3860
 1978TIP3    H127349   1.125   4.816   5.899  1.7276  0.2746  0.0511
 1978TIP3    H227350   1.101   4.890   6.029 -2.1160 -0.8387  0.0648
 1979TIP3   OH227351   0.324   2.336  11.436  0.1457 -0.5180  0.0307
 1979TIP3    H127352   0.281   2.266  11.386 -0.3619  0.6508 -1.2270
 1979TIP3    H227353   0.262   2.409  11.433  1.2316  0.4388  0.1756
 1980TIP3   OH227354   2.886   0.664  11.608  0.2931 -0.5847  0.0104
 1980TIP3    H127355   2.845   0.596  11.555  0.4033  1.2782 -2.6791
 1980TIP3    H227356   2.960   0.620  11.650 -1.0307 -2.6319  0.3440
 1981TIP3   OH227357   6.254   2.898   0.161  0.4254  0.3953 -0.2492
 1981TIP3    H127358   6.222   2.866   0.076 -0.3239 -0.6602  0.4048
 1981TIP3    H227359   6.182   2.879   0.222  0.2690  2.6270  0.3490
 1982TIP3   OH227360   0.514   4.786   0.228  0.0699  0.3190  0.0771
 1982TIP3    H127361   0.519   4.695   0.199  0.5804  0.0640  0.9312
 1982TIP3    H227362   0.421   4.809   0.222 -0.3149 -0.7772  1.3570
 1983TIP3   OH227363   2.237   4.588  13.358  0.1388  0.2247  0.0988
 1983TIP3    H127364   2.254   4.588  13.264  0.5929  0.7671  0.1704
 1983TIP3    H227365   2.276   4.670  13.389  3.2439 -1.5419  1.3371
 1984TIP3   OH227366   3.925   0.239  14.485  0.1881 -0.0712 -0.4566
 1984TIP3    H127367   3.974   0.213  14.407 -1.1577  0.0092 -1.3803
 1984TIP3    H227368   3.892   0.156  14.520  1.3456 -0.1699  0.4365
 1985TIP3   OH227369   5.073   5.411   3.471  0.2163 -0.5073  0.1578
 1985TIP3    H127370   5.146   5.350   3.463  0.0218 -0.5920 -1.3003
 1985TIP3    H227371   4.998   5.363   3.436 -0.0439  0.3950 -0.5486
 1986TIP3   OH227372   4.216   0.104  13.936 -0.0341 -0.3394 -0.0338
 1986TIP3    H127373   4.239   0.124  13.846 -3.2856 -1.7941 -1.3479
 1986TIP3    H227374   4.166   0.180  13.966  0.7460 -0.0096  0.4862
 1987TIP3   OH227375   1.455   5.435  14.748 -0.0928  0.1319 -0.5456
 1987TIP3    H127376   1.413   5.355  14.778  1.3633 -0.1841  0.7344
 1987TIP3    H227377   1.487   5.414  14.660 -0.1096 -0.5380 -0.3926
 1988TIP3   OH227378   0.071   4.985   1.554  0.0373  0.2144  0.0479
 1988TIP3    H127379   0.070   5.066   1.504 -1.8914  0.2475  0.0592
 1988TIP3    H227380  -0.018   4.977   1.589  0.5151 -1.3030  1.0275
 1989TIP3   OH227381   6.449   1.216   1.245  0.3143 -1.0278  0.1490
 1989TIP3    H127382   6.385   1.185   1.309  1.1248  1.5226  2.3810
 1989TIP3    H227383   6.405   1.287   1.199  1.5617  1.1923  2.1484
 1990TIP3   OH227384   4.253   1.944  15.128 -0.1085  0.3781  0.3154
 1990TIP3    H127385   4.213   2.030  15.118 -0.6728  0.2339  1.2601
 1990TIP3    H227386   4.223   1.894  15.053 -1.1607  0.4879  0.6446
 1991TIP3   OH227387   0.098   1.461  14.557 -0.6083 -0.4908 -0.0605
 1991TIP3    H127388   0.124   1.552  14.569  2.6682 -1.0821 -1.3727
 1991TIP3    H227389   0.014   1.465  14.511 -0.5018  1.8590 -0.1574
 1992TIP3   OH227390   5.987   4.383  16.469  0.1358  0.1835  0.0089
 1992TIP3    H127391   6.071   4.410  16.432 -0.7881 -0.3087 -2.6533
 1992TIP3    H227392   5.978   4.437  16.548  2.0388  1.6618 -0.6822
 1993TIP3   OH227393   2.229   5.005  12.339  0.3997 -0.1660 -0.0552
 1993TIP3    H127394   2.299   5.034  12.398 -1.1677  1.4448  1.1486
 1993TIP3    H227395   2.198   5.085  12.298  0.5664 -1.1109 -2.1417
 1994TIP3   OH227396   3.689   0.532  16.903  0.1047  0.2658 -0.4846
 1994TIP3    H127397   3.700   0.612  16.851  1.1477  1.0030  0.8235
 1994TIP3    H227398   3.727   0.553  16.988 -1.2874 -1.0133  0.5000
 1995TIP3   OH227399   5.180   1.198  10.787  0.2730  0.0325  0.1070
 1995TIP3    H127400   5.144   1.169  10.704  1.5956  0.1607 -0.5300
 1995TIP3    H227401   5.245   1.263  10.764  2.0635 -1.3310  1.0839
 1996TIP3   OH227402   0.556   1.836  16.437  0.0206  0.2278  0.3238
 1996TIP3    H127403   0.540   1.916  16.386 -2.4957 -1.0743 -1.1349
 1996TIP3    H227404   0.569   1.867  16.526  0.9338  2.3594 -0.4834
 1997TIP3   OH227405   1.235   1.645   0.233 -0.0110  0.4984  0.2924
 1997TIP3    H127406   1.316   1.691   0.210  0.2610 -0.0786  0.0782
 1997TIP3    H227407   1.261   1.584   0.302 -0.0467 -0.3521 -0.4185
 1998TIP3   OH227408   3.796   5.439   3.440 -0.7916  0.6299  0.6103
 1998TIP3    H127409   3.785   5.494   3.518  1.2233  3.0182 -0.6117
 1998TIP3    H227410   3.775   5.497   3.367 -2.7427 -1.5719 -0.7093
 1999TIP3   OH227411   0.975   5.646   2.240  0.4582 -0.3626  0.4124
 1999TIP3    H127412   0.962   5.552   2.250 -0.7546 -0.5514 -2.2553
 1999TIP3    H227413   0.966   5.662   2.146  0.9861  2.3772  0.7529
 2000TIP3   OH227414   6.200   2.091  11.503 -0.0564  0.0428  0.0478
 2000TIP3    H127415   6.138   2.144  11.553  0.3797  0.4102  0.2126
 2000TIP3    H227416   6.148   2.020  11.466 -0.4388 -0.0453  0.7533
 2001TIP3   OH227417   6.289   4.796   4.858 -0.2509  0.6371 -0.7482
 2001TIP3    H127418   6.347   4.866   4.889 -2.1074  1.2703  1.5879
 2001TIP3    H227419   6.338   4.716   4.876  0.3458  1.1882  0.2399
 2002TIP3   OH227420   0.679   0.846  14.959  0.2443 -0.1976 -0.2664
 2002TIP3    H127421   0.747   0.779  14.959  0.1762 -0.2926 -2.0358
 2002TIP3    H227422   0.646   0.848  14.870 -0.5041  1.4476  0.0030
 2003TIP3   OH227423   2.169   2.447  13.498 -0.1468 -0.5000  0.3198
 2003TIP3    H127424   2.164   2.393  13.577  1.2907 -0.0295  0.7618
 2003TIP3    H227425   2.178   2.537  13.530  2.5443 -0.4545 -0.2518
 2004TIP3   OH227426   5.106   6.529  12.172 -0.0303  0.1583 -0.2799
 2004TIP3    H127427   5.201   6.524  12.180 -0.0069 -0.6065 -0.9488
 2004TIP3    H227428   5.091   6.563  12.084 -0.3762  1.5838  0.2965
 2005TIP3   OH227429   0.022   6.324  12.467 -0.0067  0.2591  0.1575
 2005TIP3    H127430  -0.045   6.367  12.414 -1.9569 -0.5905  1.7968
 2005TIP3    H227431   0.015   6.365  12.553 -0.1275 -1.4892  1.0281
 2006TIP3   OH227432   0.918   6.076   0.639 -0.7486 -0.2479  0.5012
 2006TIP3    H127433   0.867   5.998   0.618  0.3960 -0.6963 -0.7242
 2006TIP3    H227434   1.009   6.046   0.639 -0.2903  1.0830  0.0303
 2007TIP3   OH227435   0.961   6.644  15.059  0.2650  0.1859  0.2774
 2007TIP3    H127436   0.995   6.567  15.013  0.0965  0.7559 -0.8367
 2007TIP3    H227437   1.035   6.705  15.061 -0.2520  0.8856 -0.9182
 2008TIP3   OH227438   1.356   5.513   2.957 -0.2251 -0.2818  0.2995
 2008TIP3    H127439   1.348   5.427   2.998  4.7282 -0.9316  0.4895
 2008TIP3    H227440   1.391   5.569   3.026  0.0900  0.8832 -0.7769
 2009TIP3   OH227441   2.354   1.257  15.047 -0.6266 -0.2354 -0.5176
 2009TIP3    H127442   2.362   1.223  14.958 -1.2399  0.1699 -0.7382
 2009TIP3    H227443   2.356   1.180  15.103 -2.0157 -0.6685 -1.0111
 2010TIP3   OH227444   3.889   4.182   3.863  0.4481 -0.4358  0.4510
 2010TIP3    H127445   3.886   4.103   3.809 -1.4371 -1.1662  1.5147
 2010TIP3    H227446   3.864   4.152   3.951  0.1422  1.2658  0.9889
 2011TIP3   OH227447   3.367   0.618   3.180  0.5011  0.3668 -0.7995
 2011TIP3    H127448   3.447   0.632   3.130  1.1164 -0.2306 -0.0126
 2011TIP3    H227449   3.297   0.647   3.122  1.2996  1.1007 -1.4144
 2012TIP3   OH227450   4.666   2.672   1.949 -0.1021 -0.0374 -0.0562
 2012TIP3    H127451   4.612   2.706   2.020  2.5800 -0.3994  2.3235
 2012TIP3    H227452   4.725   2.743   1.927 -0.5761 -0.0926 -1.6979
 2013TIP3   OH227453   1.332   2.175  13.973  0.2023 -0.3502  0.3497
 2013TIP3    H127454   1.277   2.209  13.902  0.1312 -1.0366  0.0701
 2013TIP3    H227455   1.420   2.207  13.954  0.4942 -1.8106 -0.9272
 2014TIP3   OH227456   0.518   0.723   3.286 -0.2668  0.1407  0.5307
 2014TIP3    H127457   0.500   0.705   3.378  4.0111  0.0895  1.5176
 2014TIP3    H227458   0.507   0.817   3.278  0.9113  0.3887  1.5564
 2015TIP3   OH227459   4.748   5.505   0.821  0.4561  0.4865 -0.2459
 2015TIP3    H127460   4.756   5.576   0.758 -1.5675  2.0201  1.1098
 2015TIP3    H227461   4.695   5.439   0.776  0.1854  0.9685 -0.6447
 2016TIP3   OH227462   1.973   0.766  16.679 -0.6942  0.2940 -0.0913
 2016TIP3    H127463   1.898   0.708  16.695 -0.0838  0.1013  2.5906
 2016TIP3    H227464   1.933   0.848  16.649 -2.3681  0.9933  3.4403
 2017TIP3   OH227465   4.590   5.148   5.774  0.3221 -0.1134 -0.1762
 2017TIP3    H127466   4.636   5.137   5.857  1.7352 -0.2140 -0.9407
 2017TIP3    H227467   4.532   5.072   5.768  0.8231 -0.5364  0.3293
 2018TIP3   OH227468   4.020   1.053  15.696 -0.1714  0.4493  0.1644
 2018TIP3    H127469   4.033   1.016  15.609  1.8987  1.1599  0.1096
 2018TIP3    H227470   4.008   0.977  15.753 -2.8520  0.0088 -0.8431
 2019TIP3   OH227471   4.473   2.197   5.173  0.1505 -0.1135  0.2173
 2019TIP3    H127472   4.510   2.109   5.175  0.0323 -0.1795 -0.4716
 2019TIP3    H227473   4.397   2.189   5.115  0.4287  0.5601 -0.2341
 2020TIP3   OH227474   2.301   2.624   5.944 -0.1540 -0.1118  0.1069
 2020TIP3    H127475   2.280   2.673   6.023 -1.5717 -1.0302  0.3346
 2020TIP3    H227476   2.358   2.682   5.894  0.7947  0.4812  1.7962
 2021TIP3   OH227477   6.714   3.137   3.708  0.5420 -0.0791  0.2530
 2021TIP3    H127478   6.683   3.172   3.624 -0.8194  0.6138  1.0150
 2021TIP3    H227479   6.803   3.107   3.689  0.5881  0.8517 -1.2313
 2022TIP3   OH227480   4.167   3.980   4.008 -0.7245  0.2604 -0.1577
 2022TIP3    H127481   4.145   3.995   4.100 -0.9187  1.3374 -0.3605
 2022TIP3    H227482   4.086   3.949   3.968 -0.7055  0.0268 -0.0122
 2023TIP3   OH227483   3.718   1.287   0.650  0.2187  0.4262  0.2271
 2023TIP3    H127484   3.743   1.195   0.663 -0.9269  0.1969  1.0124
 2023TIP3    H227485   3.639   1.282   0.595  1.1595  1.0527 -1.2292
 2024TIP3   OH227486   4.035   3.830   0.028 -0.9659  0.2963 -0.2140
 2024TIP3    H127487   3.970   3.897   0.049 -0.3174  1.1031 -0.7249
 2024TIP3    H227488   4.083   3.865  -0.047 -1.0677 -1.0485 -0.9454
 2025TIP3   OH227489   2.887   1.087   5.787  0.1106  0.1775  0.0223
 2025TIP3    H127490   2.868   1.129   5.871  0.1138  1.1128 -0.4224
 2025TIP3    H227491   2.806   1.041   5.764 -0.5527  1.4767 -0.3431
 2026TIP3   OH227492   5.979   5.062   6.245 -0.2905 -0.2175 -0.3917
 2026TIP3    H127493   6.072   5.044   6.233 -0.1768 -1.0456  1.4325
 2026TIP3    H227494   5.968   5.151   6.211  1.7895  1.0328  1.8343
 2027TIP3   OH227495   0.904   3.060  16.175  0.4575 -0.5454  0.2103
 2027TIP3    H127496   0.825   3.108  16.201  1.2894  0.5762  0.6965
 2027TIP3    H227497   0.961   3.063  16.251  1.2579 -0.7630 -0.3644
 2028TIP3   OH227498   4.846   2.982  11.127 -0.0289  0.3358  0.5225
 2028TIP3    H127499   4.937   2.954  11.133 -0.0379  0.3287  0.6167
 2028TIP3    H227500   4.801   2.933  11.196  0.1612  1.4750  1.4842
 2029TIP3   OH227501   1.954   5.126  15.763 -0.4615  0.2896 -0.3251
 2029TIP3    H127502   1.923   5.129  15.854  1.0310  2.5638  0.1927
 2029TIP3    H227503   1.878   5.153  15.711 -0.6838  1.3032  0.4880
 2030TIP3   OH227504   6.344   1.395  17.326  0.3487  0.5430 -0.2777
 2030TIP3    H127505   6.346   1.319  17.384 -0.8738  0.7188  0.0356
 2030TIP3    H227506   6.417   1.449  17.354  1.7927 -0.9094 -1.0955
 2031TIP3   OH227507   2.102   6.386  13.158  0.2620  0.2945 -0.0721
 2031TIP3    H127508   2.070   6.342  13.237  0.0147  0.4066 -0.1086
 2031TIP3    H227509   2.111   6.478  13.184  2.9295 -0.0744  0.6881
 2032TIP3   OH227510   0.541   6.026  15.958  0.1204  0.1420 -0.3618
 2032TIP3    H127511   0.597   6.055  15.886 -2.2240 -0.8935 -2.7992
 2032TIP3    H227512   0.461   6.078  15.948 -0.7076 -0.8415  0.7783
 2033TIP3   OH227513   1.950   4.780   5.672  0.5887 -0.2731 -0.6417
 2033TIP3    H127514   1.885   4.744   5.611  0.9664 -0.0951 -1.1626
 2033TIP3    H227515   2.033   4.771   5.625  1.2335 -2.2631  0.7580
 2034TIP3   OH227516   0.243   4.568   1.069 -0.2334  0.3051 -0.3266
 2034TIP3    H127517   0.307   4.612   1.014  0.6240 -0.2799  0.1734
 2034TIP3    H227518   0.206   4.500   1.013  0.0896  0.2025 -0.4201
 2035TIP3   OH227519   4.174   6.182  16.821 -0.7884  0.2174  0.2651
 2035TIP3    H127520   4.130   6.260  16.787  0.7894  0.7828 -0.5700
 2035TIP3    H227521   4.137   6.110  16.770  0.3274  0.8614 -1.5411
 2036TIP3   OH227522   5.854   2.069   3.948  0.5478  0.1868 -0.0265
 2036TIP3    H127523   5.934   2.045   3.994  0.3911 -2.9412 -1.1261
 2036TIP3    H227524   5.793   2.094   4.018  1.4232 -0.8581  1.1677
 2037TIP3   OH227525   3.685   6.463  11.283  0.5499 -0.1832 -0.4252
 2037TIP3    H127526   3.772   6.432  11.257  0.8821 -1.4437  1.9321
 2037TIP3    H227527   3.676   6.435  11.374 -1.3155  2.1653  0.1993
 2038TIP3   OH227528   3.590   0.741   3.673  0.1247  0.2986  0.1753
 2038TIP3    H127529   3.620   0.805   3.738  1.2015  1.1271 -1.0723
 2038TIP3    H227530   3.583   0.791   3.592 -1.2412 -0.6981 -0.3583
 2039TIP3   OH227531   3.929   5.367  15.699 -0.1946 -0.3279  0.1069
 2039TIP3    H127532   3.980   5.359  15.779  0.5885 -1.2901 -0.4635
 2039TIP3    H227533   3.850   5.316  15.715  1.3851 -3.2371 -0.8146
 2040TIP3   OH227534   6.739   2.400   3.233  0.3557  0.1116 -0.0562
 2040TIP3    H127535   6.689   2.403   3.315  0.3823  0.7911 -0.0522
 2040TIP3    H227536   6.831   2.401   3.261  0.3689 -0.6888 -0.0726
 2041TIP3   OH227537   6.462   2.108  15.713 -0.2830 -0.9741 -0.1579
 2041TIP3    H127538   6.458   2.137  15.804  0.9207 -1.1633 -0.0286
 2041TIP3    H227539   6.496   2.018  15.718 -0.6236 -1.1411 -0.7680
 2042TIP3   OH227540   2.648   6.015   2.066 -0.0029  0.4643  0.1319
 2042TIP3    H127541   2.676   6.045   1.979  0.8943 -0.2370  0.1670
 2042TIP3    H227542   2.676   6.084   2.125  0.6665  0.2940  0.0242
 2043TIP3   OH227543   6.743   6.186   0.177 -0.6468  0.5801  0.2760
 2043TIP3    H127544   6.770   6.148   0.094  0.0026 -0.3989  0.9127
 2043TIP3    H227545   6.654   6.218   0.162 -0.9969 -0.7011 -0.4459
 2044TIP3   OH227546   4.406   4.054  15.662  0.0062  0.5118  0.4768
 2044TIP3    H127547   4.483   4.082  15.711  0.6295 -1.1322  0.5240
 2044TIP3    H227548   4.429   3.966  15.631 -1.4454  0.4187 -0.4199
 2045TIP3   OH227549   0.864   5.731   3.682 -0.3423 -0.5149  0.3549
 2045TIP3    H127550   0.909   5.646   3.677 -0.5676 -0.6773  0.9666
 2045TIP3    H227551   0.788   5.714   3.737 -1.9703 -0.5908 -1.8028
 2046TIP3   OH227552   5.065   1.612   1.647 -0.0168 -0.5018 -1.0663
 2046TIP3    H127553   5.153   1.597   1.612  0.2142  0.0496 -0.7381
 2046TIP3    H227554   5.040   1.529   1.688  0.8926 -0.2630 -0.0001
 2047TIP3   OH227555   0.171   4.714  17.280 -0.4780  0.1425  0.3338
 2047TIP3    H127556   0.087   4.673  17.300 -1.1431  0.0825 -2.2109
 2047TIP3    H227557   0.152   4.772  17.206  1.2919  1.9060  1.1607
 2048TIP3   OH227558   3.421   3.321   1.711 -0.2103  0.4801 -0.3340
 2048TIP3    H127559   3.402   3.398   1.765 -0.8210  1.3445 -1.7269
 2048TIP3    H227560   3.423   3.354   1.621  1.3824 -0.8016 -0.8249
 2049TIP3   OH227561   2.504   5.825  12.326  0.3350  0.4668  0.1210
 2049TIP3    H127562   2.482   5.833  12.419  0.0666  2.0292 -0.0510
 2049TIP3    H227563   2.484   5.911  12.289 -2.4310 -0.9041 -1.9840
 2050TIP3   OH227564   4.792   4.965   0.462  0.3035 -0.2941  0.3042
 2050TIP3    H127565   4.728   4.962   0.391  0.9291 -0.2020 -0.2689
 2050TIP3    H227566   4.851   4.892   0.446  0.9564  0.2363  0.2381
 2051TIP3   OH227567   5.717   5.354  11.342 -0.0940 -0.4848 -0.2385
 2051TIP3    H127568   5.776   5.284  11.316  0.0509 -0.2369 -0.5911
 2051TIP3    H227569   5.763   5.434  11.316  0.1536 -0.2098  0.9672
 2052TIP3   OH227570   2.228   6.018   5.290 -0.1885 -0.3456  0.4700
 2052TIP3    H127571   2.250   6.083   5.223 -1.2161 -0.6914 -0.2155
 2052TIP3    H227572   2.133   6.014   5.289 -0.1477 -1.6287  0.7287
 2053TIP3   OH227573   4.091   1.823  14.615 -0.0622  0.2360  0.2176
 2053TIP3    H127574   4.091   1.805  14.521  1.6628 -0.5690  0.3321
 2053TIP3    H227575   4.053   1.745  14.655 -0.8557  0.6042  0.2130
 2054TIP3   OH227576   5.223   5.157   0.216  0.2275 -0.4261  0.1294
 2054TIP3    H127577   5.262   5.235   0.176  1.0030 -0.1355  1.3936
 2054TIP3    H227578   5.131   5.179   0.226  0.5225  0.5423  0.9190
 2055TIP3   OH227579   3.575   6.171   1.297 -0.8339  0.4549 -0.0313
 2055TIP3    H127580   3.620   6.247   1.334 -0.2500  0.0264  0.1518
 2055TIP3    H227581   3.631   6.144   1.224 -0.3249 -0.5964  0.7221
 2056TIP3   OH227582   5.422   0.803  10.656  0.1650 -0.3100 -0.9265
 2056TIP3    H127583   5.451   0.847  10.576 -1.1654  0.0531 -1.2326
 2056TIP3    H227584   5.466   0.717  10.654  1.3248  0.2688 -1.2606
 2057TIP3   OH227585   3.924   2.148   3.311 -0.1842 -0.3177  0.4917
 2057TIP3    H127586   4.002   2.107   3.348  0.7389  0.2257 -0.7621
 2057TIP3    H227587   3.864   2.076   3.295  0.6530 -0.9444  0.1052
 2058TIP3   OH227588   2.117   2.818   4.396  0.1020 -0.1408 -0.3074
 2058TIP3    H127589   2.186   2.753   4.384  0.0682 -0.3537  0.5926
 2058TIP3    H227590   2.164   2.901   4.408  0.1623 -0.0903 -0.8879
 2059TIP3   OH227591   1.987   1.431  10.976  0.0548  0.1678  0.1925
 2059TIP3    H127592   1.917   1.474  10.927  0.4285 -0.1303 -0.6144
 2059TIP3    H227593   2.067   1.453  10.928  0.4062 -0.2730  0.5705
 2060TIP3   OH227594   4.708   2.258  16.318  0.1861  0.6430 -0.0727
 2060TIP3    H127595   4.735   2.207  16.394 -0.6070  1.8726  1.0882
 2060TIP3    H227596   4.620   2.227  16.298  0.4670  0.1897 -0.6130
 2061TIP3   OH227597   3.402   6.119   3.202 -0.2780 -0.4441  0.0317
 2061TIP3    H127598   3.314   6.102   3.171 -0.9292 -0.9947  2.0327
 2061TIP3    H227599   3.413   6.214   3.194 -0.9732 -0.4002 -0.4046
 2062TIP3   OH227600   2.176   2.426  12.271 -0.1371  0.6152 -0.4553
 2062TIP3    H127601   2.176   2.509  12.318  0.7736 -0.2545  1.1717
 2062TIP3    H227602   2.187   2.451  12.179 -1.2226  2.3389 -0.1679
 2063TIP3   OH227603   4.757   1.398   0.096  0.8007  0.4622 -0.1785
 2063TIP3    H127604   4.675   1.387   0.144  0.6552  0.1242 -0.4947
 2063TIP3    H227605   4.821   1.425   0.162  0.7522 -0.6020  0.3183
 2064TIP3   OH227606   6.364   2.768  12.360  0.6146 -0.2869 -0.1250
 2064TIP3    H127607   6.356   2.859  12.388  0.3133 -0.0971 -0.8190
 2064TIP3    H227608   6.326   2.718  12.432  2.0793  0.0204  0.9278
 2065TIP3   OH227609   1.887   1.650   6.867  0.1929  0.0312 -0.0993
 2065TIP3    H127610   1.962   1.620   6.816 -0.1063 -1.3178  0.2101
 2065TIP3    H227611   1.898   1.745   6.872  2.4236 -0.2128  0.7741
 2066TIP3   OH227612   1.726   0.733  10.561  0.1754 -0.8122  1.0934
 2066TIP3    H127613   1.637   0.769  10.568  0.4250 -0.0224  0.3660
 2066TIP3    H227614   1.755   0.757  10.473  2.0091  1.0832  2.1259
 2067TIP3   OH227615   4.833   2.526  16.996 -0.1601  0.3151 -0.5893
 2067TIP3    H127616   4.791   2.570  16.922 -1.3059 -0.1282 -0.2227
 2067TIP3    H227617   4.784   2.555  17.073 -0.6712 -1.2464 -0.2854
 2068TIP3   OH227618   2.912   5.884  12.069 -0.0565  0.0393 -0.1269
 2068TIP3    H127619   2.839   5.840  12.113 -0.9338  0.0308 -1.5398
 2068TIP3    H227620   2.877   5.968  12.041  0.7040  0.3504 -0.1886
 2069TIP3   OH227621   1.698   0.907   5.258 -0.1402 -0.4565  0.1717
 2069TIP3    H127622   1.687   0.849   5.333 -0.8569 -1.8692 -0.9571
 2069TIP3    H227623   1.779   0.879   5.217 -1.6730 -2.4755 -1.7735
 2070TIP3   OH227624   4.511   1.861  14.213 -0.1020  0.7757  1.0938
 2070TIP3    H127625   4.474   1.859  14.301  0.9798 -0.2310  1.5411
 2070TIP3    H227626   4.536   1.953  14.200 -0.2919  0.9333  1.8179
 2071TIP3   OH227627   5.442   4.034  13.433  0.0546 -0.2800 -0.2101
 2071TIP3    H127628   5.499   4.086  13.377 -1.7099  0.3250 -1.5254
 2071TIP3    H227629   5.423   3.955  13.383 -0.2067 -0.5092  0.2365
 2072TIP3   OH227630   4.593   5.876  15.093 -0.2475 -0.1275  0.5770
 2072TIP3    H127631   4.585   5.815  15.166  1.8808 -1.0367  0.1375
 2072TIP3    H227632   4.581   5.963  15.132  0.1191 -0.6384  1.8798
 2073TIP3   OH227633   1.678   4.928   6.561  0.3595 -0.1530 -0.3816
 2073TIP3    H127634   1.663   4.838   6.532  0.7916 -0.5294  0.5162
 2073TIP3    H227635   1.761   4.953   6.522  0.9936 -0.6949  0.5939
 2074TIP3   OH227636   1.581   3.714   4.068 -0.0557  0.6654  0.5257
 2074TIP3    H127637   1.526   3.689   4.142 -0.6354 -0.4626 -0.2573
 2074TIP3    H227638   1.541   3.671   3.992  2.7255 -1.5705  0.1478
 2075TIP3   OH227639   4.269   5.429   2.162 -0.1862 -0.1003 -0.9170
 2075TIP3    H127640   4.242   5.387   2.080 -0.9449  0.5929 -1.0356
 2075TIP3    H227641   4.356   5.464   2.143 -0.8181  1.0519 -1.8141
 2076TIP3   OH227642   0.086   4.128  17.031  0.7139  0.0943  0.2068
 2076TIP3    H127643   0.084   4.214  17.072  0.5932 -0.2335  0.8900
 2076TIP3    H227644   0.178   4.102  17.033  1.0481  0.9589 -1.6086
 2077TIP3   OH227645   4.245   1.864  16.551 -0.1658  0.4162  0.1415
 2077TIP3    H127646   4.252   1.800  16.623  0.1371 -1.1708 -1.2325
 2077TIP3    H227647   4.336   1.886  16.530 -0.2685  3.0836  2.0358
 2078TIP3   OH227648   3.634   3.276  14.962  0.2377  0.0654 -0.1427
 2078TIP3    H127649   3.539   3.273  14.978  0.3852 -1.8802  0.6178
 2078TIP3    H227650   3.674   3.264  15.048  1.3214  4.0302  0.0992
 2079TIP3   OH227651   3.831   3.018   0.860  0.2976  0.1993 -0.1974
 2079TIP3    H127652   3.890   2.979   0.925 -0.4333 -0.0472  0.3263
 2079TIP3    H227653   3.840   2.962   0.783  0.4040 -0.1049  0.0324
 2080TIP3   OH227654   4.256   4.634   4.829 -0.0396  0.1314 -0.6597
 2080TIP3    H127655   4.162   4.649   4.830 -0.0176  0.6164 -2.6036
 2080TIP3    H227656   4.290   4.686   4.902 -1.1536  0.7708 -0.5872
 2081TIP3   OH227657   2.737   4.449  12.466 -0.1383 -0.0280  0.5510
 2081TIP3    H127658   2.718   4.356  12.477 -1.1446  0.2548  1.3632
 2081TIP3    H227659   2.792   4.453  12.388  0.2136 -1.3308  0.7090
 2082TIP3   OH227660   5.289   3.785  13.755  0.0397  0.5402 -0.0910
 2082TIP3    H127661   5.365   3.728  13.771 -0.0280  0.8561  1.5643
 2082TIP3    H227662   5.326   3.873  13.752  0.2427  0.4706 -3.3439
 2083TIP3   OH227663   1.399   2.944  13.716 -0.0907  0.3619  0.4724
 2083TIP3    H127664   1.359   2.939  13.629  4.4197  0.5578 -1.9166
 2083TIP3    H227665   1.358   3.020  13.757 -2.7188 -0.0293 -1.1767
 2084TIP3   OH227666   5.715   2.611  14.701 -0.3138 -0.1637 -0.2045
 2084TIP3    H127667   5.713   2.579  14.611 -1.5912 -0.3506 -0.1367
 2084TIP3    H227668   5.623   2.632  14.721 -0.3240 -1.6554  1.5808
 2085TIP3   OH227669   2.723   4.227  13.346  0.4128 -0.1569 -0.0633
 2085TIP3    H127670   2.631   4.212  13.367  0.0172 -1.3127 -2.3052
 2085TIP3    H227671   2.723   4.313  13.302  0.2326 -0.5940 -0.9318
 2086TIP3   OH227672   0.957   5.321   3.101 -0.0748  0.0702 -0.5058
 2086TIP3    H127673   0.889   5.291   3.041 -0.1838  0.4468 -0.5722
 2086TIP3    H227674   1.024   5.252   3.098 -1.0977 -1.0594  0.6855
 2087TIP3   OH227675   3.980   4.282   2.868  0.3212 -0.0477  0.5492
 2087TIP3    H127676   3.986   4.239   2.954  0.8115 -0.3114  0.3885
 2087TIP3    H227677   4.002   4.373   2.885  2.2249 -0.4418  0.4330
 2088TIP3   OH227678   4.191   3.613   3.532  0.0032 -0.6165  0.2146
 2088TIP3    H127679   4.206   3.632   3.625 -1.9690 -1.0735  0.6825
 2088TIP3    H227680   4.143   3.529   3.533  0.7398 -1.0764 -1.2786
 2089TIP3   OH227681   6.395   2.143   1.822 -0.1849  0.1122  0.2558
 2089TIP3    H127682   6.317   2.151   1.876 -0.6695 -0.5614 -0.3367
 2089TIP3    H227683   6.369   2.177   1.736  0.4002  0.5920  0.2577
 2090TIP3   OH227684   3.727   0.449   2.235 -0.4304 -0.0536 -0.4654
 2090TIP3    H127685   3.665   0.521   2.246 -1.3774 -1.1399  2.3065
 2090TIP3    H227686   3.812   0.488   2.257 -1.0363  0.1260  1.8010
 2091TIP3   OH227687   4.336   1.226   3.077 -0.3279 -0.5157 -0.1606
 2091TIP3    H127688   4.344   1.283   3.000  0.7173 -0.8542 -0.3199
 2091TIP3    H227689   4.247   1.192   3.072 -0.2813 -0.5213 -1.2198
 2092TIP3   OH227690   1.776   5.764  14.291 -0.1644 -0.2213  0.4839
 2092TIP3    H127691   1.849   5.729  14.342  1.5396  1.4940 -0.6486
 2092TIP3    H227692   1.749   5.842  14.339  0.8181  0.8602 -0.6498
 2093TIP3   OH227693   5.972   2.052   1.511 -0.3433 -1.0705  0.3476
 2093TIP3    H127694   6.055   2.007   1.528 -0.2377 -0.3504  1.8864
 2093TIP3    H227695   5.946   2.087   1.596 -1.2055  0.4478 -0.4979
 2094TIP3   OH227696   5.316   3.183  12.656  0.4817 -0.3375  0.5247
 2094TIP3    H127697   5.296   3.254  12.716  0.1922  0.9553 -1.0187
 2094TIP3    H227698   5.266   3.108  12.689 -0.9150  0.7604  1.0005
 2095TIP3   OH227699   4.403   3.288  15.713 -0.2554 -0.8577 -0.2508
 2095TIP3    H127700   4.420   3.357  15.649  0.3074 -0.4986  0.2845
 2095TIP3    H227701   4.336   3.325  15.770  0.4230 -0.5481  0.3523
 2096TIP3   OH227702   4.766   0.846   0.395  0.7451  0.2805 -0.2689
 2096TIP3    H127703   4.689   0.789   0.399  1.4506 -0.9303 -2.4556
 2096TIP3    H227704   4.734   0.927   0.353  0.6308 -0.1834 -1.0909
 2097TIP3   OH227705   3.421   5.411  12.540 -0.1650  0.2245  0.1369
 2097TIP3    H127706   3.445   5.395  12.631  0.2253 -2.3939 -0.3443
 2097TIP3    H227707   3.502   5.396  12.491 -0.5677  0.7834 -0.7218
 2098TIP3   OH227708   6.218   6.513   1.762  0.1453  0.4966  0.3600
 2098TIP3    H127709   6.135   6.518   1.715 -0.2331  0.6653  1.0340
 2098TIP3    H227710   6.210   6.434   1.816  0.8309 -0.0583 -0.3243
 2099TIP3   OH227711   2.414   5.261   3.954 -0.3906  0.0497 -0.2167
 2099TIP3    H127712   2.482   5.321   3.922  0.3166 -1.4210 -1.6235
 2099TIP3    H227713   2.332   5.306   3.937  0.1690  1.7809  1.3152
 2100TIP3   OH227714   4.162   2.739   5.142 -0.3305  0.3893 -0.4198
 2100TIP3    H127715   4.147   2.799   5.214  0.3792 -0.1567  0.2028
 2100TIP3    H227716   4.254   2.714   5.150 -0.5521 -0.6093 -0.7878
 2101TIP3   OH227717   3.515   6.051  12.786 -0.2024 -0.5673 -0.4054
 2101TIP3    H127718   3.426   6.046  12.819  0.0118 -0.1212  0.2422
 2101TIP3    H227719   3.550   6.133  12.821  1.0633 -1.6051  0.8628
 2102TIP3   OH227720   5.608   0.005   2.608  0.0574  0.1985 -0.5203
 2102TIP3    H127721   5.614   0.012   2.703  1.1027  0.0817 -0.5593
 2102TIP3    H227722   5.661   0.078   2.575 -1.1370  0.8602 -1.0275
 2103TIP3   OH227723   4.733   6.502   2.497  0.1156  0.0850 -0.2169
 2103TIP3    H127724   4.807   6.562   2.498 -0.3571  0.6651  0.7798
 2103TIP3    H227725   4.762   6.426   2.547  0.1592  0.1657 -0.1196
 2104TIP3   OH227726   5.869   3.899   2.787  0.0347  0.1313 -0.1453
 2104TIP3    H127727   5.891   3.814   2.826  0.5756  0.7549  0.9556
 2104TIP3    H227728   5.917   3.963   2.841  0.7788  1.0414 -1.8246
 2105TIP3   OH227729   2.534   4.004   5.270 -0.9824  0.0743 -0.6449
 2105TIP3    H127730   2.616   3.985   5.223 -0.1628  0.1974  0.6889
 2105TIP3    H227731   2.471   4.024   5.201  0.0257 -0.3516 -1.7203
 2106TIP3   OH227732   5.436   4.703   1.136 -0.4889 -0.0452  0.2049
 2106TIP3    H127733   5.378   4.746   1.074 -0.5272  0.2490  0.4426
 2106TIP3    H227734   5.417   4.744   1.220 -0.3322 -0.3369  0.3867
 2107TIP3   OH227735   3.709   3.852   0.146  0.9938  0.3444 -0.2190
 2107TIP3    H127736   3.648   3.782   0.169 -0.5894  1.4540 -0.8600
 2107TIP3    H227737   3.778   3.847   0.212  0.0164 -0.7294  0.7577
 2108TIP3   OH227738   0.932   0.157  16.573  0.6822  0.0374  0.6722
 2108TIP3    H127739   0.845   0.133  16.606  0.3114  0.4650  0.0250
 2108TIP3    H227740   0.931   0.253  16.570  1.6052  0.1100  1.7842
 2109TIP3   OH227741   2.725   3.803  10.974 -0.0326 -0.1755 -0.7486
 2109TIP3    H127742   2.741   3.845  10.889  1.8675 -2.1474 -1.4650
 2109TIP3    H227743   2.770   3.859  11.037 -0.6484  0.7960 -1.1498
 2110TIP3   OH227744   3.246   4.206  17.206  0.3240  0.3669 -0.2824
 2110TIP3    H127745   3.199   4.279  17.165  0.0082  0.7907  0.7903
 2110TIP3    H227746   3.183   4.134  17.207  0.1183  0.5473  0.0081
 2111TIP3   OH227747   1.178   4.130   0.685 -0.0570 -0.4501  0.2834
 2111TIP3    H127748   1.145   4.199   0.742 -1.4679 -1.1079  0.2938
 2111TIP3    H227749   1.237   4.175   0.625  1.3377  0.2861  2.1171
 2112TIP3   OH227750   4.914   0.345  11.392 -0.5306 -0.6737 -0.4721
 2112TIP3    H127751   4.834   0.338  11.340 -0.4499  0.6038 -0.7890
 2112TIP3    H227752   4.985   0.348  11.328 -0.3286 -0.4679 -0.2435
 2113TIP3   OH227753   5.963   4.083  15.144  0.1608  0.1249  0.5250
 2113TIP3    H127754   5.986   4.169  15.107  1.0164  0.3894  1.6317
 2113TIP3    H227755   5.995   4.086  15.234  1.9116 -2.0290  0.0723
 2114TIP3   OH227756   2.200   1.420  17.145 -0.1190 -0.3020  0.0801
 2114TIP3    H127757   2.146   1.498  17.132  0.1710 -0.1324 -0.1377
 2114TIP3    H227758   2.223   1.392  17.056  0.8276  0.1178  0.1790
 2115TIP3   OH227759   2.229   0.368  12.498 -0.2375 -0.7132 -0.0998
 2115TIP3    H127760   2.216   0.454  12.458 -0.1406 -0.5631  0.1854
 2115TIP3    H227761   2.176   0.308  12.445  0.5420 -0.6659 -0.9608
 2116TIP3   OH227762   4.180   4.919  15.230 -0.0279  0.3097  0.0490
 2116TIP3    H127763   4.093   4.904  15.267 -0.4133  1.1352 -0.4952
 2116TIP3    H227764   4.241   4.880  15.293 -0.8789 -2.4692 -0.7123
 2117TIP3   OH227765   1.626   2.010   3.549 -0.5937 -0.2179 -0.3446
 2117TIP3    H127766   1.538   1.985   3.577 -1.0899  1.4890 -0.2053
 2117TIP3    H227767   1.685   1.962   3.607 -1.3734 -2.1109 -1.0523
 2118TIP3   OH227768   5.569   3.503   4.891  0.4407  0.2590 -0.4769
 2118TIP3    H127769   5.551   3.535   4.979  0.5072  0.7922 -0.6523
 2118TIP3    H227770   5.554   3.409   4.896 -0.1128  0.3666 -0.0410
 2119TIP3   OH227771   3.290   5.848   1.376 -0.3522 -0.0918 -0.2210
 2119TIP3    H127772   3.246   5.918   1.425 -0.2052 -0.1711  0.0271
 2119TIP3    H227773   3.260   5.768   1.419 -0.9621 -0.2111 -0.8598
 2120TIP3   OH227774   3.463   1.111   1.475 -0.5125 -0.3098 -0.5340
 2120TIP3    H127775   3.502   1.042   1.528  0.9603 -0.8961 -2.2730
 2120TIP3    H227776   3.411   1.064   1.409 -1.2673  0.3469 -0.4279
 2121TIP3   OH227777   3.626   1.240  11.561 -0.3475  0.0178  0.1564
 2121TIP3    H127778   3.595   1.323  11.597 -0.3768  0.0805 -0.0124
 2121TIP3    H227779   3.668   1.264  11.478  1.4701  0.1193  1.0621
 2122TIP3   OH227780   6.111   0.475   2.718 -0.1301  0.0426  0.2778
 2122TIP3    H127781   6.159   0.395   2.701 -0.3358 -0.1485  0.5812
 2122TIP3    H227782   6.178   0.544   2.721  0.0933 -0.1818  0.4435
 2123TIP3   OH227783   3.488   4.212  17.383  0.1138  0.6527 -0.2242
 2123TIP3    H127784   3.420   4.226  17.318 -0.9049 -0.4207  0.5785
 2123TIP3    H227785   3.449   4.153  17.447  1.9675 -0.4460 -0.0176
 2124TIP3   OH227786   3.033   2.792  16.990 -0.4370 -0.2801  0.2595
 2124TIP3    H127787   3.045   2.744  16.909 -2.3308 -0.3645 -0.0074
 2124TIP3    H227788   2.989   2.873  16.964  0.1890  0.3355  1.0477
 2125TIP3   OH227789   2.862   2.399   0.263 -0.3150  0.4213 -0.3930
 2125TIP3    H127790   2.957   2.385   0.270 -0.3849 -1.3758 -2.0564
 2125TIP3    H227791   2.824   2.323   0.309 -0.9487  0.7207 -0.4150
 2126TIP3   OH227792   5.324   5.636  15.074  0.0108 -0.0152  0.7006
 2126TIP3    H127793   5.398   5.585  15.042  0.7106  0.3153  1.7475
 2126TIP3    H227794   5.257   5.570  15.094  1.0294 -0.6137  2.3753
 2127TIP3   OH227795   1.588   1.592  16.077 -0.5409  0.0911  0.1529
 2127TIP3    H127796   1.565   1.617  15.987  0.1583 -0.6863 -0.2574
 2127TIP3    H227797   1.641   1.513  16.067 -1.2351 -0.5634  1.2992
 2128TIP3   OH227798   1.043   2.982   2.250 -0.0004 -0.2847  0.2103
 2128TIP3    H127799   1.005   3.060   2.210 -1.7827 -2.3432 -2.4760
 2128TIP3    H227800   1.137   2.991   2.236 -0.0714  1.6524  0.6297
 2129TIP3   OH227801   6.529   6.651   2.832 -0.4558 -0.2255 -0.4763
 2129TIP3    H127802   6.435   6.643   2.851 -0.0471 -1.8760  1.1839
 2129TIP3    H227803   6.555   6.733   2.874 -0.9571 -0.2759 -0.0556
 2130TIP3   OH227804   5.613   0.971   3.846  0.7689 -0.0814  0.0479
 2130TIP3    H127805   5.600   0.920   3.926  0.5145 -0.4701 -0.2392
 2130TIP3    H227806   5.578   0.916   3.776  0.3529  0.5519 -0.2478
 2131TIP3   OH227807   6.073   1.237   4.396  0.4748  0.4211  0.1090
 2131TIP3    H127808   5.988   1.208   4.363 -0.3828  2.0742  0.7497
 2131TIP3    H227809   6.096   1.172   4.463  0.5415 -0.9496 -1.1871
 2132TIP3   OH227810   5.854   6.704   4.955 -0.2429  0.0158  0.7961
 2132TIP3    H127811   5.879   6.672   4.869 -1.3485  0.6559  0.2158
 2132TIP3    H227812   5.921   6.769   4.977 -0.6915  0.8428 -0.2035
 2133TIP3   OH227813   3.273   5.680  12.468  0.0229  0.4584  0.0537
 2133TIP3    H127814   3.185   5.716  12.479  0.0296  0.5559 -0.2105
 2133TIP3    H227815   3.282   5.667  12.374  0.7248  1.5364 -0.0470
 2134TIP3   OH227816   1.826   6.370   5.989  0.0640 -0.5010 -0.2098
 2134TIP3    H127817   1.798   6.303   5.926  0.1561 -2.4365  1.6926
 2134TIP3    H227818   1.849   6.445   5.935 -1.7535 -1.3588 -2.3373
 2135TIP3   OH227819   1.076   1.175   4.269 -0.6229  0.6842  0.4247
 2135TIP3    H127820   1.026   1.158   4.188 -1.0226  0.2998  0.7455
 2135TIP3    H227821   1.009   1.195   4.334 -0.7450 -3.4153  1.8092
 2136TIP3   OH227822   2.796   2.582   3.777 -0.0598  0.1330  0.2333
 2136TIP3    H127823   2.846   2.632   3.841 -1.3340 -1.3300  2.5160
 2136TIP3    H227824   2.843   2.499   3.770 -1.3972 -0.7922  1.4926
 2137TIP3   OH227825   4.840   2.352   4.267 -0.0627  0.2417  0.4573
 2137TIP3    H127826   4.887   2.275   4.297 -0.3761  0.4693  1.5576
 2137TIP3    H227827   4.909   2.416   4.245  0.1599  0.2641  1.2122
 2138TIP3   OH227828   2.118   3.630  11.958  0.0696 -0.0312 -0.0850
 2138TIP3    H127829   2.147   3.668  12.041 -1.2067 -0.0538  0.3969
 2138TIP3    H227830   2.061   3.697  11.919  1.4163  0.3941 -1.4415
 2139TIP3   OH227831   4.347   6.267   3.491  0.3955 -0.0547 -0.1814
 2139TIP3    H127832   4.287   6.332   3.456  1.5187  0.9240 -0.3364
 2139TIP3    H227833   4.290   6.196   3.522 -1.0079  1.7931  1.7230
 2140TIP3   OH227834   6.429   5.342  17.109 -0.0429 -0.2092 -0.4463
 2140TIP3    H127835   6.400   5.433  17.112  1.5646  0.3630 -1.2433
 2140TIP3    H227836   6.420   5.311  17.200 -3.3714 -0.2396 -0.6637
 2141TIP3   OH227837   2.841   3.898  16.903  0.5427 -0.2269  0.5505
 2141TIP3    H127838   2.797   3.813  16.911  0.5528 -0.2512  0.3543
 2141TIP3    H227839   2.810   3.948  16.979 -0.1335 -0.1072  0.2090
 2142TIP3   OH227840   2.140   1.690   5.403  0.1220 -0.1763  0.4816
 2142TIP3    H127841   2.111   1.766   5.353 -1.8832 -0.9587  0.3778
 2142TIP3    H227842   2.126   1.615   5.345  0.6474 -0.7909  1.1186
 2143TIP3   OH227843   3.154   3.528  12.108  0.0789 -0.3829 -0.0939
 2143TIP3    H127844   3.059   3.512  12.109 -0.2478  1.3504  0.6125
 2143TIP3    H227845   3.191   3.449  12.069 -1.6118 -1.3265  0.0981
 2144TIP3   OH227846   0.901   0.491   5.139  0.2528  0.6012 -0.0889
 2144TIP3    H127847   0.987   0.525   5.117  0.4521  0.4182  0.3934
 2144TIP3    H227848   0.911   0.455   5.227 -0.3811  0.8026  0.0686
 2145TIP3   OH227849   2.016   4.804  16.339 -0.1833  0.1875  0.3745
 2145TIP3    H127850   2.051   4.877  16.288 -0.7395 -1.0832 -2.0290
 2145TIP3    H227851   2.020   4.833  16.430  0.0636  2.9818 -0.4353
 2146TIP3   OH227852   6.367   5.079  13.422  0.1572 -0.6978 -0.1824
 2146TIP3    H127853   6.410   5.028  13.353 -1.5591 -2.3196 -0.1446
 2146TIP3    H227854   6.288   5.028  13.444  0.0712  0.3250  2.2131
 2147TIP3   OH227855   5.107   1.522  14.650  0.7701 -0.2952 -0.1566
 2147TIP3    H127856   5.162   1.525  14.571  0.2744  2.2359 -0.4898
 2147TIP3    H227857   5.021   1.495  14.617  0.8488 -0.3839 -0.2918
 2148TIP3   OH227858   1.720   3.867   1.358 -0.3737 -0.1612 -0.0199
 2148TIP3    H127859   1.810   3.836   1.371 -0.1482 -0.7042 -2.4565
 2148TIP3    H227860   1.728   3.962   1.351 -0.0990 -0.1476  0.4234
 2149TIP3   OH227861   4.387   4.400   1.672 -0.5144  0.7146  0.0743
 2149TIP3    H127862   4.481   4.385   1.680 -0.3001  2.0500  0.1558
 2149TIP3    H227863   4.349   4.349   1.744 -0.0976 -1.8073 -1.3899
 2150TIP3   OH227864   6.316   5.182   1.757  0.2479 -0.6064  0.0929
 2150TIP3    H127865   6.399   5.228   1.745 -0.6004  0.9320 -0.1194
 2150TIP3    H227866   6.323   5.144   1.845  0.2674  1.5377  1.0809
 2151TIP3   OH227867   2.030   2.925   0.680  0.0227 -0.2804  0.0246
 2151TIP3    H127868   1.981   2.908   0.761  0.7614 -1.1017  0.3127
 2151TIP3    H227869   2.120   2.937   0.708 -0.0883  2.0881 -0.4166
 2152TIP3   OH227870   6.724   6.718  14.856  0.3855  0.0729 -0.4914
 2152TIP3    H127871   6.633   6.692  14.844  0.2975  0.7553 -1.4103
 2152TIP3    H227872   6.773   6.663  14.794  0.2137  1.8533 -2.3427
 2153TIP3   OH227873   2.829   5.671   3.536 -0.3922 -1.1019 -0.0589
 2153TIP3    H127874   2.885   5.646   3.609 -0.3442  1.4569  0.8579
 2153TIP3    H227875   2.875   5.639   3.458  1.5045 -0.5573  0.7863
 2154TIP3   OH227876   4.934   1.248   4.002  0.2646  0.6871 -0.5010
 2154TIP3    H127877   5.008   1.250   4.063  0.5181 -4.1902 -0.3038
 2154TIP3    H227878   4.866   1.298   4.046  1.3379 -0.3045  2.5065
 2155TIP3   OH227879   5.055   2.519   5.431 -0.5488 -0.3707 -0.7013
 2155TIP3    H127880   5.097   2.572   5.363  2.2839  1.3310  2.0893
 2155TIP3    H227881   5.126   2.467   5.468 -2.0060 -1.3474  0.8814
 2156TIP3   OH227882   4.056   2.910   3.887 -0.0919 -0.6005  0.1473
 2156TIP3    H127883   3.986   2.930   3.825  0.4917 -0.4779 -0.4840
 2156TIP3    H227884   4.022   2.837   3.939 -0.9603 -0.0816  0.3206
 2157TIP3   OH227885   0.175   6.489  15.302  0.1373  0.0894  0.6944
 2157TIP3    H127886   0.158   6.443  15.220 -1.2979  0.5778  0.6773
 2157TIP3    H227887   0.264   6.523  15.294  0.1596 -0.2264 -0.4820
 2158TIP3   OH227888   4.596   2.062  12.253 -0.3648  0.0256 -0.5278
 2158TIP3    H127889   4.646   2.008  12.191  0.5401 -0.1083  0.2979
 2158TIP3    H227890   4.535   2.112  12.198  0.9373  0.4704 -1.6111
 2159TIP3   OH227891   3.514   4.413   2.013  0.2511  0.5289  0.3446
 2159TIP3    H127892   3.464   4.458   1.944 -1.4835 -0.5795  0.8098
 2159TIP3    H227893   3.591   4.380   1.968 -0.2091  0.9302 -0.7877
 2160TIP3   OH227894   6.296   6.336   5.148 -0.2160 -0.2303  0.1385
 2160TIP3    H127895   6.307   6.240   5.148 -1.2369 -0.3633 -0.2376
 2160TIP3    H227896   6.314   6.361   5.057  0.2962 -0.0173  0.2913
 2161TIP3   OH227897   1.634   0.210   3.529 -0.0104  0.0632 -0.1240
 2161TIP3    H127898   1.721   0.197   3.566 -0.0752 -0.4104 -0.1307
 2161TIP3    H227899   1.583   0.135   3.560 -0.2069 -0.0628 -0.7398
 2162TIP3   OH227900   3.449   4.067  11.399 -0.2439 -0.4285  0.1252
 2162TIP3    H127901   3.538   4.096  11.378  0.8453 -1.1298  3.2434
 2162TIP3    H227902   3.440   3.982  11.355  0.7758 -0.5271  0.0867
 2163TIP3   OH227903   1.474   5.054   4.042 -0.5059 -0.2437  0.0219
 2163TIP3    H127904   1.425   4.987   3.993  1.3793 -1.8545  0.2290
 2163TIP3    H227905   1.505   5.114   3.975 -0.1181 -0.9845 -0.4779
 2164TIP3   OH227906   5.819   0.247   4.826 -0.2295 -0.3062  0.6105
 2164TIP3    H127907   5.764   0.180   4.787  0.3844 -0.3912 -0.1379
 2164TIP3    H227908   5.758   0.310   4.864 -0.8504 -0.3417 -0.3000
 2165TIP3   OH227909   6.368   3.397   6.216  0.5193 -0.0454 -0.4463
 2165TIP3    H127910   6.276   3.388   6.192  0.1740 -0.3970  0.8989
 2165TIP3    H227911   6.407   3.445   6.144 -0.6351 -0.2213 -1.2211
 2166TIP3   OH227912   3.000   5.338  16.166 -0.2967 -0.7986  0.3222
 2166TIP3    H127913   3.007   5.313  16.258  0.0572  0.1146  0.5523
 2166TIP3    H227914   2.977   5.431  16.167 -0.9793 -0.9439 -0.5137
 2167TIP3   OH227915   0.263   3.884  13.156  0.2278  0.0197  0.1002
 2167TIP3    H127916   0.272   3.809  13.216  1.6434  2.1793  2.8173
 2167TIP3    H227917   0.350   3.922  13.153 -0.3096  1.2028 -1.7851
 2168TIP3   OH227918   0.022   3.444  17.199  0.2020 -0.8276 -0.4347
 2168TIP3    H127919   0.009   3.494  17.279  0.7566 -2.3902  0.6836
 2168TIP3    H227920  -0.039   3.370  17.206  0.9118 -1.4872 -0.9855
 2169TIP3   OH227921   5.635   2.610  15.850  0.3541  0.4516 -0.0994
 2169TIP3    H127922   5.578   2.665  15.904 -0.6154 -0.8188  0.2432
 2169TIP3    H227923   5.707   2.585  15.907 -0.1474 -0.0730  0.3209
 2170TIP3   OH227924   3.337   3.900   1.892 -0.6081  0.1584 -0.2053
 2170TIP3    H127925   3.430   3.878   1.894 -0.3299  1.2455  1.1315
 2170TIP3    H227926   3.292   3.817   1.906  0.1202 -0.4663 -1.4271
 2171TIP3   OH227927   2.154   3.586  15.254 -0.1471  0.1782  0.0629
 2171TIP3    H127928   2.214   3.626  15.191  1.2180  1.4695  2.0635
 2171TIP3    H227929   2.172   3.493  15.248 -2.0503 -0.1473 -3.3486
 2172TIP3   OH227930   0.777   0.089  14.917 -0.1275 -0.2485 -0.6772
 2172TIP3    H127931   0.732   0.012  14.952 -1.0676  1.2658  1.7577
 2172TIP3    H227932   0.870   0.069  14.924 -0.3603 -1.4015 -0.7450
 2173TIP3   OH227933   5.189   2.287  14.687  1.2066 -0.1937 -0.0368
 2173TIP3    H127934   5.149   2.312  14.770 -0.3419 -1.7611 -0.2622
 2173TIP3    H227935   5.276   2.255  14.711  1.8601  1.9173  0.6194
 2174TIP3   OH227936   0.997   5.377   2.255  0.3617  0.0828 -0.2020
 2174TIP3    H127937   0.920   5.344   2.209  0.5578  0.1278 -0.5713
 2174TIP3    H227938   1.067   5.317   2.230  0.6437  0.5680 -0.5960
 2175TIP3   OH227939   5.108   6.117   5.471  0.0105  0.1117  0.0072
 2175TIP3    H127940   5.098   6.049   5.405 -0.2529 -0.3388  0.5049
 2175TIP3    H227941   5.107   6.199   5.421  1.1223 -0.2668 -0.6795
 2176TIP3   OH227942   4.881   4.183   3.755  0.5784 -0.1015 -0.4999
 2176TIP3    H127943   4.857   4.122   3.685 -0.0230  0.0717 -0.4566
 2176TIP3    H227944   4.863   4.270   3.718 -0.9010 -0.0498  0.2732
 2177TIP3   OH227945   5.982   5.304  15.641  0.3728  0.2146 -0.0335
 2177TIP3    H127946   5.912   5.346  15.690  0.5398  0.8139 -0.3051
 2177TIP3    H227947   6.045   5.277  15.708  0.0389 -0.0426  0.1820
 2178TIP3   OH227948   0.030   2.618  16.012 -0.6947 -0.1223 -0.4055
 2178TIP3    H127949   0.080   2.669  15.948 -0.8365  1.4281  0.6718
 2178TIP3    H227950   0.097   2.581  16.071 -0.7014  0.6272  0.0860
 2179TIP3   OH227951   4.020   5.892   1.932 -0.0998  0.6421 -1.0307
 2179TIP3    H127952   4.025   5.809   1.980  0.1401  1.3926  0.2822
 2179TIP3    H227953   3.958   5.874   1.861  0.6303 -0.9188 -1.3234
 2180TIP3   OH227954   5.739   0.766  11.741  0.0159  0.4878 -0.3530
 2180TIP3    H127955   5.701   0.823  11.673  0.8227  0.8425 -0.5141
 2180TIP3    H227956   5.681   0.690  11.742  0.7909 -0.2016 -2.4745
 2181TIP3   OH227957   5.948   5.435  14.238 -0.4826 -0.2929  0.0720
 2181TIP3    H127958   5.941   5.383  14.158 -2.3365  2.4174 -1.6818
 2181TIP3    H227959   5.883   5.397  14.297 -0.3575 -1.1949 -0.3423
 2182TIP3   OH227960   4.072   0.750   1.957 -0.0381 -0.1892 -0.7557
 2182TIP3    H127961   4.166   0.762   1.971  0.2326 -1.8192 -1.0587
 2182TIP3    H227962   4.065   0.686   1.886 -1.3861  0.1265 -0.9496
 2183TIP3   OH227963   2.165   5.757  12.203 -0.0263  0.0370 -0.2434
 2183TIP3    H127964   2.108   5.697  12.251 -1.4202  0.1539 -1.6441
 2183TIP3    H227965   2.114   5.780  12.125  1.6630  0.7588 -1.1811
 2184TIP3   OH227966   2.133   1.339   4.414 -0.0343  0.2849  0.2183
 2184TIP3    H127967   2.088   1.379   4.339  0.9408 -1.5843 -1.4823
 2184TIP3    H227968   2.224   1.333   4.386  0.5055  0.1621  1.8858
 2185TIP3   OH227969   0.631   2.338  16.007  0.3354 -0.1659 -0.5250
 2185TIP3    H127970   0.674   2.395  15.943  0.5682 -0.3143 -0.5021
 2185TIP3    H227971   0.686   2.343  16.085  0.3784 -0.4533 -0.5371
 2186TIP3   OH227972   2.496   0.943   4.530 -0.5272  0.2902 -0.1367
 2186TIP3    H127973   2.412   0.989   4.538 -0.1281  1.0083 -0.0060
 2186TIP3    H227974   2.477   0.854   4.560 -1.2972  0.3810 -0.3344
 2187TIP3   OH227975   3.770   0.376  11.059 -0.7062 -0.1596  0.1361
 2187TIP3    H127976   3.801   0.458  11.020  0.2957 -0.3503  0.4936
 2187TIP3    H227977   3.765   0.315  10.986 -2.2872  0.4211 -0.2887
 2188TIP3   OH227978   1.479   3.982   3.603 -0.0418 -0.1861 -0.5778
 2188TIP3    H127979   1.388   3.973   3.633  0.1086 -0.7262 -0.2604
 2188TIP3    H227980   1.477   4.056   3.543 -0.4867  0.4907  0.2529
 2189TIP3   OH227981   2.760   0.300  15.657  0.3700 -0.0218 -0.5599
 2189TIP3    H127982   2.847   0.309  15.618  0.5431  2.1473  0.1996
 2189TIP3    H227983   2.777   0.285  15.750 -0.0633  0.8748 -0.3320
 2190TIP3   OH227984   6.566   1.035  15.571 -0.1020 -0.1534 -0.8251
 2190TIP3    H127985   6.518   0.975  15.514 -1.6649 -0.0067  0.3013
 2190TIP3    H227986   6.559   1.120  15.526 -3.2107  0.4409  0.5145
 2191TIP3   OH227987   5.806   4.785  16.988  0.2889  0.0736  0.1652
 2191TIP3    H127988   5.789   4.879  16.995  0.5617  0.2841 -1.5595
 2191TIP3    H227989   5.852   4.762  17.068  1.8471  1.7903 -0.1925
 2192TIP3   OH227990   2.482   0.081  17.155  1.2273 -0.2184  0.0764
 2192TIP3    H127991   2.504   0.172  17.178  1.8869 -0.4006  0.1927
 2192TIP3    H227992   2.449   0.043  17.236  0.7907 -0.0400 -0.0137
 2193TIP3   OH227993   6.149   3.346  11.669  0.3837 -0.1327 -0.2769
 2193TIP3    H127994   6.161   3.339  11.574 -0.8747 -0.8927 -0.3980
 2193TIP3    H227995   6.082   3.414  11.680  0.1012 -0.4538  0.0304
 2194TIP3   OH227996   1.568   4.945  12.231 -0.3025 -0.0055  0.1115
 2194TIP3    H127997   1.567   4.887  12.155 -1.8910 -0.0745  0.1527
 2194TIP3    H227998   1.476   4.967  12.246  0.0392  0.5299  1.6275
 2195TIP3   OH227999   2.731   4.944   3.331 -0.2540 -0.9173  0.1273
 2195TIP3    H128000   2.806   4.885   3.327  0.7468  0.3682 -2.5960
 2195TIP3    H228001   2.769   5.031   3.318 -2.0628 -0.0673  0.2489
 2196TIP3   OH228002   2.252   0.733  17.179 -0.0789 -0.0719  0.3081
 2196TIP3    H128003   2.192   0.771  17.115 -0.6511 -0.3289  0.6855
 2196TIP3    H228004   2.280   0.808  17.233 -1.0089 -0.1282  0.8921
 2197TIP3   OH228005   3.658   4.088  13.303  0.3465  0.1402  0.5343
 2197TIP3    H128006   3.702   4.113  13.385  0.2713  2.8310 -0.1297
 2197TIP3    H228007   3.656   4.169  13.252 -0.6198 -1.1947 -1.6898
 2198TIP3   OH228008   6.672   0.421   0.237 -0.1947 -0.0884  0.8772
 2198TIP3    H128009   6.733   0.347   0.232  0.5031  0.4881  0.7040
 2198TIP3    H228010   6.615   0.410   0.161  1.0928  0.5649 -0.2293
 2199TIP3   OH228011   0.418   3.821  15.535  0.6446  0.0523 -0.8540
 2199TIP3    H128012   0.341   3.854  15.489  0.0395  0.6410  0.5364
 2199TIP3    H228013   0.484   3.889  15.522  1.1419 -0.6623 -2.4435
 2200TIP3   OH228014   5.678   3.888   0.622 -0.5528 -0.6363 -0.5745
 2200TIP3    H128015   5.667   3.896   0.527 -1.0006 -1.8840 -0.6390
 2200TIP3    H228016   5.765   3.923   0.639 -1.4150  2.0229 -1.0831
 2201TIP3   OH228017   5.750   3.451  13.169 -0.1922 -0.2536  0.3246
 2201TIP3    H128018   5.790   3.475  13.252  0.0253  1.2487 -0.1924
 2201TIP3    H228019   5.724   3.359  13.181  1.1484 -0.5125  1.5285
 2202TIP3   OH228020   6.376   5.334   5.036 -0.2601  0.4502  0.1256
 2202TIP3    H128021   6.459   5.372   5.008 -1.3830  1.8067 -1.5897
 2202TIP3    H228022   6.344   5.393   5.104  0.1620 -0.1076  0.8320
 2203TIP3   OH228023   2.640   1.199  15.254 -0.0282  0.1333 -0.0062
 2203TIP3    H128024   2.715   1.246  15.217  0.0681  1.4622  1.7714
 2203TIP3    H228025   2.678   1.144  15.323 -0.4377 -0.9048 -0.5840
 2204TIP3   OH228026   0.032   4.553  12.361 -0.9982 -0.3190 -0.5952
 2204TIP3    H128027   0.052   4.498  12.285  0.1540  0.3135 -0.7800
 2204TIP3    H228028   0.070   4.506  12.435 -0.3101  0.0371 -0.7083
 2205TIP3   OH228029   0.792   6.640  10.808 -0.7264  0.1842  0.5246
 2205TIP3    H128030   0.784   6.553  10.846  0.3654 -1.0476 -1.8265
 2205TIP3    H228031   0.722   6.644  10.742 -0.9519  1.2146  0.8076
 2206TIP3   OH228032   3.820   5.238  11.368 -0.1929  0.0445 -0.1283
 2206TIP3    H128033   3.856   5.150  11.375 -0.0495  0.1557  0.6532
 2206TIP3    H228034   3.730   5.225  11.337 -0.6718 -0.4981  1.3764
 2207TIP3   OH228035   2.999   3.315   3.857  0.3372 -0.0927  0.1227
 2207TIP3    H128036   3.037   3.373   3.791 -0.0383  1.0706  0.8885
 2207TIP3    H228037   2.965   3.241   3.807  2.2108 -0.4434 -0.7400
 2208TIP3   OH228038   5.534   1.468   4.900 -0.5212  0.8598 -0.3767
 2208TIP3    H128039   5.564   1.390   4.853 -2.4668 -0.0442 -0.1999
 2208TIP3    H228040   5.527   1.439   4.991  1.3672  2.0656  0.2183
 2209TIP3   OH228041   4.670   5.961   6.418 -0.0480  0.4470 -0.5490
 2209TIP3    H128042   4.727   6.010   6.477  0.1130  0.6013 -0.8288
 2209TIP3    H228043   4.723   5.946   6.340  0.2603 -1.0849 -0.0758
 2210TIP3   OH228044   1.346   1.993  15.548  0.0501  0.0156  0.4234
 2210TIP3    H128045   1.407   1.942  15.600 -0.5799 -0.2436  0.9214
 2210TIP3    H228046   1.379   2.083  15.553  2.2092 -0.5143 -1.9479
 2211TIP3   OH228047   4.118   3.459  17.427  0.2446  0.1632  0.1904
 2211TIP3    H128048   4.046   3.521  17.418 -0.1261 -0.2302  0.4231
 2211TIP3    H228049   4.197   3.514  17.425 -0.1375  0.8803  2.4344
 2212TIP3   OH228050   1.304   2.580   3.972 -0.1057  0.2003  0.4222
 2212TIP3    H128051   1.378   2.535   4.013 -0.1294  2.0522  2.7143
 2212TIP3    H228052   1.236   2.578   4.039 -2.5671 -2.1474 -1.8911
 2213TIP3   OH228053   3.127   1.741  15.466  0.8289  0.2093 -0.0260
 2213TIP3    H128054   3.187   1.747  15.392  1.8907 -1.5789  0.6274
 2213TIP3    H228055   3.105   1.648  15.472 -0.1633  0.4904  1.1841
 2214TIP3   OH228056   1.371   0.032   1.266 -0.0681 -0.3237 -0.1277
 2214TIP3    H128057   1.350   0.123   1.244  0.9227 -0.0615 -0.0400
 2214TIP3    H228058   1.399   0.035   1.357  1.6353 -0.4102 -0.6097
 2215TIP3   OH228059   4.554   2.973  16.104 -0.2834  0.1673 -0.2218
 2215TIP3    H128060   4.465   2.980  16.070  0.1349 -0.3070 -1.4985
 2215TIP3    H228061   4.561   2.883  16.135 -0.0693  0.0122 -0.7049
 2216TIP3   OH228062   0.532   2.642  11.436 -0.2545 -0.2142 -0.2993
 2216TIP3    H128063   0.480   2.585  11.379 -1.4810 -1.8329  2.2482
 2216TIP3    H228064   0.511   2.731  11.407 -0.3435 -0.9546 -2.6994
 2217TIP3   OH228065   5.199   5.982  15.306  0.4370 -0.0822 -0.4084
 2217TIP3    H128066   5.181   5.910  15.366 -0.7693  1.4421  1.1604
 2217TIP3    H228067   5.241   6.049  15.360  2.0250  0.2242 -1.9446
 2218TIP3   OH228068   6.693   2.728  11.259 -0.2621  0.1497 -0.0426
 2218TIP3    H128069   6.617   2.697  11.210  1.6694 -1.7724 -2.0735
 2218TIP3    H228070   6.748   2.650  11.269  0.9667  1.2391  2.3304
 2219TIP3   OH228071   5.429   3.528  16.293  0.0704 -0.1057 -0.3698
 2219TIP3    H128072   5.434   3.557  16.384 -0.8526  1.2563 -0.7290
 2219TIP3    H228073   5.477   3.595  16.244 -0.3900 -0.2355 -1.0111
 2220TIP3   OH228074   5.944   1.227  11.339 -0.2367 -0.1191  0.0529
 2220TIP3    H128075   5.921   1.240  11.247 -0.3154  1.4997  0.2776
 2220TIP3    H228076   5.997   1.147  11.339 -2.9912 -2.1198 -0.9175
 2221TIP3   OH228077   3.135   1.352  17.176  0.0914 -0.2970 -0.3368
 2221TIP3    H128078   3.201   1.397  17.123  0.6369  0.0823  0.6507
 2221TIP3    H228079   3.076   1.422  17.204 -0.1894 -0.4985 -0.4273
 2222TIP3   OH228080   4.590   5.807   1.748  0.2599  0.3697 -0.2505
 2222TIP3    H128081   4.642   5.865   1.694  0.5339  0.3074 -0.0537
 2222TIP3    H228082   4.604   5.720   1.711  0.4718  0.3231 -0.0570
 2223TIP3   OH228083   5.127   0.766  14.245  0.1371 -0.3639 -0.3320
 2223TIP3    H128084   5.083   0.746  14.163 -0.7684  0.2861 -0.0254
 2223TIP3    H228085   5.220   0.770  14.222 -0.2271  1.7296 -1.7555
 2224TIP3   OH228086   6.280   5.443  16.237  0.0999 -0.1047 -0.0367
 2224TIP3    H128087   6.359   5.418  16.188 -0.3367  0.5163 -1.0886
 2224TIP3    H228088   6.300   5.419  16.327  1.0966 -0.8970 -0.4414
 2225TIP3   OH228089   4.515   3.883   2.791 -0.2869 -0.1034 -0.7156
 2225TIP3    H128090   4.579   3.887   2.862 -0.6233 -1.8597 -0.2717
 2225TIP3    H228091   4.437   3.925   2.826  0.1023  0.6059 -0.6850
 2226TIP3   OH228092   3.304   1.361   5.239 -0.0984  0.2422 -0.4550
 2226TIP3    H128093   3.213   1.334   5.229 -0.5962  2.3984 -2.8457
 2226TIP3    H228094   3.305   1.414   5.318 -1.3971  1.6953 -1.3465
 2227TIP3   OH228095   0.954   3.832   3.893 -0.1592 -0.1352 -0.8629
 2227TIP3    H128096   1.020   3.779   3.938 -0.3579 -0.8159 -1.3713
 2227TIP3    H228097   0.897   3.864   3.963 -0.1187 -0.7021 -0.5680
 2228TIP3   OH228098   4.827   1.694   5.897  0.1304 -0.7230  0.0578
 2228TIP3    H128099   4.820   1.783   5.932 -1.4060 -0.9937  0.5331
 2228TIP3    H228100   4.894   1.653   5.951  0.9957  0.1906 -0.2897
 2229TIP3   OH228101   1.968   1.792  14.728  0.5305 -0.0737  0.0417
 2229TIP3    H128102   1.884   1.838  14.721  0.1226 -0.6703  0.8010
 2229TIP3    H228103   1.954   1.728  14.798  0.8178 -1.9286 -1.5246
 2230TIP3   OH228104   1.615   1.351   4.265 -0.1986  0.2221 -0.4875
 2230TIP3    H128105   1.635   1.342   4.358 -2.5816  0.2893  0.0953
 2230TIP3    H228106   1.698   1.333   4.221  0.5590 -1.7407  1.5501
 2231TIP3   OH228107   4.494   1.287  16.042 -0.5602  0.3503  0.6136
 2231TIP3    H128108   4.508   1.238  16.123  0.7993 -0.9286 -0.3474
 2231TIP3    H228109   4.503   1.379  16.068  0.0296 -0.0368  1.8772
 2232TIP3   OH228110   3.998   5.868  16.967  0.2327  0.0216 -0.4956
 2232TIP3    H128111   4.086   5.905  16.973  0.0759  0.3806 -0.3846
 2232TIP3    H228112   4.007   5.779  17.001  0.2074  0.6261  1.1937
 2233TIP3   OH228113   6.252   2.332  15.876 -0.2926  0.4196 -0.1451
 2233TIP3    H128114   6.343   2.305  15.889 -1.1171 -2.0115  1.1335
 2233TIP3    H228115   6.224   2.363  15.962 -0.7903  0.8157 -0.4457
 2234TIP3   OH228116   0.100   3.259   2.303  0.0340  0.1334  0.4094
 2234TIP3    H128117   0.138   3.308   2.375  0.1085  0.2321  0.3042
 2234TIP3    H228118   0.141   3.296   2.225  0.9340 -0.8571  0.3878
 2235TIP3   OH228119   3.616   2.890  15.881 -0.1574  0.0380 -1.4030
 2235TIP3    H128120   3.549   2.828  15.911  0.7299 -0.7700 -1.0229
 2235TIP3    H228121   3.600   2.970  15.930 -1.7756  0.3820 -2.4281
 2236TIP3   OH228122   6.148   1.520  11.763 -0.5528  0.3201  0.2938
 2236TIP3    H128123   6.120   1.456  11.698 -2.0193 -0.4907  1.6474
 2236TIP3    H228124   6.140   1.475  11.847 -3.1072  2.6151  1.4758
 2237TIP3   OH228125   0.703   5.241   5.449 -0.4204 -0.2724  0.0219
 2237TIP3    H128126   0.611   5.224   5.470 -0.2622 -1.3783 -0.0923
 2237TIP3    H228127   0.750   5.219   5.529 -0.3385  1.4903  0.4965
 2238TIP3   OH228128   2.047   5.345  12.509  0.6198 -0.1550 -0.2756
 2238TIP3    H128129   2.017   5.256  12.523  1.8790 -0.3692  1.3310
 2238TIP3    H228130   1.969   5.393  12.479  0.1187 -1.9327 -2.0478
 2239TIP3   OH228131   1.727   3.560   4.454 -0.5324 -0.1998 -0.3905
 2239TIP3    H128132   1.769   3.617   4.390 -1.8169  1.1950 -0.0214
 2239TIP3    H228133   1.793   3.549   4.523 -0.7080  1.9452  0.1747
 2240TIP3   OH228134   6.264   3.229  12.699  0.0834 -0.3848  0.0921
 2240TIP3    H128135   6.196   3.175  12.738 -0.7001  0.5646  0.0780
 2240TIP3    H228136   6.225   3.263  12.619  1.3033 -1.4649 -1.0172
 2241TIP3   OH228137   3.747   4.938   1.481  0.0355  0.9689  0.0543
 2241TIP3    H128138   3.802   4.882   1.426 -2.3047 -1.1488 -0.2801
 2241TIP3    H228139   3.662   4.895   1.482 -1.9138  4.4314 -0.0225
 2242TIP3   OH228140   1.441   2.769  14.528 -0.0180  0.6567 -0.6578
 2242TIP3    H128141   1.516   2.828  14.529 -0.7026  1.5513  0.4210
 2242TIP3    H228142   1.455   2.714  14.451  0.8175  2.0050 -1.5146
 2243TIP3   OH228143   5.827   3.139  13.467 -0.2117  0.1385  0.2869
 2243TIP3    H128144   5.829   3.234  13.456 -2.3430  0.4122  1.8233
 2243TIP3    H228145   5.914   3.117  13.502  0.3397  1.4855 -0.1841
 2244TIP3   OH228146   6.529   4.397  16.147  0.1219  0.7377 -0.4030
 2244TIP3    H128147   6.554   4.487  16.123 -2.8835  2.2904  1.6158
 2244TIP3    H228148   6.482   4.365  16.070  0.0506  1.4219 -0.6581
 2245TIP3   OH228149   1.405   2.569  15.297  0.2777 -0.0675 -0.4154
 2245TIP3    H128150   1.421   2.636  15.363 -1.4754 -1.0219  1.0867
 2245TIP3    H228151   1.490   2.525  15.287  1.1652  1.6050 -0.6177
 2246TIP3   OH228152   4.092   3.605  11.333 -0.0586  0.1997  0.0027
 2246TIP3    H128153   4.186   3.589  11.319  1.1183  1.4674  4.6376
 2246TIP3    H228154   4.054   3.518  11.339  0.8362 -0.3460 -1.6491
 2247TIP3   OH228155   0.534   5.103  17.327  0.5117 -0.0348  0.9394
 2247TIP3    H128156   0.439   5.107  17.327  0.4390 -0.6631 -1.3396
 2247TIP3    H228157   0.561   5.173  17.268  1.3636 -1.0114  0.1436
 2248TIP3   OH228158   4.969   6.570   4.675  0.0949 -0.4387 -0.2612
 2248TIP3    H128159   4.901   6.623   4.633  0.7225 -0.5612 -1.4718
 2248TIP3    H228160   5.050   6.619   4.659  0.4348 -0.8357  0.2278
 2249TIP3   OH228161   6.327   3.861  16.436  0.4388 -0.1046  0.2076
 2249TIP3    H128162   6.318   3.949  16.471 -2.9871 -0.3711  0.3032
 2249TIP3    H228163   6.259   3.855  16.368  1.4138 -2.2722 -0.6777
 2250TIP3   OH228164   5.601   5.181   6.554  0.3804  0.0886 -0.3057
 2250TIP3    H128165   5.590   5.269   6.517  1.5407  0.4027  0.0371
 2250TIP3    H228166   5.611   5.124   6.478 -0.2825  0.2646 -0.5283
 2251TIP3   OH228167   3.334   1.073  12.180 -0.0674  0.3071 -0.2557
 2251TIP3    H128168   3.326   1.167  12.199 -2.6758 -0.2067  1.8087
 2251TIP3    H228169   3.247   1.047  12.152  0.7859 -1.4290 -1.4501
 2252TIP3   OH228170   3.098   2.481   2.857 -0.3820  0.1685 -0.3518
 2252TIP3    H128171   3.013   2.521   2.874 -1.3959 -2.2626  0.8616
 2252TIP3    H228172   3.082   2.419   2.786  0.3333 -0.3939 -0.0438
 2253TIP3   OH228173   4.171   3.204  16.120  0.7772  0.3988 -0.1402
 2253TIP3    H128174   4.147   3.191  16.029  1.2461  0.5135 -0.2818
 2253TIP3    H228175   4.244   3.266  16.117  0.4868  0.7739  0.3395
 2254TIP3   OH228176   2.769   2.986  15.060 -0.4680  0.6764  0.0328
 2254TIP3    H128177   2.778   2.974  15.154  0.4091  2.1167  0.1531
 2254TIP3    H228178   2.836   3.051  15.037 -2.1590  2.0892 -1.1998
 2255TIP3   OH228179   5.808   0.968  15.105 -0.6153  0.1536  0.3724
 2255TIP3    H128180   5.873   1.026  15.065 -1.0371  0.4588  0.1226
 2255TIP3    H228181   5.724   1.011  15.090 -0.8850 -0.2634  0.6451
 2256TIP3   OH228182   1.523   0.153  12.068 -0.1405 -0.5192  0.4665
 2256TIP3    H128183   1.451   0.098  12.036  0.0854 -0.2514 -0.5604
 2256TIP3    H228184   1.552   0.111  12.148 -0.9821 -1.0265  0.5215
 2257TIP3   OH228185   2.676   0.100  15.131  0.1406 -0.1917 -0.0257
 2257TIP3    H128186   2.629   0.165  15.184 -0.8487 -0.7108 -0.2338
 2257TIP3    H228187   2.651   0.120  15.040 -0.3423 -0.9741 -0.0778
 2258TIP3   OH228188   1.589   4.768   6.951 -0.4889  0.1202 -0.3907
 2258TIP3    H128189   1.516   4.810   6.905  0.0789  0.7102 -0.7605
 2258TIP3    H228190   1.664   4.826   6.936  0.4621 -1.3143 -1.3893
 2259TIP3   OH228191   4.217   0.076   1.012 -0.6417 -0.1869  0.7816
 2259TIP3    H128192   4.262   0.114   1.087 -1.5862  2.4191  0.1427
 2259TIP3    H228193   4.231   0.138   0.941 -2.8742 -0.6558 -0.1795
 2260TIP3   OH228194   3.764   1.026  13.115 -0.2425  0.4711 -0.1174
 2260TIP3    H128195   3.852   1.004  13.145 -1.1985 -2.2754  0.9763
 2260TIP3    H228196   3.778   1.078  13.035  2.3206  0.4817  0.2549
 2261TIP3   OH228197   3.555   3.677  16.604 -0.0253 -0.1069  0.0082
 2261TIP3    H128198   3.536   3.583  16.606  1.5607 -0.4439  0.1736
 2261TIP3    H228199   3.496   3.715  16.670 -0.2102 -1.0656  0.4105
 2262TIP3   OH228200   0.200   4.529  15.188 -0.0899 -0.5605  0.3204
 2262TIP3    H128201   0.215   4.436  15.169  0.8390 -0.2111 -0.7274
 2262TIP3    H228202   0.246   4.576  15.119  1.3169  0.7272  2.0290
 2263TIP3   OH228203   1.628   4.421   0.938 -0.0332  0.1168  0.5645
 2263TIP3    H128204   1.567   4.468   0.995 -1.8703 -2.1546  0.6034
 2263TIP3    H228205   1.592   4.432   0.850  0.2926 -0.0956  0.4044
 2264TIP3   OH228206   5.229   0.145   4.457  0.1602 -0.7385  0.4942
 2264TIP3    H128207   5.195   0.145   4.368 -1.8039 -0.5831  1.2039
 2264TIP3    H228208   5.286   0.222   4.461 -0.2412 -0.3771 -0.4353
 2265TIP3   OH228209   3.718   5.905  15.757  0.3567 -0.3756 -0.1787
 2265TIP3    H128210   3.658   5.969  15.717  2.7678  2.2734  0.1121
 2265TIP3    H228211   3.690   5.821  15.721 -1.8842  1.0288 -2.0457
 2266TIP3   OH228212   5.518   1.387  17.026  0.5319 -0.4267 -0.3476
 2266TIP3    H128213   5.552   1.465  17.071 -1.6961  0.6702 -0.3813
 2266TIP3    H228214   5.585   1.363  16.963  0.4784  2.8151 -1.8504
 2267TIP3   OH228215   5.452   1.714   2.947 -0.5056  0.5453 -0.1660
 2267TIP3    H128216   5.398   1.653   2.897  0.1431 -0.9893  0.9482
 2267TIP3    H228217   5.398   1.793   2.953 -2.4122 -0.7170  0.3577
 2268TIP3   OH228218   5.435   2.641  13.392  0.2499 -0.8400  0.2218
 2268TIP3    H128219   5.409   2.550  13.398 -0.7286 -0.6421 -0.7968
 2268TIP3    H228220   5.353   2.690  13.382  0.6449  0.2931  2.0967
 2269TIP3   OH228221   6.385   5.490  14.300  0.3957  0.1367  0.6895
 2269TIP3    H128222   6.396   5.569  14.354  3.8445 -1.5039  2.7111
 2269TIP3    H228223   6.313   5.443  14.341 -1.5670  2.0013 -0.4139
 2270TIP3   OH228224   5.232   0.896   3.000  0.1608 -0.1999  0.2003
 2270TIP3    H128225   5.299   0.964   2.990  1.0890 -0.9961  0.8314
 2270TIP3    H228226   5.250   0.857   3.086 -0.6545 -0.9205  0.0567
 2271TIP3   OH228227   3.078   4.142  13.011 -0.0194  0.0293 -0.0941
 2271TIP3    H128228   3.042   4.057  12.987 -1.8246  0.7352 -0.0642
 2271TIP3    H228229   3.090   4.188  12.928  0.7922 -0.1909 -0.1002
 2272TIP3   OH228230   3.200   4.269  14.273  0.3815 -0.5152  0.0353
 2272TIP3    H128231   3.200   4.363  14.252 -0.4816 -0.5900 -0.3370
 2272TIP3    H228232   3.129   4.259  14.336 -1.4991 -1.3537 -2.0862
 2273TIP3   OH228233   3.363   4.566   3.024  0.1932 -0.1986  0.2151
 2273TIP3    H128234   3.397   4.487   2.983  0.1622  0.5916 -1.3899
 2273TIP3    H228235   3.331   4.537   3.109 -0.4219 -2.0295 -0.6056
 2274TIP3   OH228236   3.363   2.207  16.687 -0.0805 -0.1141 -0.2851
 2274TIP3    H128237   3.320   2.279  16.733 -1.6590 -1.8386  1.1311
 2274TIP3    H228238   3.435   2.181  16.744  0.3928  0.2056 -0.7220
 2275TIP3   OH228239   4.168   0.880   4.030 -0.0309  0.2597 -0.3131
 2275TIP3    H128240   4.245   0.828   4.050 -0.3035  0.1382  0.4300
 2275TIP3    H228241   4.182   0.964   4.074 -1.0822 -0.3622  1.2734
 2276TIP3   OH228242   1.910   6.004  14.553  0.7143 -0.0750  0.2389
 2276TIP3    H128243   2.001   6.006  14.524  0.4096  0.0501 -0.7444
 2276TIP3    H228244   1.859   6.009  14.472 -0.1664 -0.0100  0.7869
 2277TIP3   OH228245   4.152   4.769   5.919 -0.2784 -0.0376  0.2623
 2277TIP3    H128246   4.124   4.759   6.010 -0.8882 -0.6523  0.0089
 2277TIP3    H228247   4.239   4.809   5.926 -1.0436  1.6172  1.0568
 2278TIP3   OH228248   4.802   6.102   6.194 -0.2208  0.8171  0.1054
 2278TIP3    H128249   4.722   6.081   6.145  0.6053  1.3851 -1.5913
 2278TIP3    H228250   4.871   6.053   6.148  0.5771  1.2897  0.7861
 2279TIP3   OH228251   0.625   5.244  14.454  0.4895  0.2916 -0.5055
 2279TIP3    H128252   0.555   5.304  14.426  0.8140  1.3449  0.8130
 2279TIP3    H228253   0.584   5.187  14.518  0.8279  0.9583  0.3250
 2280TIP3   OH228254   4.671   1.052  17.216 -0.0014  0.2280 -0.5970
 2280TIP3    H128255   4.622   1.025  17.138  0.3911  0.5810 -0.9693
 2280TIP3    H228256   4.730   1.120  17.185  1.5264 -0.9412 -0.3981
 2281TIP3   OH228257   2.115   6.695   3.699  0.0898 -0.1058  0.1914
 2281TIP3    H128258   2.130   6.600   3.692  0.8877 -0.1479  1.8543
 2281TIP3    H228259   2.191   6.734   3.657 -0.6890 -0.1537 -1.3378
 2282TIP3   OH228260   0.082   3.032  16.019  0.0487 -0.0062 -0.5496
 2282TIP3    H128261   0.064   2.949  15.976  2.5491 -0.4514 -0.8900
 2282TIP3    H228262   0.070   3.014  16.112 -1.3778 -0.1635 -0.7430
 2283TIP3   OH228263   1.492   5.755  13.274  1.0133  0.2559  0.2929
 2283TIP3    H128264   1.436   5.808  13.217  0.6004 -0.8808 -0.4067
 2283TIP3    H228265   1.545   5.703  13.213  0.2881 -1.2821  0.9090
 2284TIP3   OH228266   1.065   3.941   5.858  0.1395 -0.0027 -0.2967
 2284TIP3    H128267   1.119   4.011   5.894  0.0328  0.4384 -0.9783
 2284TIP3    H228268   1.127   3.878   5.822  0.2142  0.6125 -1.2802
 2285TIP3   OH228269   0.469   3.894  15.213  0.1857  0.3110 -0.0209
 2285TIP3    H128270   0.494   3.802  15.203  2.2681  0.3651  3.3041
 2285TIP3    H228271   0.377   3.891  15.239  0.6099 -0.9966  1.4898
 2286TIP3   OH228272   3.825   0.985   0.960  0.0224  0.4772 -0.0047
 2286TIP3    H128273   3.801   0.895   0.941  0.9861  0.4272 -1.1043
 2286TIP3    H228274   3.760   1.038   0.913  0.8989  0.3367 -1.4508
 2287TIP3   OH228275   0.401   4.236   4.929  0.2982  0.3152  0.2170
 2287TIP3    H128276   0.319   4.196   4.957  1.3780 -1.4900  0.9939
 2287TIP3    H228277   0.407   4.216   4.836 -0.5061  1.1655 -0.0288
 2288TIP3   OH228278   5.606   3.338   1.627  0.1465  0.3140  0.0338
 2288TIP3    H128279   5.512   3.330   1.644  0.1668  2.4771  1.5029
 2288TIP3    H228280   5.647   3.284   1.695 -0.0004 -0.0942 -0.1959
 2289TIP3   OH228281   1.359   4.654   0.854  0.5532  0.3569  0.0198
 2289TIP3    H128282   1.319   4.605   0.925  2.4345  0.0105  0.9067
 2289TIP3    H228283   1.404   4.588   0.801 -0.1381  0.7097 -1.0348
 2290TIP3   OH228284   6.459   1.332  11.694  0.3943 -0.2089 -0.1603
 2290TIP3    H128285   6.479   1.405  11.752  2.0336 -1.0038  0.3305
 2290TIP3    H228286   6.483   1.363  11.607  1.5527 -0.2947  0.1072
 2291TIP3   OH228287   2.791   3.451  13.153  0.2942  0.2301  0.4881
 2291TIP3    H128288   2.760   3.459  13.243 -0.3122 -0.0479  0.3036
 2291TIP3    H228289   2.846   3.373  13.153  1.3206  0.9290  0.8993
 2292TIP3   OH228290   1.218   0.325  11.740  0.2105  0.2254  0.6477
 2292TIP3    H128291   1.249   0.235  11.734 -0.2401  0.0910  0.2418
 2292TIP3    H228292   1.274   0.374  11.680 -0.2498  0.0123  0.0345
 2293TIP3   OH228293   1.544   0.320   2.312  0.1482 -0.5637 -0.0942
 2293TIP3    H128294   1.508   0.379   2.377 -0.1751  0.6652 -1.3413
 2293TIP3    H228295   1.493   0.239   2.322  1.5196 -1.1971  2.5558
 2294TIP3   OH228296   6.045   4.736   6.040  0.3018  0.2130  0.3869
 2294TIP3    H128297   6.029   4.743   6.134 -1.4867 -0.3368  0.1650
 2294TIP3    H228298   6.116   4.797   6.023 -1.1183  2.3713  1.6834
 2295TIP3   OH228299   1.865   2.138   1.787 -0.0927 -0.9146  0.1597
 2295TIP3    H128300   1.951   2.179   1.775 -0.3181 -0.2000  0.8906
 2295TIP3    H228301   1.885   2.047   1.809  0.4472 -0.9794 -0.5604
 2296TIP3   OH228302   6.711   0.531  11.002 -0.2247 -0.5067 -0.2480
 2296TIP3    H128303   6.647   0.484  10.948  0.3216 -2.1116  0.4387
 2296TIP3    H228304   6.796   0.502  10.970  0.1161 -1.9349  1.7690
 2297TIP3   OH228305   3.417   5.504   5.522 -0.6147  0.1686 -0.0567
 2297TIP3    H128306   3.482   5.566   5.488 -0.8298  2.8906  3.7709
 2297TIP3    H228307   3.336   5.555   5.527 -1.9487 -1.7887 -0.5758
 2298TIP3   OH228308   5.340   1.048   3.551 -0.4486 -0.1672  0.5374
 2298TIP3    H128309   5.298   0.995   3.482  1.7606 -2.7287  0.9782
 2298TIP3    H228310   5.316   1.138   3.530 -3.3199 -1.1640 -1.1015
 2299TIP3   OH228311   6.163   6.746   3.112  0.5610  0.1794 -0.4518
 2299TIP3    H128312   6.071   6.767   3.098  0.2211 -1.7264 -1.5389
 2299TIP3    H228313   6.172   6.737   3.207  0.0076  1.8383 -0.2211
 2300TIP3   OH228314   3.042   2.780  15.669  0.4469  0.2625 -0.1368
 2300TIP3    H128315   3.126   2.819  15.646  0.6692  0.4151  0.8893
 2300TIP3    H228316   3.012   2.829  15.745  1.8099 -2.8443  2.6715
 2301TIP3   OH228317   2.336   4.031   3.596  0.0988 -0.1755  0.3414
 2301TIP3    H128318   2.345   4.047   3.690  0.7125  1.0084  0.0967
 2301TIP3    H228319   2.401   3.963   3.577  2.1565  1.7065  0.2705
 2302TIP3   OH228320   0.274   2.556   0.886  0.6654 -0.4604 -0.2917
 2302TIP3    H128321   0.219   2.504   0.828  1.5863 -1.9927  0.1582
 2302TIP3    H228322   0.359   2.560   0.842  1.2359 -1.2285  0.6947
 2303TIP3   OH228323   6.122   6.200   1.334 -0.0489 -0.0653  0.5418
 2303TIP3    H128324   6.066   6.276   1.323 -1.1653 -0.9830 -0.3629
 2303TIP3    H228325   6.121   6.183   1.429  2.5263  2.6658  1.2004
 2304TIP3   OH228326   4.517   1.436  16.365  0.0025  0.7038 -0.6053
 2304TIP3    H128327   4.448   1.383  16.405 -1.4299  1.8077 -1.5374
 2304TIP3    H228328   4.593   1.423  16.422 -0.0082 -2.8773 -1.1248
 2305TIP3   OH228329   1.495   6.318   0.736 -0.5306  0.0723  0.2602
 2305TIP3    H128330   1.569   6.258   0.742  1.3250  2.3481  2.5795
 2305TIP3    H228331   1.426   6.276   0.787  0.5996 -0.3102  1.5319
 2306TIP3   OH228332   5.976   4.393  15.031 -0.7448 -0.2470  0.2806
 2306TIP3    H128333   5.921   4.464  14.998  0.2400  0.5724  0.3627
 2306TIP3    H228334   6.063   4.412  14.996 -0.8065 -2.4552 -1.2795
 2307TIP3   OH228335   1.599   2.916  16.474 -0.0380  0.1053  0.7637
 2307TIP3    H128336   1.546   2.979  16.425 -0.1846 -0.6475 -0.0636
 2307TIP3    H228337   1.654   2.970  16.531 -0.1746  0.9812  0.0817
 2308TIP3   OH228338   1.885   0.602  13.443 -0.0476  0.2630 -0.0590
 2308TIP3    H128339   1.893   0.550  13.363 -0.6640 -0.9205  0.6113
 2308TIP3    H228340   1.898   0.693  13.415 -1.3260 -0.0194 -1.6729
 2309TIP3   OH228341   1.758   3.542  15.869 -0.2374 -0.2246 -0.5969
 2309TIP3    H128342   1.833   3.584  15.911 -2.1271  0.4176  2.4783
 2309TIP3    H228343   1.742   3.595  15.791  0.7723  1.4250  0.2529
 2310TIP3   OH228344   4.532   6.093  17.239 -0.6695  0.5689  0.1960
 2310TIP3    H128345   4.611   6.145  17.248 -0.3510  0.3515 -1.0733
 2310TIP3    H228346   4.551   6.032  17.167 -2.6486  1.8629 -1.5702
 2311TIP3   OH228347   4.274   4.980  13.769 -0.1243  0.1208  0.1854
 2311TIP3    H128348   4.329   4.959  13.844  1.1552 -1.2849 -1.0805
 2311TIP3    H228349   4.301   5.068  13.742 -0.5621  0.6161  1.2972
 2312TIP3   OH228350   5.585   0.864   2.187 -0.2035 -0.4566  0.0475
 2312TIP3    H128351   5.672   0.903   2.195  0.3944 -0.8083 -3.3562
 2312TIP3    H228352   5.525   0.935   2.210  0.9572  1.3366 -2.0677
 2313TIP3   OH228353   2.366   4.158  15.935 -0.2334  0.0117  0.3664
 2313TIP3    H128354   2.366   4.210  16.015  0.4222  1.3849 -0.4732
 2313TIP3    H228355   2.340   4.070  15.962  1.1185  0.1554  2.2541
 2314TIP3   OH228356   6.542   3.203  15.436  0.0991  0.5650 -0.1627
 2314TIP3    H128357   6.629   3.198  15.475  0.0411 -0.3133 -0.1224
 2314TIP3    H228358   6.510   3.112  15.436 -0.8922  0.8935 -0.0032
 2315TIP3   OH228359   2.133   1.651  16.727 -0.0074  0.2919 -0.4937
 2315TIP3    H128360   2.219   1.610  16.730  0.6027  1.4878 -1.0373
 2315TIP3    H228361   2.148   1.742  16.751 -1.3937  0.1601  1.0694
 2316TIP3   OH228362   1.627   0.682  17.410  0.3073  0.1674 -0.3908
 2316TIP3    H128363   1.535   0.707  17.423  0.2122 -0.8235  1.2345
 2316TIP3    H228364   1.654   0.728  17.331 -0.4969  3.4622  1.0757
 2317TIP3   OH228365   0.295   3.527  16.621 -0.1156 -0.3500 -0.6968
 2317TIP3    H128366   0.358   3.558  16.556  1.0729 -0.4616  0.3746
 2317TIP3    H228367   0.231   3.598  16.628  2.0171  1.5422  1.0049
 2318TIP3   OH228368   6.518   0.606  15.387 -0.2377 -0.1182  0.3897
 2318TIP3    H128369   6.469   0.613  15.469  1.5940  1.9678  1.4155
 2318TIP3    H228370   6.605   0.576  15.414  1.0484  2.5747 -0.3945
 2319TIP3   OH228371   6.439   4.923  13.204  0.2777 -0.2506  0.4866
 2319TIP3    H128372   6.360   4.939  13.152  1.0874 -0.9266 -1.0236
 2319TIP3    H228373   6.467   4.835  13.178  0.5733 -0.7287  2.3103
 2320TIP3   OH228374   0.863   5.332  12.653  0.1636  0.1657  0.2705
 2320TIP3    H128375   0.863   5.399  12.585  1.8176  0.0760  0.1397
 2320TIP3    H228376   0.868   5.381  12.735 -0.9516  0.2481  0.3025
 2321TIP3   OH228377   1.576   1.479   2.778 -0.0288  0.0699  0.8971
 2321TIP3    H128378   1.667   1.502   2.794  0.5243 -1.0510 -0.4212
 2321TIP3    H228379   1.572   1.463   2.684 -1.3693 -0.8148  1.0778
 2322TIP3   OH228380   2.441   0.445  13.336  0.0283  0.2663  0.1157
 2322TIP3    H128381   2.474   0.366  13.378  0.4119 -0.0468 -0.7349
 2322TIP3    H228382   2.388   0.488  13.403  0.5539 -0.2433  0.8776
 2323TIP3   OH228383   2.924   6.235   2.454 -0.0545  0.3199 -0.6619
 2323TIP3    H128384   2.953   6.230   2.545 -1.0172 -1.0533 -0.3909
 2323TIP3    H228385   2.904   6.327   2.439 -2.7453  0.2010  1.4873
 2324TIP3   OH228386   0.134   2.933  11.138  0.0163 -0.3373 -0.1298
 2324TIP3    H128387   0.087   2.850  11.152  0.1688 -0.3765  0.1576
 2324TIP3    H228388   0.217   2.921  11.183 -1.1810  1.1277  2.7150
 2325TIP3   OH228389   4.409   5.417   4.792 -0.1129 -0.1164  0.1875
 2325TIP3    H128390   4.470   5.352   4.759  1.2319  1.7647 -1.2567
 2325TIP3    H228391   4.457   5.463   4.861  0.6583  2.1131 -1.7057
 2326TIP3   OH228392   3.611   0.813  13.139 -0.6336  0.7332  0.1182
 2326TIP3    H128393   3.554   0.860  13.077  1.8327  2.5126 -0.9513
 2326TIP3    H228394   3.676   0.878  13.166  0.7082 -1.0957  1.5767
 2327TIP3   OH228395   0.816   2.112   5.626  0.0586 -0.1647 -0.4085
 2327TIP3    H128396   0.734   2.159   5.613  0.3869  0.1856 -1.3573
 2327TIP3    H228397   0.796   2.045   5.691 -1.0389 -0.2524 -0.8183
 2328TIP3   OH228398   1.979   2.172   3.828 -0.1161  0.5457 -0.0804
 2328TIP3    H128399   1.994   2.242   3.764  1.3451  0.7901  0.5066
 2328TIP3    H228400   2.019   2.095   3.788  0.2345  0.5547  0.2533
 2329TIP3   OH228401   3.102   2.119   5.012  0.3779  0.0725  0.0603
 2329TIP3    H128402   3.013   2.092   5.036  1.3085 -1.5799  1.9066
 2329TIP3    H228403   3.141   2.149   5.094  2.2822 -1.5799 -0.1558
 2330TIP3   OH228404   5.105   6.623   0.967 -0.0272  0.3303  0.3776
 2330TIP3    H128405   5.041   6.559   0.997 -0.0820  1.4179  2.7669
 2330TIP3    H228406   5.190   6.579   0.979 -0.1436  0.0673  0.2624
 2331TIP3   OH228407   3.019   5.676  10.772 -0.3684  0.4911  0.3956
 2331TIP3    H128408   3.114   5.682  10.787 -0.2686 -2.1114  1.2793
 2331TIP3    H228409   2.981   5.744  10.828  0.8143 -0.6745  2.7662
 2332TIP3   OH228410   4.402   2.761   1.485 -0.6819 -0.0844 -0.5728
 2332TIP3    H128411   4.371   2.775   1.395  0.9024 -2.3220 -1.5591
 2332TIP3    H228412   4.441   2.674   1.483  0.4222  0.2745  2.0295
 2333TIP3   OH228413   3.568   2.635   5.604  0.0685 -0.0091 -0.2900
 2333TIP3    H128414   3.651   2.674   5.630  0.1522  0.4732 -1.2395
 2333TIP3    H228415   3.558   2.559   5.662  0.0984  1.1660  1.3260
 2334TIP3   OH228416   2.856   4.644   4.062 -0.5210  0.1286 -0.1088
 2334TIP3    H128417   2.869   4.722   4.116  1.3636 -0.0659 -0.2133
 2334TIP3    H228418   2.814   4.582   4.121  2.3946 -0.4372  1.5805
 2335TIP3   OH228419   3.027   3.043  12.898 -0.5387 -0.3968 -0.8076
 2335TIP3    H128420   2.959   2.980  12.922 -0.3403 -0.8460 -1.3844
 2335TIP3    H228421   3.063   3.009  12.816  0.4162 -0.1906 -0.4911
 2336TIP3   OH228422   4.537   4.261  15.334 -0.3235 -0.3958  0.5332
 2336TIP3    H128423   4.552   4.351  15.361 -1.8161 -0.3061  1.1572
 2336TIP3    H228424   4.528   4.266  15.238 -1.3586  0.2915  0.6471
 2337TIP3   OH228425   0.347   5.687   0.867  0.2543 -0.0580  0.4132
 2337TIP3    H128426   0.353   5.778   0.837 -2.5031  0.5129  1.2794
 2337TIP3    H228427   0.376   5.691   0.959 -0.2223  0.0289  0.5614
 2338TIP3   OH228428   3.586   2.489   1.490  0.1010 -0.0936 -0.5180
 2338TIP3    H128429   3.524   2.505   1.419 -0.4523  1.9575  0.3726
 2338TIP3    H228430   3.621   2.575   1.512 -1.7062 -0.1461  3.4197
 2339TIP3   OH228431   0.504   3.495  15.352  0.3562 -0.3678  0.4558
 2339TIP3    H128432   0.564   3.464  15.284  1.5615  1.3681  0.6571
 2339TIP3    H228433   0.441   3.549  15.306 -0.3023 -1.1370  0.4263
 2340TIP3   OH228434   5.550   1.210  12.715 -0.1351  0.0970 -0.4490
 2340TIP3    H128435   5.535   1.239  12.625 -0.5301 -1.2738 -0.8393
 2340TIP3    H228436   5.464   1.217  12.757  0.2015  1.5039  0.0900
 2341TIP3   OH228437   1.726   6.654  11.784  0.4003  0.1542 -0.1439
 2341TIP3    H128438   1.774   6.717  11.731 -0.2182 -1.9594 -3.5576
 2341TIP3    H228439   1.634   6.674  11.768  0.1982 -0.3977  0.2755
 2342TIP3   OH228440   0.941   2.774  15.710  0.1961 -0.2161  0.2191
 2342TIP3    H128441   0.920   2.805  15.798 -0.1496  0.0974  0.0267
 2342TIP3    H228442   0.916   2.846  15.652 -0.9524 -0.9646 -0.2641
 2343TIP3   OH228443   6.226   1.984  16.280 -0.6066  0.5771 -0.0199
 2343TIP3    H128444   6.190   2.005  16.194  0.1470 -0.8681 -0.7148
 2343TIP3    H228445   6.152   1.946  16.328 -0.8852  0.8541 -0.2313
 2344TIP3   OH228446   5.814   5.233  17.244 -0.2343 -0.2202 -0.4393
 2344TIP3    H128447   5.732   5.193  17.274 -0.3219 -0.8600 -1.4743
 2344TIP3    H228448   5.883   5.180  17.283 -0.3343 -0.3460 -0.4328
 2345TIP3   OH228449   3.479   2.268  11.298  0.0039 -0.4069  0.5365
 2345TIP3    H128450   3.387   2.284  11.280 -0.3697 -0.7000  2.0651
 2345TIP3    H228451   3.499   2.323  11.373  0.7952 -1.1321  0.8755
 2346TIP3   OH228452   0.546   1.938  15.247 -0.4701 -0.2384 -0.3155
 2346TIP3    H128453   0.614   2.004  15.238 -1.7168  0.9063 -1.8344
 2346TIP3    H228454   0.590   1.855  15.227  0.5515  0.4318 -0.8986
 2347TIP3   OH228455   1.455   3.291   0.144  0.7109 -0.4099  0.2628
 2347TIP3    H128456   1.396   3.263   0.073 -0.1470  0.0504  0.7789
 2347TIP3    H228457   1.509   3.359   0.104  0.7080 -0.6460 -0.1488
 2348TIP3   OH228458   0.905   3.853  11.776 -0.1878 -0.4005  0.5831
 2348TIP3    H128459   0.832   3.795  11.798  0.7772 -0.8038  3.1588
 2348TIP3    H228460   0.972   3.794  11.742 -0.1936 -0.4040  0.5783
 2349TIP3   OH228461   0.795   2.932  15.169 -0.6847 -0.4378  0.0832
 2349TIP3    H128462   0.707   2.897  15.174 -0.9588  0.1090 -0.8108
 2349TIP3    H228463   0.830   2.899  15.086 -0.7844  0.9921 -0.5482
 2350TIP3   OH228464   4.925   3.107  14.049 -0.0498  0.2676 -0.3127
 2350TIP3    H128465   4.951   3.036  14.107  0.9518 -0.8851 -2.0596
 2350TIP3    H228466   4.999   3.168  14.052 -1.3534  1.8703  2.0022
 2351TIP3   OH228467   4.833   0.047  16.384  0.0375 -0.4025 -0.3208
 2351TIP3    H128468   4.767   0.029  16.450  1.1404  0.3073  1.0120
 2351TIP3    H228469   4.916   0.019  16.424  1.1007  2.4487 -0.2918
 2352TIP3   OH228470   3.063   0.207  15.031  0.1149  0.1846  0.3816
 2352TIP3    H128471   3.063   0.286  15.085 -1.8397 -0.5117  1.4791
 2352TIP3    H228472   2.984   0.215  14.977 -0.2284 -1.1073  0.6765
 2353TIP3   OH228473   4.638   0.948   4.613  0.1107 -0.5461 -0.5585
 2353TIP3    H128474   4.628   1.041   4.632 -0.4993 -0.3235 -1.8665
 2353TIP3    H228475   4.658   0.908   4.698  0.3431  0.7593  0.0226
 2354TIP3   OH228476   3.447   1.520  12.137 -0.2560  0.3430 -0.0212
 2354TIP3    H128477   3.465   1.430  12.107 -0.2636  0.2283  0.3162
 2354TIP3    H228478   3.365   1.543  12.092  0.4310  0.6780 -1.1552
 2355TIP3   OH228479   5.789   5.467  16.864  0.0869  0.8416  0.1601
 2355TIP3    H128480   5.740   5.536  16.909 -0.0584  1.7676 -1.3588
 2355TIP3    H228481   5.721   5.410  16.828  0.0626  2.1479 -1.9826
 2356TIP3   OH228482   1.812   4.698  16.783  0.0662 -0.0227  0.8272
 2356TIP3    H128483   1.880   4.766  16.790 -0.7890  0.9235  0.3378
 2356TIP3    H228484   1.835   4.650  16.703  0.4139 -0.0015  0.9125
 2357TIP3   OH228485   5.855   3.728  13.835  0.0461  0.7974 -0.4857
 2357TIP3    H128486   5.894   3.772  13.760 -1.2526 -1.9067 -2.9543
 2357TIP3    H228487   5.917   3.659  13.857  0.9086  2.1694  1.7416
 2358TIP3   OH228488   2.150   0.663  11.546 -0.0936  0.8782  0.1860
 2358TIP3    H128489   2.163   0.582  11.497  0.9721  1.8594 -1.2451
 2358TIP3    H228490   2.161   0.638  11.638  0.1703 -0.5963 -0.2320
 2359TIP3   OH228491   3.438   2.152  17.162  0.1663  0.2927  0.1565
 2359TIP3    H128492   3.379   2.209  17.113  0.3572  0.7032  0.3937
 2359TIP3    H228493   3.383   2.109  17.227 -0.1003 -0.3065 -0.4576
 2360TIP3   OH228494   0.849   2.729   3.721  0.8512  0.0686 -0.1971
 2360TIP3    H128495   0.789   2.790   3.766 -0.8209  1.3181 -3.7554
 2360TIP3    H228496   0.812   2.643   3.738 -2.1481  0.7974 -2.1841
 2361TIP3   OH228497   3.404   5.750   5.837 -0.0944 -0.0215  0.2995
 2361TIP3    H128498   3.390   5.656   5.835 -1.1040  0.1212  0.0175
 2361TIP3    H228499   3.322   5.786   5.869  0.7688  0.6888  1.8293
 2362TIP3   OH228500   1.349   1.758   1.625  0.0153  0.2835 -0.0629
 2362TIP3    H128501   1.340   1.694   1.696 -2.3995  0.7357  0.1473
 2362TIP3    H228502   1.440   1.786   1.628  1.0469 -2.7902  0.1197
 2363TIP3   OH228503   1.405   5.766   2.739 -0.3601 -0.1772  0.8580
 2363TIP3    H128504   1.372   5.854   2.760  1.0122  0.3953  0.7288
 2363TIP3    H228505   1.388   5.757   2.645 -2.7594 -1.0891  1.3080
 2364TIP3   OH228506   1.432   1.068   1.322 -0.1827  0.3538  0.1943
 2364TIP3    H128507   1.346   1.030   1.303 -0.4156  0.4024  1.0684
 2364TIP3    H228508   1.441   1.058   1.417 -0.1366  2.2214  0.4209
 2365TIP3   OH228509   2.349   1.402   4.214  0.8938  0.4163 -0.3097
 2365TIP3    H128510   2.438   1.370   4.227  0.8443 -0.3670 -1.6968
 2365TIP3    H228511   2.304   1.331   4.168  0.4597  1.9946 -2.5059
 2366TIP3   OH228512   2.170   4.888  13.636  0.4817  0.4280  0.0517
 2366TIP3    H128513   2.224   4.915  13.562  1.2732  0.2736  0.5537
 2366TIP3    H228514   2.225   4.905  13.713 -0.2105  0.3105  0.5818
 2367TIP3   OH228515   0.992   4.257  14.622  0.3018 -0.3314  0.0764
 2367TIP3    H128516   1.085   4.275  14.609  0.4759 -1.4861 -0.4278
 2367TIP3    H228517   0.953   4.268  14.535  0.7267 -3.8873 -0.7320
 2368TIP3   OH228518   2.056   0.765  15.859 -0.2803 -0.2168  0.1455
 2368TIP3    H128519   2.041   0.853  15.826 -0.8787 -0.0196  0.9226
 2368TIP3    H228520   1.974   0.719  15.844  0.4886 -1.1246 -1.6459
 2369TIP3   OH228521   0.655   5.796   3.138  0.2124  0.0535  0.2366
 2369TIP3    H128522   0.653   5.775   3.231 -1.6770  0.4675  0.3280
 2369TIP3    H228523   0.643   5.891   3.134  0.9335  0.1322 -0.4266
 2370TIP3   OH228524   6.360   2.177  14.898  0.1565 -1.0120  0.5185
 2370TIP3    H128525   6.311   2.115  14.846  1.5850 -2.3689  0.7145
 2370TIP3    H228526   6.300   2.205  14.967 -1.0146 -0.9169 -0.5210
 2371TIP3   OH228527   2.799   6.498   3.259  0.1917 -0.4357 -0.3653
 2371TIP3    H128528   2.831   6.428   3.316  1.2593 -1.4243 -2.0808
 2371TIP3    H228529   2.874   6.519   3.204 -0.2234  1.8488 -0.1541
 2372TIP3   OH228530   3.348   3.827   4.082 -0.1897 -0.7091 -0.0195
 2372TIP3    H128531   3.267   3.776   4.094 -0.6336  0.0201  0.1440
 2372TIP3    H228532   3.402   3.805   4.157 -0.8663 -0.0550  0.6875
 2373TIP3   OH228533   1.767   5.490   5.639 -0.1493 -0.1433  0.2245
 2373TIP3    H128534   1.805   5.477   5.725  0.4693 -0.8877 -0.1469
 2373TIP3    H228535   1.693   5.428   5.635 -0.3846  0.1285  0.3402
 2374TIP3   OH228536   4.486   4.004  11.245 -0.2670 -0.5207 -0.3434
 2374TIP3    H128537   4.524   4.048  11.169 -0.5009  0.5606  0.1483
 2374TIP3    H228538   4.492   4.068  11.316  0.5227 -1.7360  0.7329
 2375TIP3   OH228539   2.489   2.863  13.977  0.0372 -0.3136  0.0185
 2375TIP3    H128540   2.542   2.878  13.898 -1.6412 -1.0122 -1.3253
 2375TIP3    H228541   2.405   2.830  13.943 -0.8634 -0.3201  2.1009
 2376TIP3   OH228542   0.009   3.552   2.209 -0.1432  0.4438  0.4853
 2376TIP3    H128543  -0.008   3.628   2.264 -2.7369 -0.0069  0.4202
 2376TIP3    H228544   0.019   3.479   2.270 -3.0722 -0.0664  0.5122
 2377TIP3   OH228545   6.249   3.859  14.275 -0.5004 -0.1125  0.0959
 2377TIP3    H128546   6.261   3.954  14.266  0.5476 -0.2380  0.0232
 2377TIP3    H228547   6.336   3.826  14.295 -0.3921 -1.3382 -2.1136
 2378TIP3   OH228548   6.398   0.873   1.511 -0.3749 -0.0895  0.0416
 2378TIP3    H128549   6.346   0.810   1.561 -0.5281 -0.8351 -1.0304
 2378TIP3    H228550   6.489   0.857   1.538 -0.4311 -0.6692 -0.1139
 2379TIP3   OH228551   2.094   5.825   4.532  0.2910 -0.4268  0.1759
 2379TIP3    H128552   2.183   5.813   4.565  0.1564 -1.9863  0.0435
 2379TIP3    H228553   2.055   5.738   4.535 -1.1420  0.1715 -0.0601
 2380TIP3   OH228554   4.964   1.348  13.088 -0.2599  0.3712  0.6078
 2380TIP3    H128555   4.884   1.384  13.051 -0.3384 -0.6817 -0.2720
 2380TIP3    H228556   4.934   1.300  13.166 -0.6096 -0.6174 -0.1063
 2381TIP3   OH228557   4.202   3.257  12.895 -0.1900  0.1531  0.2377
 2381TIP3    H128558   4.146   3.180  12.892  0.8538 -0.5960 -0.8005
 2381TIP3    H228559   4.142   3.331  12.889 -1.0120 -0.6230 -3.3986
 2382TIP3   OH228560   2.536   1.217   2.711 -0.2728  0.1298  0.0109
 2382TIP3    H128561   2.488   1.262   2.780  2.8608  0.5244  2.1485
 2382TIP3    H228562   2.472   1.158   2.671 -2.2072 -0.3728  3.4891
 2383TIP3   OH228563   0.168   6.048   2.199 -0.0769 -0.5332  0.6178
 2383TIP3    H128564   0.169   6.144   2.209  0.1417 -0.3585 -0.8343
 2383TIP3    H228565   0.257   6.021   2.220  1.0092  0.0681 -2.5463
 2384TIP3   OH228566   5.603   5.986  14.906  0.2376 -0.0390  0.7417
 2384TIP3    H128567   5.627   5.954  14.993  1.2033 -0.3597  0.3636
 2384TIP3    H228568   5.528   5.931  14.881  1.0198 -1.1076  0.6704
 2385TIP3   OH228569   3.472   6.502  15.873  0.3432  0.2119  0.1344
 2385TIP3    H128570   3.396   6.476  15.820 -1.8504  1.0228  2.6377
 2385TIP3    H228571   3.519   6.565  15.818  0.1612 -1.4496 -2.1018
 2386TIP3   OH228572   6.281   4.209  15.046 -0.3103  0.4893  0.0857
 2386TIP3    H128573   6.344   4.180  14.981  1.1006  3.5125 -0.0888
 2386TIP3    H228574   6.255   4.297  15.017 -1.7273  0.8284  2.1563
 2387TIP3   OH228575   3.939   4.632  15.596 -0.6228 -0.6100 -0.4729
 2387TIP3    H128576   3.932   4.562  15.531  1.5137  0.0452 -1.5102
 2387TIP3    H228577   4.013   4.685  15.566 -1.6823  1.6746  0.6891
 2388TIP3   OH228578   4.730   5.963  13.629 -0.4501 -0.4966  0.2580
 2388TIP3    H128579   4.660   5.963  13.694 -0.5578 -0.5027  0.1423
 2388TIP3    H228580   4.782   6.040  13.650 -1.1806  0.1915 -0.3895
 2389TIP3   OH228581   1.440   5.211  16.246 -0.6519  0.3291  0.2459
 2389TIP3    H128582   1.446   5.220  16.151 -1.3670 -0.3667  0.1224
 2389TIP3    H228583   1.475   5.293  16.280 -0.1214  0.4737 -0.6066
 2390TIP3   OH228584   3.996   2.948  15.346 -0.4134 -0.4666 -0.1334
 2390TIP3    H128585   3.921   2.962  15.287 -0.9496  1.3138  0.8973
 2390TIP3    H228586   3.981   2.861  15.383 -2.9645  0.4704  1.3103
 2391TIP3   OH228587   3.623   3.980  15.889 -0.1556 -0.2992 -0.4236
 2391TIP3    H128588   3.705   3.980  15.937 -0.4779  0.5318  0.1342
 2391TIP3    H228589   3.599   4.072  15.881 -2.0421 -0.5802  1.1908
 2392TIP3   OH228590   0.320   4.494   0.719  0.6240  0.0726  0.0224
 2392TIP3    H128591   0.258   4.435   0.675  1.0409 -1.0525  0.8729
 2392TIP3    H228592   0.272   4.576   0.730 -0.6803 -0.7250  0.5223
 2393TIP3   OH228593   3.347   3.218  10.637  0.0129  0.1196 -0.3528
 2393TIP3    H128594   3.401   3.201  10.715 -0.6874  1.5812  0.4862
 2393TIP3    H228595   3.286   3.145  10.634 -0.0567  0.1262  0.5678
 2394TIP3   OH228596   6.264   3.038  13.344  0.4935  0.2432  0.3639
 2394TIP3    H128597   6.350   3.070  13.372  1.4817 -2.3509  0.5379
 2394TIP3    H228598   6.268   3.039  13.249  0.2750  1.1248  0.3486
 2395TIP3   OH228599   0.113   6.052  13.658 -0.5006 -0.1368 -0.6599
 2395TIP3    H128600   0.143   6.014  13.575  2.9863  0.0952  0.3259
 2395TIP3    H228601   0.093   5.976  13.713 -0.2562 -0.3554 -0.8718
 2396TIP3   OH228602   1.797   4.413  16.231 -0.2396 -0.4540  0.3377
 2396TIP3    H128603   1.793   4.358  16.153 -0.1539  0.9148 -0.6644
 2396TIP3    H228604   1.792   4.351  16.304 -0.7054 -1.7366 -0.7400
 2397TIP3   OH228605   0.686   5.795  15.849  0.2765  0.0808 -0.0697
 2397TIP3    H128606   0.655   5.859  15.913 -0.2385  0.8625 -1.0553
 2397TIP3    H228607   0.767   5.760  15.886  0.2101  0.8211  0.8036
 2398TIP3   OH228608   6.364   1.142   2.707 -0.2080  0.3923  0.2091
 2398TIP3    H128609   6.422   1.095   2.647 -0.0857 -1.7188  1.8562
 2398TIP3    H228610   6.422   1.204   2.752  0.1225  0.4503 -0.2866
 2399TIP3   OH228611   0.926   6.037  12.000  0.3113  0.6496 -0.2138
 2399TIP3    H128612   0.990   6.086  12.052 -0.2389  0.2238  0.9074
 2399TIP3    H228613   0.864   6.003  12.065  0.3654 -1.0716 -0.9989
 2400TIP3   OH228614   2.831   1.155  14.777  0.3448 -1.0766  0.0451
 2400TIP3    H128615   2.831   1.107  14.694 -0.2087  0.4417 -0.8604
 2400TIP3    H228616   2.756   1.120  14.825 -0.7421 -0.3323 -1.0829
 2401TIP3   OH228617   0.856   3.154  13.614  0.3800  0.5027 -0.2042
 2401TIP3    H128618   0.832   3.074  13.661  0.2674  1.2608  1.0698
 2401TIP3    H228619   0.779   3.211  13.622  0.8603  1.1637 -0.1275
 2402TIP3   OH228620   4.868   2.063  11.975  0.0347 -0.0335  0.1081
 2402TIP3    H128621   4.808   1.988  11.977 -0.1256  0.0962  1.8066
 2402TIP3    H228622   4.945   2.033  12.025 -0.3706  1.1652  1.5288
 2403TIP3   OH228623   2.914   6.066   5.761  0.1728  0.1184  0.4216
 2403TIP3    H128624   2.950   6.103   5.841  1.4344 -1.1304  0.4672
 2403TIP3    H228625   2.824   6.097   5.759  0.8403  2.3110  0.9667
 2404TIP3   OH228626   6.326   2.953  13.696  0.0166  0.4083 -0.0985
 2404TIP3    H128627   6.363   2.892  13.633  1.1664 -0.1833  1.0883
 2404TIP3    H228628   6.234   2.961  13.672  0.2061 -0.5945 -1.2016
 2405TIP3   OH228629   4.517   4.326   1.213 -0.0495  0.0419 -0.0492
 2405TIP3    H128630   4.560   4.392   1.268  1.8755  0.1706 -1.5966
 2405TIP3    H228631   4.453   4.285   1.271  1.4213  0.6061  2.1054
 2406TIP3   OH228632   4.143   0.740  16.947 -0.1935 -0.5282  0.0742
 2406TIP3    H128633   4.204   0.752  16.874  0.5934 -0.0499  0.7975
 2406TIP3    H228634   4.185   0.785  17.021  0.8702 -4.0701  1.8355
 2407TIP3   OH228635   2.559   1.694   1.167  0.3240 -0.3141  0.0854
 2407TIP3    H128636   2.464   1.680   1.168 -0.0765  1.8965 -1.2701
 2407TIP3    H228637   2.569   1.788   1.153  2.7298 -0.5906 -0.4042
 2408TIP3   OH228638   3.861   6.291   3.363 -0.5663  0.2445 -0.2901
 2408TIP3    H128639   3.848   6.274   3.456  1.7909  0.7115  0.1958
 2408TIP3    H228640   3.786   6.250   3.320 -1.3917 -0.5108  1.7542
 2409TIP3   OH228641   4.479   1.772   5.369  1.3551  0.4102 -0.3259
 2409TIP3    H128642   4.572   1.749   5.366  1.3028  0.0119  0.7068
 2409TIP3    H228643   4.435   1.701   5.323  1.3968 -0.4771  0.9438
 2410TIP3   OH228644   5.359   0.067  10.673  0.5878 -0.1436 -0.0111
 2410TIP3    H128645   5.418  -0.001  10.642  1.5641 -0.6521  2.6334
 2410TIP3    H228646   5.417   0.140  10.696 -0.3986  1.4902 -2.3809
 2411TIP3   OH228647   0.546   6.603  13.911  0.1449 -0.0705 -0.4174
 2411TIP3    H128648   0.629   6.555  13.912 -0.0851 -0.6022 -2.1975
 2411TIP3    H228649   0.479   6.535  13.908 -0.2547  0.3394 -1.1803
 2412TIP3   OH228650   5.600   2.884  14.959 -0.2499  0.2814 -0.0799
 2412TIP3    H128651   5.602   2.909  15.051  2.1316 -0.0460  0.0239
 2412TIP3    H228652   5.668   2.936  14.918 -1.6141  0.8115 -1.8189
 2413TIP3   OH228653   0.183   6.328   4.494 -0.6112 -0.1130  0.2010
 2413TIP3    H128654   0.105   6.334   4.439 -0.0311 -1.4402 -0.8175
 2413TIP3    H228655   0.154   6.282   4.573 -0.9655 -0.1511  0.0488
 2414TIP3   OH228656   2.219   2.648   1.048 -0.6268  0.2062  0.2119
 2414TIP3    H128657   2.133   2.606   1.046 -0.5500  0.0613 -1.2411
 2414TIP3    H228658   2.263   2.617   0.968  0.2163  1.4258  0.1761
 2415TIP3   OH228659   0.406   3.547   5.137  0.5875  0.4959  0.5021
 2415TIP3    H128660   0.318   3.511   5.124 -0.0831  2.1165  0.2699
 2415TIP3    H228661   0.392   3.642   5.141  2.3943  0.8116 -0.0204
 2416TIP3   OH228662   1.971   5.032   1.408  0.0130  0.4795  0.1173
 2416TIP3    H128663   1.954   4.942   1.380 -0.2709  0.2197  1.0768
 2416TIP3    H228664   1.991   5.079   1.328 -0.2881 -0.3420 -0.4505
 2417TIP3   OH228665   0.537   4.506  16.883 -0.0146 -0.2920 -0.0202
 2417TIP3    H128666   0.625   4.495  16.847 -0.4623 -1.0542 -0.9231
 2417TIP3    H228667   0.512   4.595  16.859  0.5868  0.0018  0.4255
 2418TIP3   OH228668   1.795   0.684   3.674  0.0714  0.5888 -1.1224
 2418TIP3    H128669   1.848   0.663   3.597  0.5872  0.3933 -0.7189
 2418TIP3    H228670   1.856   0.678   3.747 -0.8563 -1.4458 -0.4203
 2419TIP3   OH228671   1.270   5.431  12.870  0.0632  0.1243 -0.1951
 2419TIP3    H128672   1.274   5.435  12.774 -1.1522  1.1133 -0.2313
 2419TIP3    H228673   1.320   5.352  12.893 -0.2602 -0.5474 -1.6840
 2420TIP3   OH228674   1.197   5.361  15.153  0.2039  0.0562  0.1868
 2420TIP3    H128675   1.137   5.326  15.087  0.8834  1.1736 -1.0846
 2420TIP3    H228676   1.142   5.405  15.216 -0.4240 -0.4909  0.0318
 2421TIP3   OH228677   1.683   4.718  16.338 -0.3168 -0.2371 -0.0082
 2421TIP3    H128678   1.635   4.799  16.324  1.2275  0.8918  0.9408
 2421TIP3    H228679   1.670   4.668  16.258  1.3101  2.3453 -2.0534
 2422TIP3   OH228680   1.391   3.241  10.858  0.3340 -0.0695 -0.0809
 2422TIP3    H128681   1.413   3.164  10.805  0.1973 -0.5309  0.5202
 2422TIP3    H228682   1.341   3.297  10.799  0.9237 -0.1781 -0.6941
 2423TIP3   OH228683   4.009   2.759   4.926  0.0660  0.3945  0.4005
 2423TIP3    H128684   4.067   2.751   5.002  1.7372  2.1246 -0.6185
 2423TIP3    H228685   4.024   2.678   4.876 -0.3637 -0.3308  1.4065
 2424TIP3   OH228686   3.973   3.221  13.719  0.0747  0.0781 -0.4534
 2424TIP3    H128687   4.016   3.306  13.729  1.6782 -0.5093 -1.8711
 2424TIP3    H228688   4.043   3.157  13.738 -1.1008 -0.9462  0.6171
 2425TIP3   OH228689   4.400   5.215  14.807  0.2441  0.0914 -0.3751
 2425TIP3    H128690   4.365   5.207  14.896  1.1987  1.0140  0.1123
 2425TIP3    H228691   4.360   5.143  14.759 -2.9239  1.5156 -0.0961
 2426TIP3   OH228692   6.006   5.390   0.048  0.1762  0.3106 -0.6348
 2426TIP3    H128693   6.019   5.465   0.106  1.7664  0.0053 -0.5736
 2426TIP3    H228694   5.918   5.358   0.070  0.5352  0.5138  1.2389
 2427TIP3   OH228695   1.567   5.011  13.906 -0.5022  0.1752 -0.5298
 2427TIP3    H128696   1.575   4.995  13.812  0.4355  1.0474 -0.6131
 2427TIP3    H228697   1.652   4.986  13.942 -1.1693 -1.0631  0.2450
 2428TIP3   OH228698   3.747   1.919   5.299 -0.6833  0.0933 -0.4160
 2428TIP3    H128699   3.821   1.978   5.281 -0.7373 -0.4418 -2.5451
 2428TIP3    H228700   3.774   1.872   5.378  1.3191 -0.1362 -1.1663
 2429TIP3   OH228701   4.231   6.218  15.376  0.1542 -0.1412 -0.2559
 2429TIP3    H128702   4.165   6.236  15.309 -1.4520 -0.9891  1.0310
 2429TIP3    H228703   4.190   6.244  15.458  0.6617 -2.4667  0.8166
 2430TIP3   OH228704   4.448   5.032   4.360 -0.1494  0.3816  0.4377
 2430TIP3    H128705   4.383   5.102   4.369 -0.7660  0.0183 -0.9399
 2430TIP3    H228706   4.518   5.056   4.421 -1.0948  1.3276  1.1865
 2431TIP3   OH228707   5.660   4.489  13.453  0.1985 -0.3586 -0.1324
 2431TIP3    H128708   5.681   4.466  13.363 -0.0204  0.2753 -0.3554
 2431TIP3    H228709   5.687   4.581  13.461  0.3206 -0.4407  0.4822
 2432TIP3   OH228710   5.029   4.784   6.168 -0.7100  0.3095  0.0204
 2432TIP3    H128711   4.987   4.795   6.083 -1.0771  1.7330  0.3625
 2432TIP3    H228712   5.090   4.857   6.175  2.2537 -1.8954 -0.6279
 2433TIP3   OH228713   2.724   4.699  13.304 -0.5885 -0.4943  0.1246
 2433TIP3    H128714   2.724   4.643  13.382 -1.1391 -1.5231 -0.5919
 2433TIP3    H228715   2.730   4.638  13.231  0.4601  0.4806 -0.6429
 2434TIP3   OH228716   5.406   6.056  12.675  0.1715  0.1913 -0.5950
 2434TIP3    H128717   5.315   6.033  12.659  0.2631  0.3219 -1.3415
 2434TIP3    H228718   5.428   6.013  12.758 -0.2320 -0.7651 -0.9720
 2435TIP3   OH228719   1.303   3.667  13.267  0.0820  0.1329  0.1351
 2435TIP3    H128720   1.317   3.761  13.261 -0.8626  0.3366  0.8175
 2435TIP3    H228721   1.208   3.657  13.275  0.2383 -0.8017  1.1819
 2436TIP3   OH228722   2.571   4.500  15.080 -0.5678  0.1012 -0.2972
 2436TIP3    H128723   2.568   4.405  15.092 -0.4234 -0.1151 -1.8230
 2436TIP3    H228724   2.535   4.535  15.162 -1.2891 -1.2749  0.0114
 2437TIP3   OH228725   6.479   3.983   0.346  0.0431  0.1940  0.4246
 2437TIP3    H128726   6.439   3.958   0.429 -0.4924 -0.2948  0.0262
 2437TIP3    H228727   6.425   4.056   0.315 -1.6745 -1.5797 -0.9601
 2438TIP3   OH228728   5.800   0.471  12.578  0.2149 -0.3997 -0.8527
 2438TIP3    H128729   5.847   0.521  12.511  3.0341 -0.2812  1.0477
 2438TIP3    H228730   5.796   0.529  12.654 -1.0647 -1.2760 -0.2072
 2439TIP3   OH228731   0.350   0.466   5.768  0.1799  0.6696 -0.3646
 2439TIP3    H128732   0.332   0.483   5.861 -2.1539  2.2996 -1.0080
 2439TIP3    H228733   0.264   0.451   5.730  1.1646 -0.7094 -2.1709
 2440TIP3   OH228734   6.247   4.827  17.280 -0.0156  0.3860  0.4318
 2440TIP3    H128735   6.300   4.831  17.200 -0.6003 -2.4515 -0.2104
 2440TIP3    H228736   6.217   4.917  17.293  2.5719  1.5324 -0.7760
 2441TIP3   OH228737   3.120   3.591  13.865 -0.2612 -0.3429 -0.0502
 2441TIP3    H128738   3.202   3.543  13.877 -0.1999 -0.2281 -0.0098
 2441TIP3    H228739   3.059   3.548  13.925 -0.4691 -0.9948 -0.7174
 2442TIP3   OH228740   3.102   0.399  16.994 -0.5374 -0.1317  0.1110
 2442TIP3    H128741   3.127   0.475  16.941 -0.8304  0.3840  0.7056
 2442TIP3    H228742   3.007   0.396  16.988 -0.5700 -0.0765  0.5964
 2443TIP3   OH228743   4.306   5.713  15.041  0.0691 -0.8171  0.2727
 2443TIP3    H128744   4.295   5.628  14.998 -0.7428 -1.4185  1.6099
 2443TIP3    H228745   4.330   5.692  15.131 -0.1846  0.3762  0.6371
 2444TIP3   OH228746   3.547   5.435  11.780 -0.0993 -0.5293 -0.0944
 2444TIP3    H128747   3.576   5.378  11.709 -1.4575 -0.2904 -0.8716
 2444TIP3    H228748   3.525   5.517  11.737 -0.1855 -0.1135  0.7232
 2445TIP3   OH228749   4.530   0.344   1.332 -0.2757  0.0459  0.4292
 2445TIP3    H128750   4.617   0.381   1.316  0.4322 -2.3924 -2.3119
 2445TIP3    H228751   4.530   0.321   1.425  1.3978  1.5020  0.8282
 2446TIP3   OH228752   6.081   0.264  11.776  0.1684  0.7426 -0.1931
 2446TIP3    H128753   6.136   0.191  11.804  0.7594  1.0350 -0.5894
 2446TIP3    H228754   5.992   0.237  11.801  0.4394  0.1128  0.1222
 2447TIP3   OH228755   0.343   0.917  16.010 -0.5835  0.2213  0.0094
 2447TIP3    H128756   0.408   0.853  15.980 -1.2366 -0.7639  0.6409
 2447TIP3    H228757   0.392   0.975  16.068 -0.3482 -0.8260  0.8958
 2448TIP3   OH228758   4.664   4.723   4.789  0.0410  0.4043  0.2078
 2448TIP3    H128759   4.627   4.679   4.713  0.0688 -1.1174  1.0220
 2448TIP3    H228760   4.740   4.670   4.813  0.7410  1.5383  0.5927
 2449TIP3   OH228761   5.053   0.327   5.131  0.0428  0.2236 -0.4677
 2449TIP3    H128762   4.959   0.335   5.144  0.0395  0.5381 -0.6643
 2449TIP3    H228763   5.072   0.234   5.141 -0.2137  0.2276  0.0615
 2450TIP3   OH228764   1.579   4.456   2.587  0.0582  0.0008  0.4720
 2450TIP3    H128765   1.666   4.420   2.570 -0.6237 -1.7298  0.4213
 2450TIP3    H228766   1.521   4.403   2.532 -1.0577  0.9716  0.6826
 2451TIP3   OH228767   5.789   2.031  15.753 -0.0185 -0.3023  0.2212
 2451TIP3    H128768   5.722   2.030  15.821 -0.8582  1.5484 -0.4968
 2451TIP3    H228769   5.844   2.106  15.775 -0.3668  0.3946 -1.1347
 2452TIP3   OH228770   3.843   5.882   1.345 -0.1472  0.1042  0.0276
 2452TIP3    H128771   3.856   5.976   1.344  0.0002  0.0810 -0.2492
 2452TIP3    H228772   3.749   5.871   1.326 -0.0703  0.1781 -0.4028
 2453TIP3   OH228773   0.293   0.625  12.444  0.3720  0.5543 -0.0789
 2453TIP3    H128774   0.235   0.671  12.384  0.3060 -0.9573 -1.2328
 2453TIP3    H228775   0.381   0.657  12.422  0.1488  1.6043  0.5219
 2454TIP3   OH228776   2.373   4.563   4.592 -0.2916  0.0761 -0.1267
 2454TIP3    H128777   2.429   4.584   4.667 -1.5209 -0.4310  0.9714
 2454TIP3    H228778   2.400   4.475   4.565 -2.3489 -1.4247  2.2339
 2455TIP3   OH228779   5.841   0.354  13.596  0.5352  0.0105 -0.0712
 2455TIP3    H128780   5.833   0.336  13.690 -0.0989  0.5240 -0.0208
 2455TIP3    H228781   5.889   0.436  13.591  0.4832  0.0352 -0.1898
 2456TIP3   OH228782   5.247   2.783   4.377 -0.2789 -0.0668 -0.3372
 2456TIP3    H128783   5.174   2.833   4.340 -1.0600 -0.0040  1.2014
 2456TIP3    H228784   5.325   2.827   4.345 -0.9375  1.3066 -0.1276
 2457TIP3   OH228785   4.281   0.855  12.630  0.1128 -0.1410  0.8250
 2457TIP3    H128786   4.198   0.860  12.582  0.1253  0.3850  0.8466
 2457TIP3    H228787   4.260   0.807  12.709  0.2324 -1.5963  0.0093
 2458TIP3   OH228788   1.732   5.154   5.031 -0.1904  0.5719 -0.2625
 2458TIP3    H128789   1.771   5.207   4.961 -1.9695  3.3996  0.7014
 2458TIP3    H228790   1.652   5.118   4.993 -0.2318  0.6101 -0.2119
 2459TIP3   OH228791   3.490   1.404  11.319  0.1487  0.4090  0.0513
 2459TIP3    H128792   3.472   1.483  11.268  2.6628  2.1469  1.6286
 2459TIP3    H228793   3.582   1.384  11.301 -0.6652 -2.9406 -1.1641
 2460TIP3   OH228794   5.183   4.488  12.569 -0.2062  0.4103  0.2492
 2460TIP3    H128795   5.132   4.466  12.647  0.2534  2.0557  1.0557
 2460TIP3    H228796   5.143   4.437  12.498 -0.5275 -1.2441  1.5645
 2461TIP3   OH228797   6.588   2.744  17.159  0.1226 -0.2264 -0.0420
 2461TIP3    H128798   6.519   2.774  17.100 -0.7170 -0.3790  0.8556
 2461TIP3    H228799   6.577   2.796  17.238  0.7179 -0.6166  0.3028
 2462TIP3   OH228800   6.000   0.160  13.450  0.0197  0.3556 -0.3681
 2462TIP3    H128801   6.078   0.142  13.502 -0.5259  0.9770  0.6832
 2462TIP3    H228802   5.966   0.242  13.485 -0.6192  0.5474 -1.3998
 2463TIP3   OH228803   6.515   2.052  11.639 -0.8308  0.2181 -0.2091
 2463TIP3    H128804   6.429   2.012  11.626 -0.6130 -0.4483  0.3929
 2463TIP3    H228805   6.496   2.137  11.680 -1.2752  0.6458 -1.2782
 2464TIP3   OH228806   1.852   5.846  17.002 -0.2074 -0.0210 -0.7733
 2464TIP3    H128807   1.845   5.814  17.092 -0.0263 -0.4417 -0.9072
 2464TIP3    H228808   1.786   5.915  16.996 -0.8631 -0.6260 -0.5942
 2465TIP3   OH228809   6.341   4.728   1.367  0.7143  0.1314 -0.0428
 2465TIP3    H128810   6.420   4.765   1.406 -0.1357  0.8791  1.0359
 2465TIP3    H228811   6.273   4.741   1.434 -0.6382  0.8013 -1.4872
 2466TIP3   OH228812   2.677   3.472   0.945  0.0458  0.0477  0.0375
 2466TIP3    H128813   2.745   3.414   0.910 -0.3369 -0.6915  0.5033
 2466TIP3    H228814   2.604   3.463   0.883  0.3956  0.9123 -0.5138
 2467TIP3   OH228815   5.732   3.404   5.191 -0.0341  0.8401  0.0319
 2467TIP3    H128816   5.761   3.474   5.250  3.1372 -1.4555  1.4440
 2467TIP3    H228817   5.760   3.433   5.104 -1.7649  2.7259  0.0120
 2468TIP3   OH228818   4.862   4.356  13.703  0.5864 -0.0349  0.2178
 2468TIP3    H128819   4.923   4.427  13.686  1.2067 -1.0116 -1.8937
 2468TIP3    H228820   4.856   4.352  13.799  1.1672  2.2786  0.3972
 2469TIP3   OH228821   1.431   4.007   5.548  0.1170  0.1368 -0.3917
 2469TIP3    H128822   1.336   4.019   5.539  0.0366  0.5477  0.8138
 2469TIP3    H228823   1.439   3.929   5.604  0.4826  0.2256 -0.3206
 2470TIP3   OH228824   0.414   5.032  16.086 -0.2130 -0.4341  0.8383
 2470TIP3    H128825   0.491   4.977  16.105  0.3079  0.2920  0.8888
 2470TIP3    H228826   0.417   5.046  15.992 -0.8213 -1.1678  0.7002
 2471TIP3   OH228827   3.419   0.223   0.860  0.1022 -0.2446  0.1451
 2471TIP3    H128828   3.360   0.158   0.821  1.7528 -1.3791 -0.6050
 2471TIP3    H228829   3.417   0.204   0.954 -1.0014  0.0017  0.1863
 2472TIP3   OH228830   6.558   5.276   4.585  0.1864  0.0433  0.3539
 2472TIP3    H128831   6.479   5.301   4.632 -0.7672 -2.9454  0.5402
 2472TIP3    H228832   6.603   5.215   4.644  0.9679 -0.7852 -1.0385
 2473TIP3   OH228833   3.372   4.757  11.764 -0.2676  0.0542 -0.6056
 2473TIP3    H128834   3.403   4.691  11.703 -1.6086 -1.3001  0.0866
 2473TIP3    H228835   3.304   4.804  11.716 -1.0742 -0.7737 -0.2957
 2474TIP3   OH228836   4.511   0.405   4.227 -0.1978 -0.1589  0.3158
 2474TIP3    H128837   4.572   0.350   4.178 -0.5757 -0.8504  0.6078
 2474TIP3    H228838   4.444   0.428   4.163  0.5316  0.8849 -0.0977
 2475TIP3   OH228839   3.092   2.699   2.021  0.4654  0.6132 -0.4137
 2475TIP3    H128840   3.133   2.645   2.089 -1.8042  0.0522  0.5863
 2475TIP3    H228841   3.071   2.782   2.065  2.3578  1.7354 -1.4847
 2476TIP3   OH228842   3.385   5.176   3.676  0.4388 -0.0953 -0.3007
 2476TIP3    H128843   3.349   5.130   3.600 -0.9874  0.0364  0.2606
 2476TIP3    H228844   3.429   5.107   3.726  2.8931  0.0981 -2.0400
 2477TIP3   OH228845   5.875   6.334   1.366 -0.0898 -0.7636 -0.5790
 2477TIP3    H128846   5.860   6.271   1.296 -2.8387  0.2873 -1.0921
 2477TIP3    H228847   5.790   6.377   1.377  0.2716 -0.7457  3.3016
 2478TIP3   OH228848   0.677   0.927   3.902 -0.0232 -0.2318 -0.2533
 2478TIP3    H128849   0.718   0.933   3.988  0.2092 -0.8055 -0.3201
 2478TIP3    H228850   0.674   0.834   3.884 -0.5588 -0.1443 -0.6376
 2479TIP3   OH228851   1.115   5.328  11.424 -0.2289 -0.1115  0.2339
 2479TIP3    H128852   1.113   5.422  11.441 -1.8249 -0.1363  0.3590
 2479TIP3    H228853   1.148   5.320  11.334 -0.3576  0.5768  0.1205
 2480TIP3   OH228854   1.687   5.113   6.258  0.4072  0.1432  0.2435
 2480TIP3    H128855   1.739   5.131   6.337 -1.9115  1.5508  1.5634
 2480TIP3    H228856   1.745   5.136   6.185  1.8529  1.0096  1.5946
 2481TIP3   OH228857   1.361   2.452   5.381  0.5758  0.3138  0.4546
 2481TIP3    H128858   1.272   2.426   5.404  0.4610  2.0262  2.2126
 2481TIP3    H228859   1.406   2.370   5.363 -1.0271 -0.6865  0.7511
 2482TIP3   OH228860   4.478   6.064   3.063 -0.1829 -0.5034 -0.6773
 2482TIP3    H128861   4.501   6.132   3.127 -0.5230  0.4052 -1.4997
 2482TIP3    H228862   4.482   5.983   3.113 -1.1428  0.2391  0.6896
 2483TIP3   OH228863   2.230   1.065   5.273  0.2025  0.2981  0.1894
 2483TIP3    H128864   2.324   1.049   5.283  0.3366  0.4941 -0.6873
 2483TIP3    H228865   2.189   0.999   5.329  0.8661  0.9640  1.5182
 2484TIP3   OH228866   6.677   0.806   2.569 -0.2291 -0.7393 -0.1736
 2484TIP3    H128867   6.690   0.794   2.475  0.8281 -1.0105 -0.0012
 2484TIP3    H228868   6.730   0.883   2.591 -0.6679 -0.5268  0.1669
 2485TIP3   OH228869   3.319   6.403  11.944 -0.3082 -0.0666  0.7373
 2485TIP3    H128870   3.254   6.468  11.918 -1.1630 -0.9816  0.5160
 2485TIP3    H228871   3.270   6.338  11.994  0.3394 -1.0072  0.1889
 2486TIP3   OH228872   1.841   2.789  12.194  0.1108  0.0928  0.2315
 2486TIP3    H128873   1.755   2.817  12.164 -0.0689 -0.7480 -0.0687
 2486TIP3    H228874   1.876   2.864  12.242 -0.8451  0.3940  0.4730
 2487TIP3   OH228875   5.568   5.362   4.881 -0.0574  0.0865  0.4731
 2487TIP3    H128876   5.499   5.306   4.915 -0.2392  0.2863  0.4394
 2487TIP3    H228877   5.546   5.375   4.789  0.2934 -0.2456  0.3371
 2488TIP3   OH228878   4.991   1.300   1.146  0.2997  0.4829 -0.0440
 2488TIP3    H128879   4.976   1.378   1.198 -2.3689  2.1419 -2.9587
 2488TIP3    H228880   4.919   1.241   1.169 -0.8473  1.1932 -1.6406
 2489TIP3   OH228881   5.739   4.510  14.024 -0.3218 -0.1373  0.3217
 2489TIP3    H128882   5.762   4.421  13.997 -0.4639 -0.2436  0.5376
 2489TIP3    H228883   5.732   4.560  13.943  1.0492 -0.0029  0.2716
 2490TIP3   OH228884   0.238   0.338  15.566 -0.4741  0.2341  0.6391
 2490TIP3    H128885   0.156   0.289  15.556  0.1070 -0.8994  1.2181
 2490TIP3    H228886   0.285   0.322  15.484 -1.3467  1.9427 -0.2363
 2491TIP3   OH228887   5.935   5.885   1.005 -0.1854  0.7147  0.3415
 2491TIP3    H128888   5.968   5.968   1.039  0.3068  1.1172 -1.0411
 2491TIP3    H228889   5.840   5.892   1.011 -0.3274  2.5181 -2.1285
 2492TIP3   OH228890   2.361   5.911   4.906 -0.0171 -0.0166  0.3823
 2492TIP3    H128891   2.389   5.823   4.880 -0.4848  0.3821 -1.5916
 2492TIP3    H228892   2.399   5.923   4.993  1.4050 -1.5510  0.0198
 2493TIP3   OH228893   0.502   0.242   4.190  0.4623 -0.2429  0.0528
 2493TIP3    H128894   0.409   0.259   4.175  0.5988 -0.4609 -1.1581
 2493TIP3    H228895   0.527   0.303   4.260  0.3441  2.9269 -2.3910
 2494TIP3   OH228896   0.826   0.286   5.491 -0.2740  0.3428 -0.2168
 2494TIP3    H128897   0.732   0.304   5.484 -0.1478  0.4023 -2.3123
 2494TIP3    H228898   0.847   0.305   5.583 -2.2823  0.3836  0.2819
 2495TIP3   OH228899   4.738   6.458  14.269  0.4854 -0.5424 -0.1166
 2495TIP3    H128900   4.795   6.440  14.194 -0.9918 -1.5434 -1.0535
 2495TIP3    H228901   4.664   6.399  14.257 -1.0165  1.0811  0.7687
 2496TIP3   OH228902   3.926   4.792   3.023  0.4446  0.0562 -0.2884
 2496TIP3    H128903   3.908   4.880   3.056  0.1042  0.1627 -0.7655
 2496TIP3    H228904   4.018   4.794   2.997  0.1611  0.5792 -1.2768
 2497TIP3   OH228905   2.290   5.607   4.614  0.6692 -0.1976  0.1775
 2497TIP3    H128906   2.366   5.614   4.557  0.3522  0.8081 -0.1531
 2497TIP3    H228907   2.327   5.604   4.703  1.1020  0.3982  0.0264
 2498TIP3   OH228908   2.646   0.430  15.098 -0.4227  0.3837 -0.0068
 2498TIP3    H128909   2.715   0.401  15.157 -0.9067 -2.1478 -0.5678
 2498TIP3    H228910   2.692   0.467  15.023  0.2346  1.0771  0.7175
 2499TIP3   OH228911   2.542   5.573  16.771  0.0465  0.4197 -0.2794
 2499TIP3    H128912   2.505   5.589  16.858 -2.2703 -0.6468 -0.9910
 2499TIP3    H228913   2.578   5.657  16.744 -1.0975  1.3062  0.8484
 2500TIP3   OH228914   5.853   2.329   5.136 -0.2024  1.2463 -0.4243
 2500TIP3    H128915   5.907   2.250   5.134 -2.0903 -0.1474  0.8449
 2500TIP3    H228916   5.879   2.374   5.216 -0.2563  1.0742 -0.3100
 2501TIP3   OH228917   4.953   6.211   3.602  0.4383  0.4291  0.0664
 2501TIP3    H128918   4.914   6.161   3.530 -0.7165  0.3779  0.7122
 2501TIP3    H228919   4.988   6.144   3.661  0.8409  0.4562 -0.1355
 2502TIP3   OH228920   4.350   2.484  15.679  0.8829 -0.4430 -0.2056
 2502TIP3    H128921   4.259   2.455  15.680  0.6726  0.1882  0.6416
 2502TIP3    H228922   4.344   2.579  15.691  1.6790 -0.5059  0.8272
 2503TIP3   OH228923   0.913   4.292   3.378  0.4666 -0.1184  0.2390
 2503TIP3    H128924   0.839   4.306   3.319 -0.2636  0.7455  1.3193
 2503TIP3    H228925   0.990   4.314   3.325  0.1716 -2.7584 -1.4767
 2504TIP3   OH228926   6.393   1.332  13.579  0.2190 -0.3006  0.2084
 2504TIP3    H128927   6.432   1.258  13.625  0.8209  0.2401  0.5837
 2504TIP3    H228928   6.334   1.292  13.515  0.8052 -1.1042  0.1563
 2505TIP3   OH228929   1.580   4.666   5.734  0.1699 -0.1419 -0.7664
 2505TIP3    H128930   1.612   4.649   5.645  1.1318 -0.1324 -0.4256
 2505TIP3    H228931   1.649   4.718   5.775 -0.2376 -0.2060  0.0166
 2506TIP3   OH228932   4.696   3.230   3.482  0.0295  0.6329 -0.6258
 2506TIP3    H128933   4.604   3.253   3.495 -0.2732 -1.2491  1.0778
 2506TIP3    H228934   4.694   3.148   3.433  0.5587 -1.3923  2.5039
 2507TIP3   OH228935   1.015   0.278  13.755  0.3606 -0.0461  0.0343
 2507TIP3    H128936   0.986   0.350  13.700  0.3374 -0.1800 -0.1290
 2507TIP3    H228937   0.994   0.199  13.705  0.0787 -0.1784  0.3550
 2508TIP3   OH228938   0.964   2.318  15.513 -0.3251  0.1433  0.2965
 2508TIP3    H128939   0.996   2.339  15.426 -3.2639 -0.8155 -1.1375
 2508TIP3    H228940   0.981   2.397  15.564 -2.0614  2.3280 -2.2411
 2509TIP3   OH228941   5.461   2.736  12.214  0.2971 -0.6682 -0.2819
 2509TIP3    H128942   5.476   2.822  12.176 -2.9017  0.1964  0.1740
 2509TIP3    H228943   5.477   2.747  12.307  0.5824 -0.7594 -0.3195
 2510TIP3   OH228944   5.249   5.908   2.278 -0.1280  0.1879 -0.0892
 2510TIP3    H128945   5.294   5.962   2.343 -0.0980 -0.4390  0.4238
 2510TIP3    H228946   5.315   5.889   2.212 -0.3107  1.3084 -0.6194
 2511TIP3   OH228947   6.461   1.593   1.367 -0.5134 -0.1917  0.0966
 2511TIP3    H128948   6.492   1.579   1.457 -1.9058 -1.8129  0.3779
 2511TIP3    H228949   6.480   1.685   1.348  2.0254 -0.4267  1.1531
 2512TIP3   OH228950   3.783   0.118   4.739  0.0975  0.0914 -0.0778
 2512TIP3    H128951   3.874   0.149   4.733  0.0579  0.2132 -0.0464
 2512TIP3    H228952   3.743   0.145   4.657  0.0358  0.2121 -0.0087
 2513TIP3   OH228953   4.749   2.527   6.229 -0.0760  0.0740  0.2476
 2513TIP3    H128954   4.788   2.562   6.309 -0.7984  0.1112  0.5884
 2513TIP3    H228955   4.779   2.436   6.225  1.2819  0.5299 -0.3016
 2514TIP3   OH228956   4.061   1.668   4.352 -0.0791 -0.7423  0.0756
 2514TIP3    H128957   4.071   1.648   4.445  1.4138  0.2335  0.1407
 2514TIP3    H228958   4.114   1.602   4.307 -0.1396 -0.7050 -0.0518
 2515TIP3   OH228959   6.582   3.259   2.989  0.6108  0.6693  0.7235
 2515TIP3    H128960   6.670   3.266   3.026  0.0262  1.0736  2.1025
 2515TIP3    H228961   6.577   3.169   2.956  1.1336  0.2701  1.6989
 2516TIP3   OH228962   4.336   0.521   4.039 -0.3447  0.5695  0.6446
 2516TIP3    H128963   4.340   0.611   4.071  1.9655  1.1313 -0.9365
 2516TIP3    H228964   4.294   0.528   3.953  1.4796  0.5121 -0.3194
 2517TIP3   OH228965   0.225   3.838   2.923  0.2721  0.1193 -0.9163
 2517TIP3    H128966   0.201   3.774   2.856 -1.0721  1.2196 -1.5226
 2517TIP3    H228967   0.237   3.920   2.875  0.6778  0.6268  0.0147
 2518TIP3   OH228968   3.430   1.786  17.191  0.7651 -0.3552 -0.2274
 2518TIP3    H128969   3.358   1.850  17.185  0.3059 -0.9662 -1.5624
 2518TIP3    H228970   3.508   1.835  17.167  0.2669 -0.5016 -2.3189
 2519TIP3   OH228971   3.213   4.954   0.945  0.8124  0.1568  0.3022
 2519TIP3    H128972   3.226   4.934   0.852  2.8063 -2.0633  0.9741
 2519TIP3    H228973   3.148   4.890   0.974  0.4721  0.6053  0.5410
 2520TIP3   OH228974   6.087   3.737   4.872  0.3216  0.2912 -0.0443
 2520TIP3    H128975   6.006   3.728   4.822  0.8312 -0.2441 -0.7930
 2520TIP3    H228976   6.092   3.831   4.892 -0.4496  0.3373 -0.0341
 2521TIP3   OH228977   5.928   4.322   1.427 -0.9955 -0.2679  0.3826
 2521TIP3    H128978   5.855   4.262   1.413 -1.5099  0.5962 -0.7656
 2521TIP3    H228979   5.961   4.341   1.339  1.2753 -1.4148  0.9105
 2522TIP3   OH228980   2.502   1.111  14.260 -0.2061 -0.0583 -0.2249
 2522TIP3    H128981   2.514   1.192  14.309  0.9908 -0.4668  0.1867
 2522TIP3    H228982   2.573   1.110  14.196  0.4838 -1.2873  0.5121
 2523TIP3   OH228983   2.787   4.593   5.086  0.1046  0.0535 -0.0196
 2523TIP3    H128984   2.854   4.576   5.152  0.0893 -0.6836 -0.1883
 2523TIP3    H228985   2.707   4.557   5.123  0.0801 -0.2999 -0.4022
 2524TIP3   OH228986   6.111   6.279   2.080 -0.3200 -0.2922  0.7174
 2524TIP3    H128987   6.080   6.190   2.096  2.4967 -1.0643  2.5738
 2524TIP3    H228988   6.109   6.321   2.166 -0.9709  1.2739 -0.0128
 2525TIP3   OH228989   5.550   6.204   6.289 -0.1128 -0.2635 -0.6317
 2525TIP3    H128990   5.481   6.270   6.296 -0.3235 -0.5515  0.1175
 2525TIP3    H228991   5.519   6.131   6.343  1.1983 -0.0410  0.4457
 2526TIP3   OH228992   2.172   5.382   4.859  0.3402 -0.8087  0.4252
 2526TIP3    H128993   2.158   5.467   4.901 -0.3286 -1.0814  0.7644
 2526TIP3    H228994   2.106   5.325   4.898 -1.5662 -0.6484 -2.3137
 2527TIP3   OH228995   0.554   3.308  14.469 -0.4290 -0.2506  0.3142
 2527TIP3    H128996   0.528   3.226  14.511 -1.0229 -0.7558 -0.9499
 2527TIP3    H228997   0.649   3.310  14.475  0.0306 -3.0200 -2.9331
 2528TIP3   OH228998   3.508   2.740  11.485  0.1261 -0.2683 -0.2345
 2528TIP3    H128999   3.542   2.785  11.562 -0.3059 -0.2535 -0.0492
 2528TIP3    H229000   3.450   2.804  11.443 -0.2784 -0.5532 -0.1190
 2529TIP3   OH229001   2.896   4.834   3.702 -0.6917 -0.0351  0.0131
 2529TIP3    H129002   2.832   4.797   3.640  0.1444  0.2323 -1.0370
 2529TIP3    H229003   2.866   4.923   3.717 -0.5335  0.1164 -0.5416
 2530TIP3   OH229004   1.393   4.138  16.114  0.1696 -0.1205 -0.5203
 2530TIP3    H129005   1.371   4.087  16.193  1.8951 -0.5813 -0.2910
 2530TIP3    H229006   1.309   4.154  16.072 -0.7766 -0.1433  1.2478
 2531TIP3   OH229007   3.109   5.303  16.969 -0.1400 -0.9761  0.1500
 2531TIP3    H129008   3.084   5.395  16.965  0.4248 -0.8389 -0.3700
 2531TIP3    H229009   3.106   5.281  17.063  2.1766  0.2954  0.5952
 2532TIP3   OH229010   1.280   1.427  16.054 -0.1294 -0.3534 -0.1181
 2532TIP3    H129011   1.236   1.485  16.117  0.3594 -1.1505  0.9777
 2532TIP3    H229012   1.363   1.404  16.096  0.7513  0.0485 -1.5827
 2533TIP3   OH229013   2.578   0.492  11.953 -0.0792 -0.1179  0.1003
 2533TIP3    H129014   2.661   0.538  11.966 -0.7788  1.2702 -0.0756
 2533TIP3    H229015   2.567   0.439  12.032  0.7427  0.0449  0.3353
 2534TIP3   OH229016   0.025   2.014   3.689  0.0722  0.0276 -0.3241
 2534TIP3    H129017   0.120   2.021   3.682  0.0603 -0.1055 -0.6724
 2534TIP3    H229018  -0.006   2.105   3.694  0.0485  0.2318 -2.8039
 2535TIP3   OH229019   5.972   2.546   3.137 -0.5692 -0.0707  0.6862
 2535TIP3    H129020   6.022   2.465   3.134 -0.6625 -0.1044 -0.3323
 2535TIP3    H229021   5.952   2.566   3.046 -2.8478 -0.3314  1.0713
 2536TIP3   OH229022   4.073   0.708  14.915 -0.8539 -0.0026  0.4957
 2536TIP3    H129023   4.081   0.737  14.824 -0.0565 -2.0475 -0.1500
 2536TIP3    H229024   4.140   0.640  14.924 -1.5907 -0.5341  2.3240
 2537TIP3   OH229025   0.697   3.995   4.365  0.4908 -0.4447  0.3704
 2537TIP3    H129026   0.682   4.077   4.411  2.2781  0.2823 -0.2596
 2537TIP3    H229027   0.635   3.933   4.404  0.9037  0.5222  2.6717
 2538TIP3   OH229028   3.169   4.848  17.418 -0.1524 -0.3147  0.6324
 2538TIP3    H129029   3.117   4.843  17.498  0.1459 -0.4001  0.8220
 2538TIP3    H229030   3.132   4.923  17.370 -3.4760 -2.9597 -1.3967
 2539TIP3   OH229031   4.772   0.690  17.074 -0.0410  0.2789  0.2154
 2539TIP3    H129032   4.845   0.628  17.071 -1.3338 -1.3139 -2.2018
 2539TIP3    H229033   4.813   0.776  17.071  1.7731 -0.5649 -0.4705
 2540TIP3   OH229034   4.743   0.477  12.294  0.2860 -0.3346  0.1554
 2540TIP3    H129035   4.767   0.564  12.261  0.5078 -0.7240 -0.7362
 2540TIP3    H229036   4.801   0.463  12.369 -1.3163  1.2319  1.7792
 2541TIP3   OH229037   0.005   1.865  11.596  0.0688 -0.0020 -0.4307
 2541TIP3    H129038  -0.060   1.934  11.589  0.3699  0.3349  0.0030
 2541TIP3    H229039   0.084   1.902  11.556  0.7284  0.5629  1.3082
 2542TIP3   OH229040   2.545   0.980   1.969  0.3992 -0.1513 -0.0581
 2542TIP3    H129041   2.591   1.025   2.041  1.0519 -0.0992 -0.4989
 2542TIP3    H229042   2.560   1.036   1.893 -0.0707 -0.3439 -0.2929
 2543TIP3   OH229043   0.883   0.320  12.530  0.1939  0.3272 -0.1229
 2543TIP3    H129044   0.934   0.399  12.510 -0.1392  0.5602 -0.0592
 2543TIP3    H229045   0.793   0.345  12.512 -0.3770  1.1252  3.1354
 2544TIP3   OH229046   6.169   1.899   3.579 -0.3219 -0.4477 -0.3236
 2544TIP3    H129047   6.235   1.968   3.590 -0.8933  0.0354  0.1907
 2544TIP3    H229048   6.086   1.947   3.568 -0.2975 -0.9539 -3.5651
 2545TIP3   OH229049   2.558   5.455  12.305 -0.4373  0.0278 -0.4306
 2545TIP3    H129050   2.569   5.459  12.400  0.8211  0.8560 -0.5792
 2545TIP3    H229051   2.571   5.363  12.283 -0.0625 -0.0605  0.1386
 2546TIP3   OH229052   5.047   2.511   0.958  0.1816  0.2833 -0.1477
 2546TIP3    H129053   5.028   2.418   0.945 -0.6800  0.3206  0.7209
 2546TIP3    H229054   4.983   2.556   0.902  1.2777  0.3721 -1.3941
 2547TIP3   OH229055   4.790   4.784   0.167 -0.1918 -0.1345 -0.0066
 2547TIP3    H129056   4.845   4.769   0.244 -0.5726  0.7036  0.4479
 2547TIP3    H229057   4.768   4.696   0.135 -0.3297 -0.5035  1.0694
 2548TIP3   OH229058   5.078   2.296  10.674  0.5451 -0.6519 -0.3739
 2548TIP3    H129059   5.103   2.254  10.592  0.8767  0.3838 -0.8177
 2548TIP3    H229060   5.053   2.385  10.649  0.9607 -0.2205  0.6846
 2549TIP3   OH229061   6.688   5.862   2.230  0.1933 -0.0566 -0.5788
 2549TIP3    H129062   6.745   5.786   2.239  1.5596  0.6736 -2.3865
 2549TIP3    H229063   6.748   5.937   2.230 -1.0481  0.9849  0.3397
 2550TIP3   OH229064   1.313   0.636   6.058  0.2827  0.3095 -0.3910
 2550TIP3    H129065   1.402   0.602   6.060 -0.1115 -0.7581 -0.2802
 2550TIP3    H229066   1.264   0.578   6.116 -0.3787  1.2239 -0.0090
 2551TIP3   OH229067   1.858   4.492   0.645  0.2943  0.1249 -0.0629
 2551TIP3    H129068   1.877   4.468   0.736  1.0375 -2.0877 -0.7210
 2551TIP3    H229069   1.930   4.550   0.620  1.2603 -0.8974  0.2027
 2552TIP3   OH229070   4.120   3.278  12.248  0.5487  0.3929  0.1488
 2552TIP3    H129071   4.032   3.284  12.285 -0.0750 -0.5174 -1.1324
 2552TIP3    H229072   4.141   3.368  12.224  0.9770  1.0355  2.5925
 2553TIP3   OH229073   3.578   6.339  17.156  0.0118 -0.5082 -0.6847
 2553TIP3    H129074   3.515   6.296  17.213 -0.6223  0.2546 -0.7847
 2553TIP3    H229075   3.546   6.321  17.067  1.3911 -2.3033 -0.8828
 2554TIP3   OH229076   5.588   3.921  17.351 -0.2711 -0.1611  0.1903
 2554TIP3    H129077   5.666   3.886  17.395 -1.2418 -0.8492  1.4353
 2554TIP3    H229078   5.516   3.866  17.381 -1.5509  1.6452  0.6504
 2555TIP3   OH229079   4.382   1.806   1.405 -0.0154 -0.1033  0.4018
 2555TIP3    H129080   4.428   1.745   1.462  1.2258  1.0790  0.7210
 2555TIP3    H229081   4.449   1.869   1.378 -0.8482  0.1005 -1.3565
 2556TIP3   OH229082   2.247   1.422   4.657 -0.0422  0.2945 -0.0654
 2556TIP3    H129083   2.198   1.474   4.720  1.0551  1.3318 -0.0265
 2556TIP3    H229084   2.180   1.381   4.602 -0.9898  0.0930  1.1857
 2557TIP3   OH229085   5.258   0.482   2.007  0.0824 -0.0582  0.0384
 2557TIP3    H129086   5.351   0.506   2.008 -0.0088  0.4868 -1.5067
 2557TIP3    H229087   5.213   0.560   2.038  0.1718 -0.6292  1.6670
 2558TIP3   OH229088   1.582   0.422  17.053 -0.0843 -0.1504  0.0877
 2558TIP3    H129089   1.540   0.336  17.054  0.9823 -0.7212 -1.3846
 2558TIP3    H229090   1.668   0.408  17.092 -0.5429  0.6449  1.4542
 2559TIP3   OH229091   2.617   0.438  14.566 -0.7186  0.2726  0.0518
 2559TIP3    H129092   2.637   0.490  14.488  1.8963  1.6542  1.4929
 2559TIP3    H229093   2.645   0.349  14.544 -0.6584  0.4951 -0.8048
 2560TIP3   OH229094   4.732   5.497   2.852 -0.1152  0.4306  0.3885
 2560TIP3    H129095   4.722   5.578   2.800  2.0684  0.2140 -0.4922
 2560TIP3    H229096   4.826   5.478   2.847 -0.4487 -1.6583  1.3723
 2561TIP3   OH229097   5.694   6.507   1.521  0.0753  0.3112 -0.5118
 2561TIP3    H129098   5.651   6.582   1.483  0.0155  0.4602 -0.1580
 2561TIP3    H229099   5.623   6.455   1.560  0.1811  0.4142 -0.1750
 2562TIP3   OH229100   3.864   4.341   1.481 -0.0753  0.1438  0.4088
 2562TIP3    H129101   3.781   4.296   1.464 -1.7043  2.8629  0.6537
 2562TIP3    H229102   3.931   4.276   1.460 -2.2304 -2.4960  1.1271
 2563TIP3   OH229103   4.871   6.700   6.093  0.0569 -0.0359 -0.8428
 2563TIP3    H129104   4.776   6.708   6.102 -0.0358 -1.6649 -0.0201
 2563TIP3    H229105   4.904   6.788   6.110 -1.2546  0.3744 -0.2943
 2564TIP3   OH229106   4.159   0.683   1.348 -0.1485  0.7354  0.2344
 2564TIP3    H129107   4.150   0.779   1.346  0.8439  0.8363 -0.3331
 2564TIP3    H229108   4.254   0.669   1.345 -0.3028 -0.2742  0.0735
 2565TIP3   OH229109   5.224   1.441   4.780 -0.0588 -0.3110  0.0167
 2565TIP3    H129110   5.190   1.475   4.697  2.1785 -0.7467 -1.1507
 2565TIP3    H229111   5.256   1.519   4.826  0.3458 -0.2712 -0.3335
 2566TIP3   OH229112   3.112   0.156  12.585 -0.2707  0.3445 -0.3636
 2566TIP3    H129113   3.100   0.221  12.516  1.0083  0.0698 -0.8695
 2566TIP3    H229114   3.166   0.088  12.545  1.0982  0.5113  1.0982
 2567TIP3   OH229115   3.036   1.896  15.669 -0.2424  0.3373 -0.5038
 2567TIP3    H129116   3.052   1.846  15.589  2.1100  1.9793 -1.1631
 2567TIP3    H229117   2.999   1.832  15.731 -0.0292 -1.4850 -2.1768
 2568TIP3   OH229118   2.962   1.591   1.940 -0.8569 -0.0466  0.3130
 2568TIP3    H129119   2.874   1.614   1.969 -1.3481  0.1178 -1.2310
 2568TIP3    H229120   3.019   1.657   1.978 -1.4819  0.2129  0.8023
 2569TIP3   OH229121   5.298   1.297  16.885  0.1559  0.4223 -0.4381
 2569TIP3    H129122   5.371   1.337  16.931 -0.2915 -0.2096  0.8471
 2569TIP3    H229123   5.338   1.235  16.824  0.6732 -0.6273  0.9357
 2570TIP3   OH229124   4.467   1.755  12.514  0.3858  0.4526 -0.8194
 2570TIP3    H129125   4.455   1.696  12.440  0.4570  0.0126 -0.4806
 2570TIP3    H229126   4.391   1.739  12.571  0.5783  0.4455 -0.5627
 2571TIP3   OH229127   1.193   0.635  13.615 -0.0500  0.4771  0.2939
 2571TIP3    H129128   1.249   0.681  13.678  1.7875 -2.6078  1.1257
 2571TIP3    H229129   1.250   0.621  13.539 -1.0518  0.8529 -0.5450
 2572TIP3   OH229130   5.665   2.948  15.502 -0.2638 -0.1680  0.3344
 2572TIP3    H129131   5.738   2.996  15.541 -0.8983  0.7911  0.3819
 2572TIP3    H229132   5.620   2.907  15.576 -0.4946  0.2758  0.4451
 2573TIP3   OH229133   6.322   4.793   3.096  0.5782  0.3971  0.6461
 2573TIP3    H129134   6.329   4.699   3.113 -1.3859  0.1475  0.2926
 2573TIP3    H229135   6.361   4.834   3.173  0.6274 -0.7084  1.2403
 2574TIP3   OH229136   0.601   4.313   0.346 -0.2415 -0.5367  0.3886
 2574TIP3    H129137   0.625   4.404   0.328 -3.6972  0.4016 -0.0806
 2574TIP3    H229138   0.595   4.308   0.442  1.0121 -0.6296  0.4794
 2575TIP3   OH229139   2.000   4.764  15.527 -0.1218 -0.3215  0.0461
 2575TIP3    H129140   1.988   4.796  15.438 -0.3128 -0.8920 -0.1347
 2575TIP3    H229141   2.085   4.801  15.554 -0.4856  0.5944 -0.0360
 2576TIP3   OH229142   5.695   2.559   1.366  0.0937  0.1460 -0.1277
 2576TIP3    H129143   5.741   2.627   1.416  0.8989 -0.6685  0.2647
 2576TIP3    H229144   5.681   2.598   1.279  0.2481  0.9229  0.1880
 2577TIP3   OH229145   1.394   1.181   2.389  0.1223  0.0221  0.1013
 2577TIP3    H129146   1.421   1.270   2.413 -1.9875  0.0060  3.1701
 2577TIP3    H229147   1.369   1.187   2.297  3.8730  1.5187 -0.9986
 2578TIP3   OH229148   1.346   1.668  12.572 -0.3908 -0.8575 -0.2465
 2578TIP3    H129149   1.387   1.656  12.658 -0.4892  0.5186  0.0172
 2578TIP3    H229150   1.353   1.582  12.530 -0.7920 -1.7006  1.3256
 2579TIP3   OH229151   6.354   2.282  11.754  0.2152 -0.5818  0.6422
 2579TIP3    H129152   6.398   2.304  11.835  0.3860  0.2507  0.3423
 2579TIP3    H229153   6.275   2.337  11.754 -0.1042 -1.0389  0.5414
 2580TIP3   OH229154   2.852   2.291   1.003  0.2747 -0.1457  0.0052
 2580TIP3    H129155   2.859   2.367   1.059  0.6293 -0.0250 -0.2028
 2580TIP3    H229156   2.942   2.271   0.977 -0.0444  1.1884 -2.3691
 2581TIP3   OH229157   3.738   0.442  15.388  0.0888  0.3953  0.8902
 2581TIP3    H129158   3.727   0.348  15.373 -0.4813  0.4775  0.7761
 2581TIP3    H229159   3.657   0.469  15.431  0.0312  0.9364  0.4511
 2582TIP3   OH229160   4.610   4.700  14.392  0.1788 -0.1128 -0.6580
 2582TIP3    H129161   4.696   4.692  14.351 -0.2609 -0.6496 -1.5177
 2582TIP3    H229162   4.603   4.792  14.416  2.9850 -0.8281  4.0289
 2583TIP3   OH229163   1.853   0.240  12.715 -0.1825  0.5185  0.0960
 2583TIP3    H129164   1.863   0.315  12.656 -0.1250  1.1805  0.9298
 2583TIP3    H229165   1.776   0.260  12.768 -0.2585 -0.0879  0.2290
 2584TIP3   OH229166   4.754   5.741  14.385  0.3040 -0.0639  0.4781
 2584TIP3    H129167   4.783   5.703  14.468 -0.0442 -0.1880  0.5444
 2584TIP3    H229168   4.832   5.739  14.329  0.3307 -0.7346  0.5335
 2585TIP3   OH229169   4.874   1.585   3.695  0.1364 -0.5258  0.2508
 2585TIP3    H129170   4.854   1.537   3.776  0.3053  0.0707  0.6522
 2585TIP3    H229171   4.802   1.648   3.687 -0.5540 -1.3938 -0.7376
 2586TIP3   OH229172   3.212   2.066   2.653  0.0658  0.5591 -0.2084
 2586TIP3    H129173   3.194   2.154   2.619 -1.3106  1.1544  1.8918
 2586TIP3    H229174   3.129   2.036   2.688  0.9849 -0.7073  0.9939
 2587TIP3   OH229175   2.695   6.216  15.212 -0.3055  0.0056 -0.4183
 2587TIP3    H129176   2.655   6.284  15.266 -2.4013 -1.0926 -0.4790
 2587TIP3    H229177   2.649   6.136  15.236  1.8100 -1.3644 -0.6325
 2588TIP3   OH229178   1.989   4.215   2.129 -0.1536  0.2898  0.5950
 2588TIP3    H129179   2.073   4.172   2.139 -0.7613 -1.2791 -0.6036
 2588TIP3    H229180   1.952   4.217   2.218  0.6741 -0.0031  0.9541
 2589TIP3   OH229181   2.113   6.687   5.283  0.2479  0.6283  0.4272
 2589TIP3    H129182   2.152   6.667   5.367  3.2920 -0.2213 -1.0520
 2589TIP3    H229183   2.098   6.602   5.242  0.1087  1.0407 -0.4073
 2590TIP3   OH229184   0.332   2.698   3.374  0.0483 -0.8059 -0.0023
 2590TIP3    H129185   0.301   2.770   3.319  1.4275 -0.8561 -0.9068
 2590TIP3    H229186   0.427   2.696   3.359  0.3113 -1.5154  1.5847
 2591TIP3   OH229187   4.337   3.280  14.689  0.1232  0.4187  0.1512
 2591TIP3    H129188   4.256   3.331  14.675  0.0729  0.4723  0.6298
 2591TIP3    H229189   4.403   3.346  14.709  0.3435  0.3935 -0.4785
 2592TIP3   OH229190   4.929   1.464   0.893  0.0030  0.3788 -0.1436
 2592TIP3    H129191   4.983   1.457   0.815  2.1077  0.2824  1.2424
 2592TIP3    H229192   4.978   1.416   0.960 -2.7105 -1.3333  0.7722
 2593TIP3   OH229193   1.210   6.327  11.198  0.2928 -0.1414  0.2412
 2593TIP3    H129194   1.201   6.277  11.117 -0.6547 -0.5385  0.5658
 2593TIP3    H229195   1.142   6.290  11.255  1.4232 -0.3871  1.4738
 2594TIP3   OH229196   1.987   5.513   1.627  0.0432 -0.0929 -0.0311
 2594TIP3    H129197   1.956   5.441   1.683 -1.5854  1.6867  1.5039
 2594TIP3    H229198   2.082   5.513   1.638  0.1324 -2.2254 -0.3980
 2595TIP3   OH229199   5.328   2.746  13.663 -0.1226 -0.3279  0.6379
 2595TIP3    H129200   5.277   2.678  13.619  0.2945 -0.2953  0.0865
 2595TIP3    H229201   5.338   2.814  13.597  0.9563 -0.4994  0.6066
 2596TIP3   OH229202   2.764   2.206  11.119 -0.0479  0.4232 -0.8750
 2596TIP3    H129203   2.726   2.118  11.112  0.7848 -0.1029  0.6562
 2596TIP3    H229204   2.730   2.240  11.202  1.9953  0.2912  0.0918
 2597TIP3   OH229205   1.158   5.347  16.187 -0.4101 -0.4094  0.0952
 2597TIP3    H129206   1.150   5.321  16.095 -0.0324  1.2681 -0.4487
 2597TIP3    H229207   1.072   5.384  16.209 -0.5770 -1.0256  0.5051
 2598TIP3   OH229208   0.828   1.257   4.736  0.3342  0.5567 -0.3426
 2598TIP3    H129209   0.889   1.213   4.795  0.7479 -1.4146 -2.1399
 2598TIP3    H229210   0.780   1.187   4.693 -2.5876  2.0188  0.2688
 2599TIP3   OH229211   5.458   5.615   4.282  0.5729  0.1635 -0.2057
 2599TIP3    H129212   5.475   5.524   4.307 -1.1909 -0.4364 -1.0309
 2599TIP3    H229213   5.504   5.627   4.199  1.6929  0.3777  0.4329
 2600TIP3   OH229214   3.180   0.968  11.156  0.0616 -0.8153 -0.4217
 2600TIP3    H129215   3.168   0.965  11.061  0.2105 -0.4547 -0.4522
 2600TIP3    H229216   3.196   1.060  11.175  0.3627 -0.9386 -0.0865
 2601TIP3   OH229217   2.324   1.961   2.172 -0.3047 -0.1335  0.4099
 2601TIP3    H129218   2.285   1.978   2.087 -1.7566  0.7611  1.2074
 2601TIP3    H229219   2.384   2.034   2.187  1.5715 -1.3692 -0.6999
 2602TIP3   OH229220   3.079   0.553  11.795  0.2370 -0.2519  0.2841
 2602TIP3    H129221   3.157   0.605  11.817  1.4080 -2.3374  1.3249
 2602TIP3    H229222   3.114   0.471  11.760 -1.5565 -0.4363 -1.2324
 2603TIP3   OH229223   2.424   0.636  14.648  0.3305  0.7771 -0.4342
 2603TIP3    H129224   2.508   0.590  14.657 -0.5657 -1.3883 -2.2213
 2603TIP3    H229225   2.419   0.659  14.555 -1.7288 -0.5825 -0.7151
 2604TIP3   OH229226   2.337   0.462  17.178 -0.0881  0.1479  0.6385
 2604TIP3    H129227   2.329   0.424  17.266 -2.1646 -0.3145  0.2985
 2604TIP3    H229228   2.305   0.551  17.187 -1.5852 -0.3137  0.1162
 2605TIP3   OH229229   5.209   0.538   1.165 -0.5284  0.0502  0.0141
 2605TIP3    H129230   5.228   0.590   1.087 -0.7496  0.3474  0.1565
 2605TIP3    H229231   5.289   0.542   1.216 -1.7317  3.6776  1.9823
 2606TIP3   OH229232   2.206   1.676   2.181 -0.6753  0.0055  0.0806
 2606TIP3    H129233   2.211   1.581   2.190  0.1571 -0.0562 -0.8266
 2606TIP3    H229234   2.270   1.710   2.244  0.4069 -0.1364 -0.9083
 2607TIP3   OH229235   4.509   4.326  17.439 -0.1133  0.0863 -0.0682
 2607TIP3    H129236   4.562   4.383  17.494 -0.2272 -0.1608  0.3006
 2607TIP3    H229237   4.573   4.272  17.392  0.3164  3.2609 -3.6438
 2608TIP3   OH229238   0.128   0.436   2.755 -0.1826  0.2108  0.4154
 2608TIP3    H129239   0.105   0.396   2.839 -1.4269 -0.6304 -0.2905
 2608TIP3    H229240   0.100   0.528   2.764 -0.7302  0.0166  0.7747
 2609TIP3   OH229241   2.714   3.544   4.020  0.2686 -0.0282 -0.1432
 2609TIP3    H129242   2.685   3.505   3.938 -0.8286 -1.8918  1.0523
 2609TIP3    H229243   2.725   3.637   4.000  0.6107 -0.5093 -2.5205
 2610TIP3   OH229244   1.861   4.345  15.707  0.0452 -0.8996  0.4641
 2610TIP3    H129245   1.866   4.440  15.714 -2.4836 -0.8286  3.0984
 2610TIP3    H229246   1.949   4.318  15.679  1.3605  2.0452  1.3996
 2611TIP3   OH229247   2.834   0.981   0.041 -0.4253 -0.7196  0.3208
 2611TIP3    H129248   2.746   0.999   0.006 -0.1481  0.5689  0.2351
 2611TIP3    H229249   2.854   1.058   0.094  1.2547 -0.2921 -0.8653
 2612TIP3   OH229250   0.176   1.668   4.983 -0.1243  0.5391 -0.1690
 2612TIP3    H129251   0.197   1.600   4.918  1.3588  0.8217 -0.0246
 2612TIP3    H229252   0.123   1.731   4.934 -2.1861 -1.0341 -0.1161
 2613TIP3   OH229253   5.505   5.160  12.676  0.0031 -0.2522  0.1314
 2613TIP3    H129254   5.485   5.205  12.758 -0.2003  1.9381 -1.0294
 2613TIP3    H229255   5.448   5.084  12.675 -1.4199  0.7457  1.1728
 2614TIP3   OH229256   4.077   4.434  12.794 -0.2498  0.1056 -0.1176
 2614TIP3    H129257   4.078   4.500  12.724 -2.1304 -1.0935 -1.3569
 2614TIP3    H229258   4.107   4.354  12.753 -0.9631 -0.5266  0.5425
 2615TIP3   OH229259   1.962   2.636  11.289  0.3171  0.5234  0.2584
 2615TIP3    H129260   1.904   2.621  11.363 -0.3871  2.3516  0.1267
 2615TIP3    H229261   1.961   2.554  11.240 -1.5781  0.2781  0.6484
 2616TIP3   OH229262   2.909   0.032  16.443 -0.6829  0.1679  0.3220
 2616TIP3    H129263   2.837   0.026  16.380 -0.2935  2.6203 -0.4647
 2616TIP3    H229264   2.881   0.098  16.506  1.0055  1.5832 -0.3085
 2617TIP3   OH229265   4.495   0.493  14.523 -0.0456 -0.3573  0.2956
 2617TIP3    H129266   4.508   0.573  14.472 -0.5095 -0.1559  0.4900
 2617TIP3    H229267   4.525   0.515  14.611 -1.8165  0.1740  0.7977
 2618TIP3   OH229268   5.797   3.842   0.059 -0.2947 -0.3183  0.6168
 2618TIP3    H129269   5.855   3.783   0.011 -1.3126  0.0745 -1.1739
 2618TIP3    H229270   5.776   3.795   0.140 -0.5179 -2.1198 -0.4413
 2619TIP3   OH229271   5.539   3.184  10.589 -0.4456  0.3338 -0.3640
 2619TIP3    H129272   5.577   3.096  10.598  2.2881  1.4747  0.2825
 2619TIP3    H229273   5.510   3.207  10.677  1.7016  1.2098  0.1664
 2620TIP3   OH229274   1.826   2.913  14.131 -0.3639  0.4950 -0.2521
 2620TIP3    H129275   1.782   2.881  14.210  0.8751  0.3235  0.3931
 2620TIP3    H229276   1.784   2.996  14.112 -0.9564  0.3414  0.3531
 2621TIP3   OH229277   5.593   0.302   1.673 -0.0834  0.6995  0.5125
 2621TIP3    H129278   5.554   0.354   1.743 -0.0716  1.4479 -0.0215
 2621TIP3    H229279   5.581   0.355   1.594  1.3037  0.5891  0.2007
 2622TIP3   OH229280   0.593   0.312   3.159 -0.3810 -0.2952  0.0717
 2622TIP3    H129281   0.654   0.250   3.121 -2.8683 -1.9186 -1.5056
 2622TIP3    H229282   0.602   0.391   3.105  1.9515  0.4331  1.3722
 2623TIP3   OH229283   0.101   6.347  12.183  0.3097 -0.0957 -0.2291
 2623TIP3    H129284   0.076   6.283  12.250  0.3538  0.9847  0.8497
 2623TIP3    H229285   0.018   6.367  12.138  0.1289 -0.1929  0.0554
 2624TIP3   OH229286   5.497   1.343  11.281  0.2774 -0.3360  0.0073
 2624TIP3    H129287   5.563   1.401  11.244 -1.0125  0.5272 -1.0303
 2624TIP3    H229288   5.441   1.320  11.207  0.5983 -2.7445  0.4298
 2625TIP3   OH229289   2.267   5.104  11.940 -0.0484 -0.6579 -0.0335
 2625TIP3    H129290   2.274   5.087  11.847 -0.2925 -1.6491  0.1105
 2625TIP3    H229291   2.339   5.055  11.979  0.9181  0.8839  0.1988
 2626TIP3   OH229292   2.802   1.961   1.454 -0.1890 -0.0330  0.6100
 2626TIP3    H129293   2.745   1.923   1.522  0.1477  2.4702  2.4352
 2626TIP3    H229294   2.875   1.999   1.503  0.8341  0.5921 -1.3244
 2627TIP3   OH229295   0.820   0.911  12.498  0.2079  0.2230  0.3580
 2627TIP3    H129296   0.821   0.983  12.435  2.1600  0.1177  0.2139
 2627TIP3    H229297   0.778   0.839  12.451  3.9140 -0.7017 -1.9488
 2628TIP3   OH229298   3.929   4.980  11.352 -0.1171  0.1637 -0.4690
 2628TIP3    H129299   3.866   4.914  11.323 -0.0526 -0.7766  1.4451
 2628TIP3    H229300   4.004   4.970  11.293 -1.1504  0.3595 -1.8796
 2629TIP3   OH229301   5.660   2.484   4.727 -0.4299  0.4268  0.0141
 2629TIP3    H129302   5.687   2.525   4.809 -1.4663 -0.8989  1.0673
 2629TIP3    H229303   5.688   2.545   4.659  2.1756  0.6874  1.1981
 2630TIP3   OH229304   4.140   6.726  11.287  0.0392  0.5454  0.3986
 2630TIP3    H129305   4.218   6.688  11.247 -0.6340 -0.0614 -0.3736
 2630TIP3    H229306   4.107   6.789  11.222 -0.8660 -0.1929  0.1244
 2631TIP3   OH229307   3.672   1.247   4.023  0.3000 -0.1041 -0.1454
 2631TIP3    H129308   3.583   1.222   4.046 -0.0043  0.2811 -0.8538
 2631TIP3    H229309   3.687   1.329   4.071  0.8544 -0.9801  1.2118
 2632TIP3   OH229310   2.073   4.923  13.235 -0.2849  0.4398  0.3044
 2632TIP3    H129311   2.088   4.989  13.167  0.3466  0.9132  0.8813
 2632TIP3    H229312   2.153   4.926  13.289 -0.7068 -0.0347  0.9697
 2633TIP3   OH229313   6.566   4.160   3.653  0.2936 -0.3171  0.0767
 2633TIP3    H129314   6.626   4.135   3.582 -1.1472 -1.2152 -0.8787
 2633TIP3    H229315   6.495   4.207   3.610 -1.0044 -1.5594  0.7745
 2634TIP3   OH229316   2.726   5.246  13.745  0.2701  0.0197  0.9953
 2634TIP3    H129317   2.700   5.338  13.754  0.1023  0.2797 -1.4301
 2634TIP3    H229318   2.662   5.198  13.797 -1.5155  1.0862 -0.1118
 2635TIP3   OH229319   0.052   4.678   3.443  0.1974 -0.3320  0.0095
 2635TIP3    H129320   0.024   4.769   3.449  3.2115  0.7766 -0.9119
 2635TIP3    H229321   0.104   4.664   3.523  0.3996 -0.9751 -0.2320
 2636TIP3   OH229322   5.407   4.960  13.317  0.0931  0.2429 -0.3977
 2636TIP3    H129323   5.358   4.981  13.238 -0.4921  0.4262  0.0144
 2636TIP3    H229324   5.346   4.910  13.371  1.2891 -2.1762 -1.1512
 2637TIP3   OH229325   1.965   1.217  15.591 -0.4017  0.1854  0.1410
 2637TIP3    H129326   1.976   1.302  15.547 -1.3017  0.3113  0.1416
 2637TIP3    H229327   2.046   1.170  15.572  0.8748  1.6752  1.5569
 2638TIP3   OH229328   1.080   2.117   5.671 -0.0475  0.1959  0.1049
 2638TIP3    H129329   0.988   2.103   5.647  0.1119 -0.4690 -0.1593
 2638TIP3    H229330   1.090   2.212   5.676 -1.2422  0.2698  2.0934
 2639TIP3   OH229331   4.123   6.368  13.902 -0.6950 -0.0469 -0.0779
 2639TIP3    H129332   4.055   6.342  13.840  0.0670 -1.5423 -0.3654
 2639TIP3    H229333   4.205   6.343  13.858 -0.1539 -1.7645  1.7441
 2640TIP3   OH229334   6.657   5.831  16.375 -0.2250 -0.0624  0.0047
 2640TIP3    H129335   6.585   5.792  16.326  1.5509 -1.3755 -1.7753
 2640TIP3    H229336   6.683   5.765  16.439 -1.5897  1.0698  1.8181
 2641TIP3   OH229337   1.730   6.479   5.397  0.4233  0.3612 -0.7440
 2641TIP3    H129338   1.788   6.456   5.470 -1.6396 -0.4070  0.7485
 2641TIP3    H229339   1.644   6.450   5.425 -0.7116  1.4158 -2.9001
 2642TIP3   OH229340   4.225   4.711  11.713 -0.1728 -0.7531  0.4542
 2642TIP3    H129341   4.148   4.672  11.671  1.3361 -2.2167 -1.0699
 2642TIP3    H229342   4.261   4.641  11.767  1.4341 -0.8748 -0.7215
 2643TIP3   OH229343   6.638   0.414  17.054 -0.0892  0.3343 -0.2628
 2643TIP3    H129344   6.587   0.433  16.975  0.0188  0.9457 -0.1878
 2643TIP3    H229345   6.612   0.325  17.078  0.9593 -0.4384 -1.8191
 2644TIP3   OH229346   5.341   5.327   3.474  0.1962  0.3209 -0.4054
 2644TIP3    H129347   5.390   5.397   3.518 -0.3258  0.3723  0.1083
 2644TIP3    H229348   5.408   5.265   3.446  0.4625 -1.4744  3.4453
 2645TIP3   OH229349   0.694   0.680   5.139  0.0291 -0.5282  0.6995
 2645TIP3    H129350   0.758   0.750   5.135  0.2505 -0.7757 -2.3916
 2645TIP3    H229351   0.746   0.600   5.147 -0.0992 -0.5280  1.6424
 2646TIP3   OH229352   5.035   3.246  15.491 -0.1715 -0.0598  0.5159
 2646TIP3    H129353   5.030   3.208  15.579 -0.0339  0.9300  0.9654
 2646TIP3    H229354   4.949   3.227  15.452 -0.2090 -0.5609  0.8441
 2647TIP3   OH229355   6.516   1.129  15.243 -0.2539 -0.1827 -0.6825
 2647TIP3    H129356   6.500   1.055  15.302 -0.3440  0.5737  0.2531
 2647TIP3    H229357   6.587   1.099  15.186  0.2152 -0.7270  0.1692
 2648TIP3   OH229358   2.940   2.709   3.961 -0.0219  0.2289 -0.5041
 2648TIP3    H129359   2.992   2.661   4.025 -2.3821 -0.3199  1.1441
 2648TIP3    H229360   3.002   2.770   3.920  1.7244  0.2140  1.8941
 2649TIP3   OH229361   3.609   3.074  16.065  0.1265 -0.6712 -0.2290
 2649TIP3    H129362   3.663   3.101  16.139 -0.0582 -1.0263  0.0444
 2649TIP3    H229363   3.621   3.142  15.999  1.9765 -1.4080 -0.7195
 2650TIP3   OH229364   6.010   3.504  15.970 -0.1523 -0.3167 -0.2185
 2650TIP3    H129365   5.950   3.482  15.898 -0.0786  1.1218 -0.7409
 2650TIP3    H229366   6.061   3.424  15.982 -2.3845 -1.7475  0.5147
 2651TIP3   OH229367   5.926   3.695  14.608  0.1912 -0.7196 -0.0905
 2651TIP3    H129368   5.926   3.790  14.613 -1.1763 -0.7610  2.6613
 2651TIP3    H229369   5.872   3.675  14.532 -1.8338  0.7602  0.8575
 2652TIP3   OH229370   1.587   2.327   0.899 -0.3684  0.4641  0.0985
 2652TIP3    H129371   1.560   2.237   0.918  1.1588 -0.1851 -0.6352
 2652TIP3    H229372   1.565   2.340   0.807  1.5805 -0.0400 -0.4826
 2653TIP3   OH229373   4.817   5.065   4.812  0.5565  0.1242  0.1017
 2653TIP3    H129374   4.823   5.015   4.730  2.0891 -1.2708  1.0259
 2653TIP3    H229375   4.874   5.140   4.798 -0.1408  0.5559 -0.5336
 2654TIP3   OH229376   1.912   3.595  16.724  0.1015  0.2616  0.6766
 2654TIP3    H129377   1.984   3.581  16.786  0.0715  1.0787  0.9043
 2654TIP3    H229378   1.836   3.613  16.780 -0.3181 -0.7148  0.4411
 2655TIP3   OH229379   4.474   3.314  14.051  0.1076  0.3901  0.0829
 2655TIP3    H129380   4.519   3.237  14.086 -2.0401 -0.5159  1.0549
 2655TIP3    H229381   4.475   3.377  14.123 -0.5228  0.1836  0.2854
 2656TIP3   OH229382   4.923   1.225  16.283 -0.2230  0.4326  0.1093
 2656TIP3    H129383   4.852   1.161  16.282 -0.0494  0.2372  0.3388
 2656TIP3    H229384   4.886   1.300  16.330 -0.3037  0.3641  0.1551
 2657TIP3   OH229385   1.855   4.488  17.384  0.5112  0.1531 -0.4005
 2657TIP3    H129386   1.845   4.475  17.290 -0.0994  2.1897 -0.6663
 2657TIP3    H229387   1.945   4.461  17.402  0.0859 -2.0145 -1.1805
 2658TIP3   OH229388   2.216   4.194   1.025  0.5323  0.0613  0.1054
 2658TIP3    H129389   2.146   4.237   1.074  0.1446  1.1973 -1.3632
 2658TIP3    H229390   2.175   4.119   0.984  1.1553 -1.6921  2.4797
 2659TIP3   OH229391   1.430   0.319  12.740  0.1772 -0.2390  0.4670
 2659TIP3    H129392   1.435   0.415  12.732  1.9742 -0.3770 -0.4178
 2659TIP3    H229393   1.516   0.293  12.772  0.2615 -1.6749 -0.7949
 2660TIP3   OH229394   1.185   2.547   1.911 -0.7178  0.0146 -0.6639
 2660TIP3    H129395   1.252   2.600   1.868  0.8276 -1.3975 -0.0602
 2660TIP3    H229396   1.114   2.609   1.930  1.1593  1.9712  0.3534
 2661TIP3   OH229397   4.894   2.342  14.116 -0.0362 -0.1305  0.1832
 2661TIP3    H129398   4.870   2.316  14.205 -3.2159 -2.2268 -1.1069
 2661TIP3    H229399   4.840   2.419  14.098  0.4601  0.1777  0.0120
 2662TIP3   OH229400   2.780   0.308  15.315  0.8019 -0.3717  0.1235
 2662TIP3    H129401   2.797   0.216  15.294 -1.5462 -0.3037 -2.8449
 2662TIP3    H229402   2.690   0.308  15.350  1.1980  0.7149  1.2265
 2663TIP3   OH229403   1.204   6.261   5.656 -0.2386 -0.5024 -0.5659
 2663TIP3    H129404   1.178   6.283   5.745  0.3027 -0.0343 -0.5180
 2663TIP3    H229405   1.257   6.181   5.666 -0.1640 -0.4410 -0.4688
 2664TIP3   OH229406   2.904   5.312   5.123 -0.2699  0.1250  0.0831
 2664TIP3    H129407   2.878   5.401   5.146  1.9108  0.8792 -0.1313
 2664TIP3    H229408   2.908   5.313   5.027 -0.9641 -0.4555  0.0365
 2665TIP3   OH229409   1.909   4.981   2.542 -0.0289 -0.1933 -0.5062
 2665TIP3    H129410   1.949   4.921   2.479  2.3703  0.6440  0.0874
 2665TIP3    H229411   1.850   5.035   2.490  0.5331 -0.7024 -1.7060
 2666TIP3   OH229412   5.745   2.435   1.991 -0.9921 -0.5534 -0.0634
 2666TIP3    H129413   5.791   2.500   2.044 -0.2599 -0.7487 -0.4538
 2666TIP3    H229414   5.757   2.353   2.039 -1.1159 -0.5694 -0.0593
 2667TIP3   OH229415   3.455   4.929  12.901  0.6257  0.3680 -0.4712
 2667TIP3    H129416   3.482   4.852  12.853 -0.0040  1.1652 -2.1740
 2667TIP3    H229417   3.537   4.973  12.925  0.9736 -0.6588  0.3010
 2668TIP3   OH229418   5.597   4.518   1.020 -0.3090 -0.1833 -0.3154
 2668TIP3    H129419   5.645   4.563   0.950  1.0302 -0.7782  0.1743
 2668TIP3    H229420   5.540   4.585   1.057  1.3238  1.0494  0.1076
 2669TIP3   OH229421   2.669   4.693   2.414  0.2674  0.0015 -0.2556
 2669TIP3    H129422   2.739   4.757   2.417 -1.0509  1.5174 -0.5797
 2669TIP3    H229423   2.605   4.730   2.353 -0.6825 -1.4789 -0.2174
 2670TIP3   OH229424   3.785   4.249  14.479  0.3672 -0.2980  0.7534
 2670TIP3    H129425   3.873   4.213  14.490  1.4932  1.8248 -0.5560
 2670TIP3    H229426   3.760   4.224  14.390  0.8274  1.3331  0.1309
 2671TIP3   OH229427   5.344   6.394  12.811 -0.5125  0.5420  0.0964
 2671TIP3    H129428   5.291   6.318  12.836 -1.4338  0.6912 -1.2912
 2671TIP3    H229429   5.376   6.430  12.894 -0.0967 -1.3160  0.7718
 2672TIP3   OH229430   6.181   1.916   2.947  0.2627 -0.0841 -0.3216
 2672TIP3    H129431   6.269   1.955   2.948  0.5578 -0.2294 -4.3202
 2672TIP3    H229432   6.123   1.988   2.921  0.0417 -0.9870 -2.5996
 2673TIP3   OH229433   1.181   2.336   1.120  0.2944 -0.2674 -0.3934
 2673TIP3    H129434   1.113   2.313   1.184  0.6925  1.9505  0.9127
 2673TIP3    H229435   1.132   2.353   1.039 -0.6844  0.8088  0.3893
 2674TIP3   OH229436   5.204   5.484   3.132 -0.3002  0.3130 -0.1265
 2674TIP3    H129437   5.288   5.496   3.176 -0.2639  0.3552 -0.2085
 2674TIP3    H229438   5.155   5.564   3.151 -0.5842 -0.0056  0.5039
 2675TIP3   OH229439   4.339   0.830   5.679 -0.0401 -0.2234  0.1102
 2675TIP3    H129440   4.352   0.913   5.726 -1.8055  0.1557 -0.0305
 2675TIP3    H229441   4.401   0.835   5.606 -0.5848  1.2940 -0.2967
 2676TIP3   OH229442   5.318   1.985   3.139 -0.1904  0.8716  0.2036
 2676TIP3    H129443   5.299   2.049   3.071 -0.3694  0.1090 -0.4862
 2676TIP3    H229444   5.241   1.987   3.197 -0.8770  0.2334 -0.6572
 2677TIP3   OH229445   6.659   1.358   0.405 -0.1371 -0.2151  0.2248
 2677TIP3    H129446   6.582   1.376   0.351  1.0314 -0.3829 -1.5766
 2677TIP3    H229447   6.664   1.433   0.465 -0.0449  1.3688 -1.6467
 2678TIP3   OH229448   4.771   3.697  13.171 -0.1311  0.5346 -0.3082
 2678TIP3    H129449   4.811   3.784  13.170 -3.1842  2.0989  1.0708
 2678TIP3    H229450   4.700   3.704  13.234 -3.0285 -1.8052 -3.0168
 2679TIP3   OH229451   5.030   6.376   1.095 -0.4906 -0.1627 -0.7031
 2679TIP3    H129452   4.997   6.333   1.175 -3.8417  0.5198 -1.5661
 2679TIP3    H229453   5.041   6.304   1.033  0.2466 -0.4642 -0.2424
 2680TIP3   OH229454   2.916   5.312  17.225  0.1383 -0.3300  0.1006
 2680TIP3    H129455   2.834   5.294  17.271 -0.2477  0.0202 -0.4346
 2680TIP3    H229456   2.927   5.407  17.231  0.4908 -0.3716  0.1435
 2681TIP3   OH229457   1.056   2.869   5.076 -0.1783  0.4039 -0.0121
 2681TIP3    H129458   0.984   2.921   5.111 -0.0480 -0.5681  1.7856
 2681TIP3    H229459   1.016   2.786   5.051  0.3742 -0.3395  1.4887
 2682TIP3   OH229460   0.699   0.204  13.424  0.0484  0.5417  0.3153
 2682TIP3    H129461   0.604   0.197  13.416  0.2585 -0.5825 -1.6763
 2682TIP3    H229462   0.732   0.125  13.383  1.8855  1.4434 -0.0309
 2683TIP3   OH229463   3.185   1.471  15.513  0.3978  0.0932 -0.0343
 2683TIP3    H129464   3.159   1.450  15.602 -0.3665  0.1976 -0.2281
 2683TIP3    H229465   3.280   1.487  15.518  0.0907  1.7427  1.0501
 2684TIP3   OH229466   5.802   2.640   0.335 -0.5256  0.2360 -0.1216
 2684TIP3    H129467   5.783   2.627   0.242  0.4735 -0.4236 -0.2458
 2684TIP3    H229468   5.889   2.604   0.347 -0.3998  0.8613  0.9600
 2685TIP3   OH229469   5.819   6.289   5.205  0.4855 -0.3340  0.2460
 2685TIP3    H129470   5.780   6.205   5.182  0.8695 -0.3399 -0.3946
 2685TIP3    H229471   5.766   6.354   5.159  1.3255 -0.3533 -0.7918
 2686TIP3   OH229472   2.503   1.640   0.472  0.1741 -0.3096 -0.1627
 2686TIP3    H129473   2.482   1.569   0.412 -1.7054  1.6198 -1.9593
 2686TIP3    H229474   2.593   1.622   0.501 -0.0894 -3.1268 -0.8460
 2687TIP3   OH229475   2.147   2.657  11.741 -0.7653 -0.1069  0.4796
 2687TIP3    H129476   2.107   2.743  11.729  0.8432  0.6399  0.0507
 2687TIP3    H229477   2.237   2.669  11.709 -0.1653 -1.6377  1.4947
 2688TIP3   OH229478   1.424   0.798  17.114 -0.2734  0.3603 -0.0364
 2688TIP3    H129479   1.516   0.827  17.113 -0.3741  0.6844 -0.1642
 2688TIP3    H229480   1.397   0.802  17.023 -0.0788 -0.8531 -0.1609
 2689TIP3   OH229481   6.559   5.888  11.941  0.8718 -0.6021 -0.0012
 2689TIP3    H129482   6.574   5.839  12.021  0.3045 -1.2302 -0.2685
 2689TIP3    H229483   6.646   5.906  11.907  1.0932 -1.7450 -0.0813
 2690TIP3   OH229484   0.216   6.322  16.212 -0.3194  0.6811  0.5979
 2690TIP3    H129485   0.234   6.330  16.306  0.6352  1.5478  0.3548
 2690TIP3    H229486   0.146   6.385  16.196 -1.5603 -0.5276  0.9726
 2691TIP3   OH229487   1.737   3.883  16.088 -0.2662  0.3335  0.1889
 2691TIP3    H129488   1.773   3.897  16.176 -2.3082  0.9665  0.9700
 2691TIP3    H229489   1.681   3.959  16.073 -0.9418 -0.3993 -1.1443
 2692TIP3   OH229490   5.548   0.641  12.562  0.3818  0.0757 -0.1331
 2692TIP3    H129491   5.557   0.562  12.509  0.8991 -1.0364  1.5425
 2692TIP3    H229492   5.453   0.658  12.564  0.2244 -0.7662 -0.1378
 2693TIP3   OH229493   0.635   6.641   1.961 -0.2897 -0.1139 -0.9694
 2693TIP3    H129494   0.665   6.596   2.040 -0.1784 -0.0582 -0.9794
 2693TIP3    H229495   0.689   6.720   1.957 -0.2824 -0.1262 -1.1117
 2694TIP3   OH229496   2.864   5.098  16.021 -0.0343  0.4580 -0.4344
 2694TIP3    H129497   2.895   5.015  16.057 -0.3854  0.6444  0.3049
 2694TIP3    H229498   2.923   5.163  16.056 -2.3157  1.0912  2.6288
 2695TIP3   OH229499   3.351   0.868  15.236 -0.6127 -0.4473 -0.0530
 2695TIP3    H129500   3.395   0.809  15.175  0.3399 -0.1193  0.2940
 2695TIP3    H229501   3.413   0.940  15.248 -1.2755  0.0558  0.4083
 2696TIP3   OH229502   2.719   5.620  13.229  0.3528 -0.1516 -0.4854
 2696TIP3    H129503   2.768   5.701  13.243  0.5954 -0.6013  1.7151
 2696TIP3    H229504   2.708   5.614  13.134  1.7003  1.6326 -0.8073
 2697TIP3   OH229505   0.161   3.643   4.084  0.6234  0.7398 -0.0672
 2697TIP3    H129506   0.230   3.707   4.102  0.5374  0.9731 -0.5700
 2697TIP3    H229507   0.200   3.559   4.108  0.7404  0.9725  0.5900
 2698TIP3   OH229508   1.958   5.544  16.213 -0.2397  0.2431 -0.0245
 2698TIP3    H129509   1.937   5.637  16.201 -1.6623 -0.1433 -0.8036
 2698TIP3    H229510   1.875   5.504  16.239 -0.1378 -1.1272 -1.6296
 2699TIP3   OH229511   3.946   6.290  15.467 -0.4024 -0.0808 -0.1621
 2699TIP3    H129512   3.898   6.366  15.435 -0.9601  0.2589  1.3597
 2699TIP3    H229513   3.887   6.216  15.452 -0.3351 -0.0469 -0.6037
 2700TIP3   OH229514   5.858   4.918  11.880 -0.2127  0.3727 -0.0262
 2700TIP3    H129515   5.786   4.910  11.942 -1.9563 -0.5747 -2.0417
 2700TIP3    H229516   5.821   4.965  11.806  1.9528  1.9447 -0.2188
 2701TIP3   OH229517   0.239   4.444   4.657 -0.0690  0.3531 -0.5786
 2701TIP3    H129518   0.300   4.481   4.720  0.0662 -0.1927 -0.3894
 2701TIP3    H229519   0.246   4.502   4.580  0.8436  0.1679 -0.6457
 2702TIP3   OH229520   0.068   2.061   4.340  0.0095 -0.3186  0.3681
 2702TIP3    H129521   0.069   2.058   4.244  1.4824  0.8857  0.3119
 2702TIP3    H229522   0.049   1.971   4.366 -0.6967 -0.6118 -1.0451
 2703TIP3   OH229523   3.193   2.575   3.448  0.4207  0.0497  0.1437
 2703TIP3    H129524   3.244   2.498   3.472 -0.8520 -1.1402 -0.8350
 2703TIP3    H229525   3.111   2.566   3.497  0.9363  1.7491  1.4253
 2704TIP3   OH229526   0.139   1.122  15.538 -0.4023 -0.0851  0.2702
 2704TIP3    H129527   0.067   1.078  15.494 -0.0397  0.5789 -1.0410
 2704TIP3    H229528   0.140   1.210  15.500  0.6447  0.1391  0.7844
 2705TIP3   OH229529   5.350   2.202   4.032  0.2253 -0.1107 -0.1265
 2705TIP3    H129530   5.414   2.135   4.011  0.4291  0.5035 -1.6079
 2705TIP3    H229531   5.266   2.165   4.004  0.2268 -0.0727 -0.1818
 2706TIP3   OH229532   5.851   1.097   0.748  0.2733 -0.3253  0.0642
 2706TIP3    H129533   5.808   1.082   0.663  0.0450 -0.3916  0.1914
 2706TIP3    H229534   5.942   1.114   0.725 -0.1013  1.3877 -0.3321
 2707TIP3   OH229535   2.495   0.067  13.035 -0.0451  0.0814 -0.1124
 2707TIP3    H129536   2.483   0.109  13.120 -2.5654  1.8978 -1.2461
 2707TIP3    H229537   2.567   0.115  12.995  0.5166 -0.1399  0.6176
 2708TIP3   OH229538   0.708   5.089   5.206 -0.1558 -0.1071  0.3188
 2708TIP3    H129539   0.718   5.135   5.290 -0.3986  1.2847 -0.3982
 2708TIP3    H229540   0.658   5.149   5.151 -0.5525 -1.2721 -0.6317
 2709TIP3   OH229541   4.858   1.431  16.973  0.4170  0.6297  0.1659
 2709TIP3    H129542   4.781   1.418  16.918 -0.9686  3.4918  1.2096
 2709TIP3    H229543   4.930   1.442  16.911 -0.0026 -1.8148 -0.8446
 2710TIP3   OH229544   4.608   3.844  16.893  0.5613 -0.0131 -0.1748
 2710TIP3    H129545   4.631   3.757  16.862  2.0623  0.0136  0.7684
 2710TIP3    H229546   4.514   3.838  16.914  0.7456 -1.5481  0.3481
 2711TIP3   OH229547   6.728   2.438  12.352  0.2183  0.2663  0.0034
 2711TIP3    H129548   6.746   2.531  12.339  0.0244  0.4340  0.8722
 2711TIP3    H229549   6.650   2.436  12.408  0.3023 -0.4154  0.1099
 2712TIP3   OH229550   3.570   5.475  10.745 -0.0474 -0.7189 -0.7350
 2712TIP3    H129551   3.491   5.447  10.792 -0.0463 -0.3082 -0.4839
 2712TIP3    H229552   3.585   5.407  10.680  0.0375 -1.3722 -0.0412
 2713TIP3   OH229553   1.915   5.563   3.557  0.0646  0.0257  0.0571
 2713TIP3    H129554   1.971   5.521   3.492  1.6855  0.6320  1.0154
 2713TIP3    H229555   1.886   5.644   3.515 -1.4425 -1.0245 -1.0373
 2714TIP3   OH229556   5.511   0.965  13.504  0.3857 -0.1004  0.4446
 2714TIP3    H129557   5.489   0.938  13.593  0.3429 -0.5397  0.3030
 2714TIP3    H229558   5.587   1.023  13.515  0.5061 -0.3152  0.7486
 2715TIP3   OH229559   3.491   1.299  13.936  0.4160  0.4060 -0.1999
 2715TIP3    H129560   3.430   1.247  13.988  0.9290 -0.5238 -0.5122
 2715TIP3    H229561   3.455   1.388  13.939 -0.1841  0.1481  0.7830
 2716TIP3   OH229562   1.872   0.403  11.487 -0.2833  0.3190  0.2141
 2716TIP3    H129563   1.818   0.448  11.422  2.5386  1.3224 -1.6107
 2716TIP3    H229564   1.859   0.310  11.468  1.2183  0.5673 -2.6293
 2717TIP3   OH229565   1.859   4.996   2.233  0.3195  0.4596 -0.2660
 2717TIP3    H129566   1.911   4.917   2.223  0.2763  0.1959  1.4153
 2717TIP3    H229567   1.768   4.966   2.230  0.3036  0.4148  0.4831
 2718TIP3   OH229568   2.723   0.180   0.873 -0.8198  0.3306 -0.1851
 2718TIP3    H129569   2.719   0.237   0.796 -1.1129  0.4453 -0.0876
 2718TIP3    H229570   2.816   0.175   0.895 -0.7236  0.1695 -0.6412
 2719TIP3   OH229571   5.783   3.308   0.870  0.0710  0.2609 -0.0323
 2719TIP3    H129572   5.858   3.353   0.833  0.1260 -0.0678 -0.3321
 2719TIP3    H229573   5.817   3.263   0.948  0.3174 -0.3345 -0.4704
 2720TIP3   OH229574   4.410   3.752  13.814 -0.3594 -0.0079 -0.1636
 2720TIP3    H129575   4.437   3.675  13.864 -1.5264 -0.8412 -0.7632
 2720TIP3    H229576   4.360   3.717  13.740 -0.4620  1.3013 -0.7549
 2721TIP3   OH229577   3.970   2.169  13.300 -0.1843 -0.0948 -0.2924
 2721TIP3    H129578   4.010   2.246  13.340 -0.9017 -0.1313  0.5373
 2721TIP3    H229579   4.037   2.101  13.305 -0.8605 -0.6712  2.6918
 2722TIP3   OH229580   3.461   1.230  16.648  0.8468 -0.5505 -0.6055
 2722TIP3    H129581   3.378   1.245  16.602  0.0292  1.0012  1.2692
 2722TIP3    H229582   3.516   1.305  16.623  1.7549 -1.5833 -1.8574
 2723TIP3   OH229583   2.981   0.039   3.349 -0.4104 -0.7682  0.4548
 2723TIP3    H129584   2.952   0.110   3.293  0.0892 -0.5323  0.4858
 2723TIP3    H229585   2.958  -0.041   3.302  0.4699 -0.5689 -0.3275
 2724TIP3   OH229586   6.551   5.828   4.576 -0.1451  0.2613 -0.1955
 2724TIP3    H129587   6.587   5.753   4.528  0.0158  0.3985 -0.2895
 2724TIP3    H229588   6.501   5.788   4.647 -1.2474  0.0215 -1.0682
 2725TIP3   OH229589   2.422   1.221  15.754  0.0810  0.5839  0.2655
 2725TIP3    H129590   2.494   1.202  15.695 -0.8903  0.8719 -1.0745
 2725TIP3    H229591   2.397   1.311  15.734 -0.6684  0.4827  0.6730
 2726TIP3   OH229592   0.631   1.968   2.036 -0.1111  0.8519  0.2343
 2726TIP3    H129593   0.683   1.888   2.041 -1.5305 -0.3398 -1.9685
 2726TIP3    H229594   0.662   2.011   1.956  0.1125  2.1401  0.9942
 2727TIP3   OH229595   4.374   4.867  14.577 -0.0229 -0.7986  0.5495
 2727TIP3    H129596   4.295   4.820  14.603 -0.5871  0.6424  1.5746
 2727TIP3    H229597   4.347   4.959  14.572  1.1530 -0.4897 -0.9135
 2728TIP3   OH229598   3.318   3.200   3.628 -0.3540  0.5033  0.4010
 2728TIP3    H129599   3.299   3.124   3.682  0.9301 -1.1253 -1.2910
 2728TIP3    H229600   3.236   3.250   3.627 -0.0652  1.5013  4.9358
 2729TIP3   OH229601   4.430   2.642   5.110  0.5458 -0.2564 -0.1031
 2729TIP3    H129602   4.473   2.610   5.031  0.4849 -2.3706  0.6430
 2729TIP3    H229603   4.425   2.565   5.167  0.8618  1.2469  2.0883
 2730TIP3   OH229604   0.787   3.993   2.953 -0.1396  0.2625 -0.2140
 2730TIP3    H129605   0.760   3.945   3.032  1.4261 -1.8025 -0.8462
 2730TIP3    H229606   0.882   4.002   2.962 -0.1666  1.5888 -1.0534
 2731TIP3   OH229607   2.490   0.782   1.631 -0.2761 -0.5152  0.1696
 2731TIP3    H129608   2.497   0.851   1.565 -2.1815  0.5336  0.9693
 2731TIP3    H229609   2.474   0.702   1.582 -1.2852  0.1826 -0.6758
 2732TIP3   OH229610   4.945   5.831   2.915 -0.2970 -0.6749  1.0491
 2732TIP3    H129611   4.850   5.820   2.906 -0.1174 -2.6071  1.2860
 2732TIP3    H229612   4.981   5.744   2.900  1.7488  0.5451 -2.3875
 2733TIP3   OH229613   4.730   5.073   1.690  0.3512 -0.5711 -0.0828
 2733TIP3    H129614   4.642   5.037   1.702 -0.1727  0.9471  0.9236
 2733TIP3    H229615   4.723   5.164   1.719  2.3447 -0.5124  0.3536
 2734TIP3   OH229616   1.825   2.918  11.376 -0.0454  0.6211  0.4644
 2734TIP3    H129617   1.914   2.884  11.379  0.4143  1.7690  0.5303
 2734TIP3    H229618   1.828   2.997  11.430 -1.3370  0.1719  1.2406
 2735TIP3   OH229619   3.135   1.904   2.991 -0.2701 -0.2811  0.5088
 2735TIP3    H129620   3.099   1.909   3.079  0.1007 -2.3821  0.8266
 2735TIP3    H229621   3.069   1.947   2.936 -0.7148  0.6483  1.7162
 2736TIP3   OH229622   5.759   3.104   3.953 -0.1717  0.1384 -0.3241
 2736TIP3    H129623   5.826   3.160   3.993 -1.5782  1.8994 -0.3337
 2736TIP3    H229624   5.695   3.090   4.023 -0.0608 -1.1421 -0.4536
 2737TIP3   OH229625   5.938   1.246   2.329 -0.2425  0.3011 -0.6500
 2737TIP3    H129626   5.979   1.239   2.415  0.9887 -0.0533 -1.2503
 2737TIP3    H229627   6.007   1.276   2.271 -0.1430 -2.4610 -2.1590
 2738TIP3   OH229628   5.702   5.769   4.895  0.2286 -0.9805 -0.5717
 2738TIP3    H129629   5.739   5.823   4.965 -1.4463  1.7194 -1.5744
 2738TIP3    H229630   5.653   5.701   4.941 -0.8215  0.7135  0.9622
 2739TIP3   OH229631   6.416   5.159   0.800 -0.3695 -0.0377 -0.2354
 2739TIP3    H129632   6.486   5.108   0.842  1.5554  0.6031 -2.4312
 2739TIP3    H229633   6.398   5.113   0.719 -4.1467 -1.3643  1.1548
 2740TIP3   OH229634   3.987   5.617  15.009  0.4315  0.4781  0.9443
 2740TIP3    H129635   3.997   5.605  14.915 -2.6674  0.5010  0.5228
 2740TIP3    H229636   4.015   5.707  15.024 -0.3407  0.9436 -0.2263
 2741TIP3   OH229637   4.582   0.756  16.892  0.0809  0.4144 -0.3937
 2741TIP3    H129638   4.624   0.697  16.955 -0.8834 -1.3439 -1.3531
 2741TIP3    H229639   4.654   0.784  16.834  0.4096 -0.4832 -0.4309
 2742TIP3   OH229640   4.309   6.237  12.875 -0.1196  0.0880 -0.5165
 2742TIP3    H129641   4.296   6.162  12.817 -0.3865  1.1789 -1.9120
 2742TIP3    H229642   4.385   6.282  12.840  1.6124 -0.8313  1.7852
 2743TIP3   OH229643   4.191   5.670   5.909 -0.5840  0.1530 -0.3651
 2743TIP3    H129644   4.164   5.658   5.818  0.7026  1.3123 -0.9274
 2743TIP3    H229645   4.221   5.761   5.913 -2.4456  0.7697  1.7089
 2744TIP3   OH229646   5.546   5.703   5.758 -0.4961 -0.3136  0.4752
 2744TIP3    H129647   5.465   5.652   5.747 -0.6119  0.2185 -1.3995
 2744TIP3    H229648   5.561   5.743   5.673 -0.5971  3.0968  1.9286
 2745TIP3   OH229649   2.521   3.332  14.079  0.3198  0.7896  0.0800
 2745TIP3    H129650   2.440   3.382  14.070 -0.0589  0.5037  1.5582
 2745TIP3    H229651   2.492   3.241  14.086  0.8325  0.6005 -0.2011
 2746TIP3   OH229652   0.272   1.296  16.889 -0.4168 -0.9467  0.5445
 2746TIP3    H129653   0.243   1.261  16.973 -0.7379 -1.5987  0.1766
 2746TIP3    H229654   0.221   1.246  16.824 -0.0359 -0.5890 -0.0367
 2747TIP3   OH229655   2.803   6.480   0.494  0.8080 -0.4983 -0.0139
 2747TIP3    H129656   2.896   6.460   0.483  0.5833 -1.7341  0.2396
 2747TIP3    H229657   2.802   6.565   0.539  1.8053 -0.3925 -0.1691
 2748TIP3   OH229658   2.559   1.968  13.713 -0.2481  0.0791 -0.1399
 2748TIP3    H129659   2.623   1.962  13.783  0.6859 -0.6681 -1.0264
 2748TIP3    H229660   2.488   1.910  13.739  1.2128 -2.1721 -0.9337
 2749TIP3   OH229661   0.515   3.776   1.862  0.8307  0.3015 -0.7203
 2749TIP3    H129662   0.479   3.693   1.832  1.6054 -0.0658 -0.6642
 2749TIP3    H229663   0.465   3.843   1.815  0.2190 -0.1962 -0.7815
 2750TIP3   OH229664   0.428   5.884   1.619 -0.2029  0.4575  0.0546
 2750TIP3    H129665   0.375   5.933   1.557  0.7220  0.8321 -0.4664
 2750TIP3    H229666   0.498   5.846   1.566 -0.4074 -0.7156  0.5924
 2751TIP3   OH229667   1.882   0.146  11.675  0.4650  0.3494 -0.0035
 2751TIP3    H129668   1.901   0.066  11.625  0.6776 -1.4468  2.7123
 2751TIP3    H229669   1.968   0.179  11.699  0.3590  1.0328 -0.5467
 2752TIP3   OH229670   4.899   2.436   1.656 -0.1372 -0.3756  0.2030
 2752TIP3    H129671   4.827   2.401   1.605 -0.4173  0.6186 -0.1047
 2752TIP3    H229672   4.867   2.437   1.746 -0.0741 -1.0128  0.2390
 2753TIP3   OH229673   0.123   3.004   4.638 -0.3206  0.0543 -0.6254
 2753TIP3    H129674   0.102   2.989   4.546 -1.2784 -0.1111 -0.3961
 2753TIP3    H229675   0.039   2.993   4.684  0.6087 -2.8162  0.6231
 2754TIP3   OH229676   4.345   0.352   6.000 -0.7274 -0.1615  0.1020
 2754TIP3    H129677   4.399   0.281   6.034  0.0402  0.1504 -0.4405
 2754TIP3    H229678   4.329   0.408   6.076  0.5837  0.2864  0.0695
 2755TIP3   OH229679   5.329   2.667  16.724  0.0983  0.2294 -0.1555
 2755TIP3    H129680   5.384   2.709  16.657 -1.1668  0.5177 -1.0461
 2755TIP3    H229681   5.283   2.740  16.766  0.1852 -0.0332  0.4031
 2756TIP3   OH229682   4.779   2.091   4.085  0.4170  0.5024  0.4704
 2756TIP3    H129683   4.811   2.054   4.168  0.6335  2.4759  1.3150
 2756TIP3    H229684   4.767   2.184   4.103  0.0508  0.9100 -1.6137
 2757TIP3   OH229685   0.365   2.265  12.195  0.2662 -0.3590  0.7259
 2757TIP3    H129686   0.305   2.222  12.135 -0.4786 -2.0154  2.5501
 2757TIP3    H229687   0.317   2.269  12.278  2.1682 -0.5264  1.8989
 2758TIP3   OH229688   2.813   6.041  16.700 -0.3851 -0.2227 -0.3871
 2758TIP3    H129689   2.798   6.129  16.735  2.0026 -0.2819  1.0021
 2758TIP3    H229690   2.773   5.982  16.764 -0.9378 -0.1767 -0.6910
 2759TIP3   OH229691   4.621   6.731  14.710  0.4267 -0.0663 -0.2120
 2759TIP3    H129692   4.605   6.653  14.657 -0.3374 -0.3659  0.4325
 2759TIP3    H229693   4.699   6.711  14.761  0.0128 -0.5705  0.2332
 2760TIP3   OH229694   1.549   5.951   2.490  0.5770 -0.1421 -0.5237
 2760TIP3    H129695   1.502   6.033   2.504  1.9699  0.6335 -0.1873
 2760TIP3    H229696   1.480   5.886   2.474 -0.5667  1.0207 -0.4903
 2761TIP3   OH229697   4.292   5.728   2.324  0.5302  0.8053  0.3784
 2761TIP3    H129698   4.254   5.680   2.251 -0.6995 -0.6883  1.9180
 2761TIP3    H229699   4.231   5.800   2.340  0.9565  1.3086 -0.2364
 2762TIP3   OH229700   4.596   5.735  15.437 -0.3151 -0.1985 -0.0856
 2762TIP3    H129701   4.593   5.831  15.432  0.7611 -0.1710 -0.4712
 2762TIP3    H229702   4.547   5.714  15.516 -1.3271  0.6143 -0.4762
 2763TIP3   OH229703   3.705   3.605  12.496  0.3938 -0.2785 -0.4276
 2763TIP3    H129704   3.613   3.591  12.473 -0.1258 -2.2064  2.3046
 2763TIP3    H229705   3.722   3.696  12.472 -1.7611 -0.2872 -2.3300
 2764TIP3   OH229706   5.134   3.713   1.142 -0.3101  0.4355  0.1738
 2764TIP3    H129707   5.054   3.766   1.135 -0.5579 -0.1596 -3.0433
 2764TIP3    H229708   5.108   3.639   1.197 -1.6453  0.8229  0.1131
 2765TIP3   OH229709   0.300   3.036   5.579  0.1341  0.0045 -0.2711
 2765TIP3    H129710   0.332   2.995   5.659 -0.0812  0.5265  0.0891
 2765TIP3    H229711   0.206   3.021   5.580  0.1971 -0.4360 -0.6911
 2766TIP3   OH229712   3.504   0.430  11.414 -0.1192 -0.4869 -0.1145
 2766TIP3    H129713   3.540   0.416  11.327  1.5898 -0.4204  0.5567
 2766TIP3    H229714   3.426   0.375  11.417  1.2673 -2.5871 -0.7773
 2767TIP3   OH229715   3.992   4.138  11.341  0.3194  0.7430  0.3447
 2767TIP3    H129716   4.086   4.147  11.325  0.5909 -2.5483 -0.5633
 2767TIP3    H229717   3.951   4.185  11.269  1.2462  1.6931  0.4053
 2768TIP3   OH229718   3.448   3.838   4.358 -0.0854 -0.1675  0.1621
 2768TIP3    H129719   3.446   3.828   4.453 -0.7054 -0.0115  0.1675
 2768TIP3    H229720   3.395   3.916   4.341  0.2966  0.0008 -0.2855
 2769TIP3   OH229721   3.293   0.774  17.424  0.4221 -0.3161 -0.0371
 2769TIP3    H129722   3.257   0.738  17.505  0.7375 -0.8121 -0.1117
 2769TIP3    H229723   3.260   0.715  17.356  0.6688 -0.2686 -0.1987
 2770TIP3   OH229724   3.920   5.041   3.156  0.3424 -0.0462 -0.0613
 2770TIP3    H129725   3.966   4.964   3.192 -0.0862 -0.3567 -0.1683
 2770TIP3    H229726   3.901   5.095   3.233 -0.4831 -0.6630  0.1814
 2771TIP3   OH229727   2.506   1.436  10.774  0.4605 -0.1135 -0.3017
 2771TIP3    H129728   2.529   1.526  10.799  0.6515  0.1347 -1.2905
 2771TIP3    H229729   2.464   1.446  10.688 -0.0125 -0.9212 -0.1664
 2772TIP3   OH229730   3.844   3.338  12.296 -0.0943 -0.2881  0.2802
 2772TIP3    H129731   3.796   3.289  12.229 -1.3212 -0.9191  1.5734
 2772TIP3    H229732   3.810   3.427  12.289 -0.3655 -0.3976  0.1874
 2773TIP3   OH229733   1.688   0.772   3.017 -0.3306 -0.6276 -0.1192
 2773TIP3    H129734   1.770   0.725   3.028  0.0104  0.0978  0.5199
 2773TIP3    H229735   1.673   0.772   2.922  0.2359 -1.0427 -0.2146
 2774TIP3   OH229736   5.895   1.140   0.120  0.4148 -0.5054 -0.0766
 2774TIP3    H129737   5.893   1.189   0.037  2.0867 -0.9809 -0.4298
 2774TIP3    H229738   5.943   1.060   0.100 -0.6154 -1.4223  0.9673
 2775TIP3   OH229739   3.877   3.297   1.316  0.2673  0.2738 -0.1824
 2775TIP3    H129740   3.921   3.295   1.401 -1.2501 -2.2858  0.6293
 2775TIP3    H229741   3.786   3.316   1.336  0.1924  1.4816 -1.4686
 2776TIP3   OH229742   2.636   1.205  12.226 -0.0002  0.6379  0.6554
 2776TIP3    H129743   2.567   1.250  12.274 -0.8612 -0.2009  0.2446
 2776TIP3    H229744   2.613   1.219  12.134  1.4568  1.9715  0.4521
 2777TIP3   OH229745   4.348   0.532   0.723 -0.1523 -0.1163 -0.1505
 2777TIP3    H129746   4.444   0.528   0.718 -0.1855 -1.4818 -0.3105
 2777TIP3    H229747   4.324   0.611   0.674  0.8971  0.3254  0.0259
 2778TIP3   OH229748   0.568   2.912  16.806 -0.0937 -0.2057 -0.1241
 2778TIP3    H129749   0.560   2.817  16.792 -2.5246  0.0361 -0.8598
 2778TIP3    H229750   0.488   2.936  16.852  0.5998  1.4843  0.2826
 2779TIP3   OH229751   1.004   0.135   4.861 -0.7607 -0.3294 -0.1816
 2779TIP3    H129752   0.909   0.143   4.852 -0.7165 -1.1813 -1.7623
 2779TIP3    H229753   1.039   0.184   4.787 -0.1213 -2.8166 -1.6484
 2780TIP3   OH229754   1.065   4.818   1.475  0.0813 -0.3117  0.3275
 2780TIP3    H129755   1.037   4.909   1.464 -0.9172 -0.4990  1.1652
 2780TIP3    H229756   1.157   4.825   1.501  0.1665  0.4300 -0.1367
 2781TIP3   OH229757   0.958   3.138  12.388  0.5701  0.4746  0.0203
 2781TIP3    H129758   0.938   3.046  12.408  0.0677  0.8866  1.5073
 2781TIP3    H229759   0.894   3.188  12.438  1.8193  1.6829  0.4605
 2782TIP3   OH229760   2.978   0.467  15.120  0.5387 -0.0899 -0.1929
 2782TIP3    H129761   2.938   0.551  15.099 -1.1301 -0.7893 -0.0096
 2782TIP3    H229762   2.981   0.465  15.215 -1.4224 -1.0427 -0.0868
 2783TIP3   OH229763   5.623   0.595  15.038  0.3975  0.2426  0.3517
 2783TIP3    H129764   5.596   0.686  15.025  2.1868  0.8710  0.7072
 2783TIP3    H229765   5.605   0.552  14.954 -1.4680  0.6086  0.5186
 2784TIP3   OH229766   2.410   6.635   3.096 -0.1476 -0.2682  0.2702
 2784TIP3    H129767   2.458   6.673   3.170 -1.4548 -0.1873  1.1180
 2784TIP3    H229768   2.407   6.705   3.031  0.8716 -0.2791  0.1957
 2785TIP3   OH229769   3.415   5.705  16.206 -0.3130 -0.4279 -0.3608
 2785TIP3    H129770   3.422   5.765  16.133  1.1881 -2.0787 -1.6741
 2785TIP3    H229771   3.502   5.664  16.212 -0.3465 -0.2732  2.4388
 2786TIP3   OH229772   0.364   2.864  14.123 -0.2827 -0.3219 -0.4758
 2786TIP3    H129773   0.368   2.874  14.218 -1.2177 -0.2152 -0.4409
 2786TIP3    H229774   0.373   2.770  14.109  3.2231 -0.1343 -0.5106
 2787TIP3   OH229775   6.566   6.168  14.524  0.2928  0.4688 -0.6044
 2787TIP3    H129776   6.492   6.108  14.515  1.1512 -0.7215 -0.0916
 2787TIP3    H229777   6.529   6.247  14.563 -0.9769  0.5071 -1.8046
 2788TIP3   OH229778   2.815   3.040  15.361 -0.2711  0.2684  0.0742
 2788TIP3    H129779   2.764   3.122  15.363 -0.1423  0.3418  0.4212
 2788TIP3    H229780   2.869   3.044  15.440  0.4510  0.3003 -0.4122
 2789TIP3   OH229781   4.273   0.580   2.709 -0.5329 -0.5314  0.6339
 2789TIP3    H129782   4.232   0.540   2.785 -2.7204  1.2619  0.5061
 2789TIP3    H229783   4.233   0.666   2.702 -1.3142 -0.9987 -3.1895
 2790TIP3   OH229784   1.063   2.726   0.538  0.6051  0.1514 -0.4346
 2790TIP3    H129785   0.982   2.682   0.513  0.9580 -0.2337 -0.9285
 2790TIP3    H229786   1.102   2.752   0.454  0.0474  2.0701 -0.1316
 2791TIP3   OH229787   5.095   5.548  13.969 -0.2118 -0.1887 -0.4557
 2791TIP3    H129788   5.132   5.497  13.897  0.2407  0.4869 -0.7123
 2791TIP3    H229789   5.146   5.629  13.970 -2.9409  1.7456 -2.1661
 2792TIP3   OH229790   2.668   2.767  10.957 -0.3826 -0.4732  0.1868
 2792TIP3    H129791   2.732   2.765  10.886  1.0672 -1.7189  1.4522
 2792TIP3    H229792   2.621   2.684  10.949 -1.2178  0.0309 -0.1822
 2793TIP3   OH229793   3.101   5.517  15.484  0.7327  0.0240 -0.1861
 2793TIP3    H129794   3.170   5.508  15.419  1.1068 -1.2291  0.3450
 2793TIP3    H229795   3.124   5.454  15.552 -0.0647  0.7568  0.7932
 2794TIP3   OH229796   0.512   4.197  17.237 -0.1628  0.5353  0.0977
 2794TIP3    H129797   0.545   4.189  17.327 -1.1082 -0.3940  0.3736
 2794TIP3    H229798   0.591   4.192  17.183  0.5158  1.9536  0.8877
 2795TIP3   OH229799   3.557   0.986  17.078  0.1503 -0.0808  0.3045
 2795TIP3    H129800   3.462   0.990  17.085  0.1591  0.2385  0.2555
 2795TIP3    H229801   3.586   1.077  17.089  0.4173 -0.1095 -0.1504
 2796TIP3   OH229802   6.385   5.104   0.366 -0.1525  0.5758 -0.0618
 2796TIP3    H129803   6.361   5.057   0.446  0.1640 -0.0279 -0.3105
 2796TIP3    H229804   6.447   5.171   0.394 -0.0898  0.4054  0.2073
 2797TIP3   OH229805   3.593   4.835   5.221  0.3347  0.2073  0.1146
 2797TIP3    H129806   3.507   4.842   5.179 -1.2163 -1.6247  2.6164
 2797TIP3    H229807   3.605   4.918   5.267 -0.0512  0.5282 -0.3631
 2798TIP3   OH229808   2.556   1.792   5.537  0.8463 -0.1338 -0.1598
 2798TIP3    H129809   2.509   1.765   5.616  0.8408 -0.8397 -0.3948
 2798TIP3    H229810   2.547   1.887   5.535  1.3785 -0.0470  1.0248
 2799TIP3   OH229811   4.307   4.221   4.001  0.4560  0.9666  0.4613
 2799TIP3    H129812   4.253   4.148   3.971  0.7683  1.0963 -0.4632
 2799TIP3    H229813   4.380   4.180   4.047 -0.1752  0.7708  1.3019
 2800TIP3   OH229814   4.640   6.453   5.688  0.5249 -0.0330 -0.0249
 2800TIP3    H129815   4.646   6.500   5.605  2.6149 -0.8667 -0.4165
 2800TIP3    H229816   4.693   6.504   5.749  0.3873 -0.3210  0.3418
 2801TIP3   OH229817   0.507   3.477   0.075 -0.3431  0.0335  0.4070
 2801TIP3    H129818   0.447   3.517   0.138  1.5437  1.5017  1.3664
 2801TIP3    H229819   0.548   3.550   0.029  0.1154 -0.9448 -0.8224
 2802TIP3   OH229820   6.293   5.692   2.498 -0.0491 -0.2346  0.4840
 2802TIP3    H129821   6.251   5.665   2.580 -0.8560 -0.2973  0.0537
 2802TIP3    H229822   6.344   5.616   2.472 -0.7353 -0.6447  0.3146
 2803TIP3   OH229823   1.136   6.141   5.413  0.7321 -0.3736 -0.9096
 2803TIP3    H129824   1.165   6.187   5.492 -0.5854 -0.5355 -0.3140
 2803TIP3    H229825   1.041   6.147   5.414  0.5905 -1.9083 -1.5573
 2804TIP3   OH229826   5.497   2.338  13.586  0.0461  0.0575  0.5413
 2804TIP3    H129827   5.403   2.348  13.603 -0.3232  1.6712 -1.9115
 2804TIP3    H229828   5.519   2.253  13.623 -2.7920 -1.1641 -0.2868
 2805TIP3   OH229829   3.962   3.475  16.134  0.0247 -0.3938  0.9209
 2805TIP3    H129830   3.980   3.479  16.040  1.4793  1.9820  1.2127
 2805TIP3    H229831   3.875   3.513  16.143  0.3134  0.3870  0.5788
 2806TIP3   OH229832   6.379   1.998   5.397 -0.6773  0.4214 -0.0371
 2806TIP3    H129833   6.367   1.995   5.491 -0.5322  2.0019  0.0659
 2806TIP3    H229834   6.462   1.952   5.382 -0.4403  0.5996  0.6738
 2807TIP3   OH229835   5.298   2.773   3.794 -0.1405 -0.3197  0.2374
 2807TIP3    H129836   5.356   2.788   3.869 -1.4635 -1.2175  1.4779
 2807TIP3    H229837   5.214   2.809   3.820 -0.1358  1.2522 -1.6704
 2808TIP3   OH229838   5.181   0.541  17.223 -0.4927  0.0431 -0.5933
 2808TIP3    H129839   5.228   0.617  17.189 -0.6963 -0.1377 -1.2922
 2808TIP3    H229840   5.095   0.545  17.182 -0.6074 -0.3991 -0.4022
 2809TIP3   OH229841   6.336   2.799   2.735 -0.4220  0.4539  0.0746
 2809TIP3    H129842   6.310   2.760   2.818  0.3211  0.8319  0.4967
 2809TIP3    H229843   6.365   2.724   2.682 -1.3080  0.1607 -0.0162
 2810TIP3   OH229844   3.916   5.584   5.364 -0.5092 -0.3948 -0.3273
 2810TIP3    H129845   3.843   5.638   5.333  0.0787 -0.0333 -1.1420
 2810TIP3    H229846   3.878   5.497   5.378 -0.9389 -0.4261 -1.5513
 2811TIP3   OH229847   6.409   5.507  15.408  0.3402 -0.3208 -0.1697
 2811TIP3    H129848   6.426   5.438  15.344 -1.4501 -0.5086 -0.4790
 2811TIP3    H229849   6.315   5.503  15.424 -0.1168  3.0220 -1.3244
 2812TIP3   OH229850   4.225   1.391   2.697 -0.2881 -0.0626  0.1037
 2812TIP3    H129851   4.212   1.307   2.653  0.5977  0.8475 -2.0092
 2812TIP3    H229852   4.280   1.369   2.773 -1.6451 -1.6414  0.6821
 2813TIP3   OH229853   0.699   5.857   2.200  0.2701  0.5749  0.0927
 2813TIP3    H129854   0.695   5.773   2.155  1.1160  1.6029 -2.0746
 2813TIP3    H229855   0.615   5.865   2.245  0.9785 -2.3046  2.1927
 2814TIP3   OH229856   4.271   0.044   3.521  0.2946 -0.0607 -0.6172
 2814TIP3    H129857   4.239   0.021   3.608  1.2110  1.5997  0.2070
 2814TIP3    H229858   4.363   0.068   3.534  0.1408  1.3508 -1.8123
 2815TIP3   OH229859   3.071   2.306  12.591  0.4339  0.2699 -0.6232
 2815TIP3    H129860   3.025   2.319  12.508  2.9787 -1.4091 -2.4379
 2815TIP3    H229861   3.031   2.227  12.629 -1.2012  1.4249  0.1978
 2816TIP3   OH229862   0.223   2.288  16.119  0.1377 -0.2452 -0.0622
 2816TIP3    H129863   0.147   2.292  16.177 -0.1187 -1.1762 -0.3119
 2816TIP3    H229864   0.261   2.202  16.135  0.1618 -0.4527 -1.1427
 2817TIP3   OH229865   2.453   6.617   5.019 -0.4402  0.6621  0.0915
 2817TIP3    H129866   2.361   6.621   4.995 -0.2606 -0.8041 -0.9532
 2817TIP3    H229867   2.478   6.527   5.003  0.9678  0.8119  1.2263
 2818TIP3   OH229868   1.633   6.190   3.929  0.3220 -0.2933  0.2047
 2818TIP3    H129869   1.548   6.231   3.945  0.5947  0.1265  0.5966
 2818TIP3    H229870   1.681   6.254   3.876 -0.6647 -1.7539 -2.7172
 2819TIP3   OH229871   1.195   2.993   1.164  0.0203 -0.3777 -0.4035
 2819TIP3    H129872   1.234   3.080   1.175 -0.4595 -0.2787  0.5670
 2819TIP3    H229873   1.145   2.999   1.083  1.2499 -0.2337 -1.1897
 2820TIP3   OH229874   4.711   4.736  16.103  0.6302  0.7552 -0.2033
 2820TIP3    H129875   4.744   4.803  16.043 -0.0429  0.7831 -0.5500
 2820TIP3    H229876   4.780   4.726  16.168 -0.2429  3.5441  1.3095
 2821TIP3   OH229877   4.739   2.277  16.870  0.4320 -0.0989 -0.3065
 2821TIP3    H129878   4.782   2.361  16.885 -1.0702  0.6003  0.3316
 2821TIP3    H229879   4.781   2.242  16.791  1.5761  0.9024 -0.1745
 2822TIP3   OH229880   5.963   1.285   1.920 -0.4279 -0.1758  0.6496
 2822TIP3    H129881   5.964   1.238   1.837  1.1906 -0.8959  1.0362
 2822TIP3    H229882   5.939   1.375   1.897  1.6010  0.0487 -0.8652
 2823TIP3   OH229883   5.409   5.080   2.300 -0.4817  0.0204 -0.0652
 2823TIP3    H129884   5.378   4.998   2.338 -0.3772 -0.2881 -0.6364
 2823TIP3    H229885   5.347   5.146   2.331 -0.2664 -0.1788  0.8242
 2824TIP3   OH229886   6.403   2.788  16.457 -0.2874 -0.4374  0.2469
 2824TIP3    H129887   6.411   2.800  16.552  1.7033 -1.6846  0.3010
 2824TIP3    H229888   6.313   2.757  16.444 -0.8115  0.3984  1.6290
 2825TIP3   OH229889   5.275   3.266   2.714  0.5233  0.4712  0.3747
 2825TIP3    H129890   5.233   3.184   2.688  0.7507  0.5808 -0.3386
 2825TIP3    H229891   5.351   3.238   2.767  1.1267  0.1824 -0.6221
 2826TIP3   OH229892   4.377   6.531  15.403  0.3977 -0.0036  0.0331
 2826TIP3    H129893   4.348   6.481  15.479 -0.1807  0.6387  0.2384
 2826TIP3    H229894   4.468   6.553  15.422  0.6894 -1.0395 -0.0986
 2827TIP3   OH229895   4.223   2.926   5.991  0.0259  0.7451  0.5267
 2827TIP3    H129896   4.189   2.883   5.913 -0.3264 -0.1684  1.1581
 2827TIP3    H229897   4.148   2.972   6.028 -0.3081 -0.3739  1.3246
 2828TIP3   OH229898   4.948   4.304  15.761 -0.1996 -0.0446 -0.1612
 2828TIP3    H129899   4.942   4.384  15.813  0.4206 -0.3993  0.4700
 2828TIP3    H229900   5.006   4.246  15.812 -4.0583 -2.6758  1.7292
 2829TIP3   OH229901   0.852   5.005   1.836 -0.1618 -0.6130 -0.3459
 2829TIP3    H129902   0.787   5.075   1.824 -0.4620 -0.7263  0.5673
 2829TIP3    H229903   0.934   5.045   1.808 -0.1963  0.3699  0.8709
 2830TIP3   OH229904   5.656   5.376   1.607  0.8149 -0.1709  0.0222
 2830TIP3    H129905   5.595   5.403   1.538 -0.4286 -0.0455  1.1229
 2830TIP3    H229906   5.657   5.449   1.669  2.4785  0.0292 -0.1944
 2831TIP3   OH229907   3.492   0.176   1.419 -0.4040 -0.2849  0.3521
 2831TIP3    H129908   3.564   0.239   1.412 -1.3974  0.8425 -0.2457
 2831TIP3    H229909   3.464   0.162   1.329 -0.8784 -0.7697  0.5730
 2832TIP3   OH229910   3.591   1.566   3.505  0.2998 -0.0661  0.9784
 2832TIP3    H129911   3.565   1.573   3.414 -0.9787 -1.6991  1.1688
 2832TIP3    H229912   3.594   1.656   3.537 -2.8604  0.4061  0.2578
 2833TIP3   OH229913   3.115   2.025  14.097 -0.0844 -0.2502 -0.4082
 2833TIP3    H129914   3.093   2.057  14.184 -2.2250 -0.0825 -0.9492
 2833TIP3    H229915   3.052   1.956  14.080  0.8583 -0.8855 -1.5004
 2834TIP3   OH229916   4.202   5.647  12.576  0.1039  0.0460 -0.4942
 2834TIP3    H129917   4.152   5.661  12.495  1.4729  0.5762 -1.3039
 2834TIP3    H229918   4.288   5.687  12.557  0.1775  0.9860  1.5400
 2835TIP3   OH229919   1.318   5.363   4.586  0.0578  0.5646 -0.7352
 2835TIP3    H129920   1.388   5.309   4.549  0.0382 -0.9678  1.2187
 2835TIP3    H229921   1.335   5.361   4.680 -3.1636 -0.8283 -0.0385
 2836TIP3   OH229922   3.061   0.045   3.009  0.0235 -0.2971 -0.0567
 2836TIP3    H129923   3.069   0.091   2.926 -1.3950 -1.5050 -0.9121
 2836TIP3    H229924   2.993   0.092   3.057  1.3853  0.8750  0.8004
 2837TIP3   OH229925   1.278   2.279  15.659 -0.1359  0.2158  0.1155
 2837TIP3    H129926   1.203   2.225  15.685  1.2557 -1.9333 -0.1049
 2837TIP3    H229927   1.273   2.284  15.564 -0.1654  0.3139  0.1222
 2838TIP3   OH229928   5.759   6.169   5.866 -0.0466 -0.4954  0.1121
 2838TIP3    H129929   5.705   6.136   5.938 -0.3966 -0.9390 -0.3433
 2838TIP3    H229930   5.782   6.258   5.891 -2.9441  0.5749 -0.7426
 2839TIP3   OH229931   6.085   1.318   2.926 -0.3665 -0.0988 -0.3475
 2839TIP3    H129932   6.147   1.261   2.881 -0.4163 -0.2734 -0.1970
 2839TIP3    H229933   6.131   1.346   3.005 -0.3007  0.1606 -0.4751
 2840TIP3   OH229934   1.235   2.369   3.244 -0.4824 -0.7397 -0.3664
 2840TIP3    H129935   1.258   2.401   3.331  1.0092 -1.2694 -0.5401
 2840TIP3    H229936   1.269   2.280   3.241 -0.8500 -0.8610 -1.3540
 2841TIP3   OH229937   1.732   6.551   2.611  0.0039  0.1534 -0.0966
 2841TIP3    H129938   1.666   6.583   2.550  1.6785  2.0232 -1.0424
 2841TIP3    H229939   1.689   6.557   2.697 -2.2780 -2.2199 -0.9348
 2842TIP3   OH229940   6.366   0.901  11.257 -0.4566 -0.1746 -0.2342
 2842TIP3    H129941   6.361   0.838  11.329  0.1147  0.5700  0.4710
 2842TIP3    H229942   6.437   0.869  11.201  0.7816  0.5740  0.8649
 2843TIP3   OH229943   5.189   1.884  11.052 -0.5457  0.4776 -0.2013
 2843TIP3    H129944   5.116   1.876  11.114 -0.4153  1.0755  0.0374
 2843TIP3    H229945   5.154   1.940  10.982  0.0730  1.8718  0.5510
 2844TIP3   OH229946   3.213   6.072   0.671  0.1670 -0.5313 -0.2929
 2844TIP3    H129947   3.166   6.079   0.754 -2.3395  0.9059 -1.6955
 2844TIP3    H229948   3.206   5.980   0.647 -1.0634 -0.5529  0.0618
 2845TIP3   OH229949   6.659   0.746  14.733  0.3371 -0.2651  0.0227
 2845TIP3    H129950   6.577   0.715  14.772  0.1496 -0.5234 -0.5743
 2845TIP3    H229951   6.648   0.735  14.639  1.3086 -0.9283 -0.0357
 2846TIP3   OH229952   0.791   2.643  12.416  0.0937 -0.5392 -0.1405
 2846TIP3    H129953   0.866   2.691  12.452  0.5023 -1.4098  0.2068
 2846TIP3    H229954   0.753   2.703  12.352  1.6340 -0.4193 -1.0024
 2847TIP3   OH229955   6.044   3.125  11.810  0.0961  0.2981 -0.5609
 2847TIP3    H129956   6.103   3.059  11.774  0.1154  0.0633 -0.1047
 2847TIP3    H229957   6.050   3.198  11.749  0.6505  0.1655 -0.6692
 2848TIP3   OH229958   1.886   0.458  10.923 -0.1854 -0.2961  0.5340
 2848TIP3    H129959   1.915   0.444  10.832  2.9433 -0.8375  1.4767
 2848TIP3    H229960   1.968   0.470  10.971 -1.5406 -2.4863  3.7026
 2849TIP3   OH229961   0.116   1.256  13.948 -0.0328  0.1205  0.4042
 2849TIP3    H129962   0.127   1.350  13.931  1.1897 -0.0865 -0.0134
 2849TIP3    H229963   0.158   1.214  13.873  2.2365 -0.7947  2.1103
 2850TIP3   OH229964   4.170   0.640   5.160  0.2485 -0.2638  0.0840
 2850TIP3    H129965   4.199   0.696   5.232 -0.2176 -1.0367  0.8964
 2850TIP3    H229966   4.171   0.551   5.197 -0.1274 -0.6578 -0.8232
 2851TIP3   OH229967   1.217   6.149   5.092 -0.3842 -0.1687 -0.3450
 2851TIP3    H129968   1.293   6.105   5.128  0.5327  0.0772 -1.8751
 2851TIP3    H229969   1.220   6.237   5.129 -1.8785 -1.1123  2.2386
 2852TIP3   OH229970   3.093   5.009   4.841 -0.2786  0.0982  0.0214
 2852TIP3    H129971   3.097   5.001   4.745 -0.6558  2.0757 -0.2153
 2852TIP3    H229972   3.000   5.024   4.859 -0.1816 -0.0736  0.6726
 2853TIP3   OH229973   5.794   1.731   0.484  0.3452  0.2794 -0.3632
 2853TIP3    H129974   5.745   1.676   0.422 -0.3704 -0.5672  0.9104
 2853TIP3    H229975   5.844   1.668   0.536 -0.3858  0.8318  1.0419
 2854TIP3   OH229976   0.752   0.773  15.386  0.7051 -0.1758 -0.5492
 2854TIP3    H129977   0.742   0.813  15.299 -0.0438  1.0601  0.0635
 2854TIP3    H229978   0.804   0.837  15.435 -0.1405 -0.1521  0.3334
 2855TIP3   OH229979   5.847   3.561  10.757  0.1842  0.4438  0.1371
 2855TIP3    H129980   5.841   3.471  10.725  0.1632  0.3389  0.4368
 2855TIP3    H229981   5.822   3.615  10.682 -0.9990  0.1470  0.3026
 2856TIP3   OH229982   3.016   3.694   0.122  0.2120  0.5079 -0.0050
 2856TIP3    H129983   3.003   3.659   0.034  0.5953 -1.1968  0.5643
 2856TIP3    H229984   3.111   3.691   0.135  0.0810 -0.4337  0.8863
 2857TIP3   OH229985   0.877   1.475  14.998  0.2510 -0.5146 -0.0553
 2857TIP3    H129986   0.858   1.384  14.977 -2.8716 -0.6906  2.7045
 2857TIP3    H229987   0.856   1.523  14.917 -1.4259 -1.9800 -0.5550
 2858TIP3   OH229988   3.705   5.498  11.985 -0.7624  0.2837 -0.2053
 2858TIP3    H129989   3.645   5.466  11.918  0.3599  0.7384 -1.4817
 2858TIP3    H229990   3.754   5.419  12.012 -1.3510  0.0647  0.2322
 2859TIP3   OH229991   2.157   6.728  11.319 -0.0426  0.3877  0.3422
 2859TIP3    H129992   2.164   6.793  11.249  1.8900  0.0915  0.1905
 2859TIP3    H229993   2.225   6.664  11.298 -0.6956 -0.7278  1.4757
 2860TIP3   OH229994   2.863   2.715  10.704  0.1874 -0.0487  0.2251
 2860TIP3    H129995   2.774   2.723  10.669 -0.0683  1.9346  1.2088
 2860TIP3    H229996   2.893   2.630  10.671 -1.1388  0.3068 -2.2058
 2861TIP3   OH229997   1.087   4.872  11.683  0.2959  0.2263  0.4426
 2861TIP3    H129998   1.151   4.804  11.702  2.4288  2.1315  0.4925
 2861TIP3    H229999   1.138   4.942  11.642 -1.5926  2.2165  1.3332
 2862TIP3   OH230000   4.775   4.332  11.540 -0.6643 -0.4628 -0.1487
 2862TIP3    H130001   4.862   4.355  11.508 -0.4125 -1.1962 -0.0215
 2862TIP3    H230002   4.722   4.324  11.461 -1.3825  2.7576 -0.1291
 2863TIP3   OH230003   2.666   4.259  12.214  1.1500  0.3146 -0.4233
 2863TIP3    H130004   2.605   4.329  12.238  1.9234  0.9839 -0.3755
 2863TIP3    H230005   2.668   4.260  12.118  0.1608 -0.5295 -0.4681
 2864TIP3   OH230006   0.133   5.309   4.964 -0.0261  0.0659  0.2774
 2864TIP3    H130007   0.094   5.287   5.049  0.0161  0.0635  0.2962
 2864TIP3    H230008   0.058   5.330   4.908 -0.0226  0.5591  0.4561
 2865TIP3   OH230009   0.599   1.729  13.290  0.3393 -0.6272 -0.1539
 2865TIP3    H130010   0.667   1.669  13.322  0.5286 -2.3314 -3.2768
 2865TIP3    H230011   0.548   1.676  13.229 -1.2999  1.6836 -0.9267
 2866TIP3   OH230012   0.058   6.515  12.699 -0.9047 -0.2080  0.2439
 2866TIP3    H130013   0.099   6.601  12.704 -0.0459 -0.6472  0.9943
 2866TIP3    H230014   0.078   6.474  12.783 -0.1971 -1.6341 -0.5808
 2867TIP3   OH230015   0.743   6.129   2.098 -0.3970  0.4106 -0.5608
 2867TIP3    H130016   0.750   6.038   2.127 -1.1839  0.2047 -0.9887
 2867TIP3    H230017   0.725   6.123   2.004 -2.8906  0.9123 -0.1832
 2868TIP3   OH230018   2.145   0.454  15.529  0.3533 -0.3842 -0.4516
 2868TIP3    H130019   2.057   0.489  15.516  1.2038  2.0335 -0.1005
 2868TIP3    H230020   2.176   0.435  15.440 -0.0508 -0.0282 -0.6753
 2869TIP3   OH230021   5.131   4.119  17.254 -0.0354  0.7189 -1.0115
 2869TIP3    H130022   5.099   4.208  17.240  0.7247  1.6156  2.2708
 2869TIP3    H230023   5.224   4.129  17.272  0.4153 -0.9745 -2.0957
 2870TIP3   OH230024   3.588   4.356   6.330  0.2129 -0.5802 -0.8824
 2870TIP3    H130025   3.530   4.364   6.254  0.8526 -0.4080 -1.3560
 2870TIP3    H230026   3.668   4.401   6.304 -0.0571  0.7187  0.4124
 2871TIP3   OH230027   4.050   0.681  11.538  0.2363  0.2205  0.0787
 2871TIP3    H130028   4.017   0.769  11.557 -0.3273  0.4766 -1.8825
 2871TIP3    H230029   4.019   0.628  11.612 -0.0304  1.5051  0.9366
 2872TIP3   OH230030   1.583   1.187  10.529  0.3386  0.5889  0.0706
 2872TIP3    H130031   1.499   1.190  10.575  0.3591  0.4210  0.1188
 2872TIP3    H230032   1.636   1.254  10.571 -0.0986  1.3829 -0.5951
 2873TIP3   OH230033   1.107   1.839  13.851 -0.4241 -0.2623 -0.1354
 2873TIP3    H130034   1.173   1.801  13.794  0.1908  0.2735  0.1959
 2873TIP3    H230035   1.037   1.774  13.854 -0.5111 -0.2584 -1.5494
 2874TIP3   OH230036   0.506   3.537  14.120  0.3642  0.3504  0.1701
 2874TIP3    H130037   0.502   3.629  14.146  4.2346  0.4197  1.0791
 2874TIP3    H230038   0.564   3.536  14.044 -1.3841 -1.1828 -1.2546
 2875TIP3   OH230039   4.340   4.107   0.520 -0.4936  0.0825  0.2816
 2875TIP3    H130040   4.358   4.195   0.486 -0.4474 -0.7273 -1.9199
 2875TIP3    H230041   4.399   4.099   0.595  1.0729  1.1567 -0.7604
 2876TIP3   OH230042   1.182   3.958  11.582  0.5169  0.0066 -0.3034
 2876TIP3    H130043   1.126   4.020  11.536  1.9189  1.0700 -0.6417
 2876TIP3    H230044   1.244   4.012  11.631  0.2590 -1.1203  1.3600
 2877TIP3   OH230045   4.747   0.597  11.908 -0.2006 -0.0299 -0.2765
 2877TIP3    H130046   4.671   0.655  11.911 -0.6486 -0.6308  0.5060
 2877TIP3    H230047   4.810   0.642  11.852 -0.1814  1.6380  1.0153
 2878TIP3   OH230048   3.196   4.537  12.671  0.0110 -0.1486 -0.1682
 2878TIP3    H130049   3.171   4.452  12.706 -1.7314 -0.2396 -1.4867
 2878TIP3    H230050   3.232   4.518  12.584  1.6331  0.3124  0.3547
 2879TIP3   OH230051   5.403   4.056   1.158 -0.3557 -0.3975  0.6858
 2879TIP3    H130052   5.444   4.128   1.111  1.9059  1.6858  5.2224
 2879TIP3    H230053   5.327   4.095   1.201 -0.9103 -1.5657  0.8213
 2880TIP3   OH230054   2.526   4.629   3.746  0.6234  0.0920 -0.2538
 2880TIP3    H130055   2.436   4.639   3.714  0.8521 -0.0418 -0.9452
 2880TIP3    H230056   2.573   4.706   3.714  0.9849 -0.3120 -0.7059
 2881TIP3   OH230057   3.933   4.382  16.708  0.2236  0.3852 -0.2047
 2881TIP3    H130058   3.841   4.407  16.696  0.2704  2.4605  2.6687
 2881TIP3    H230059   3.980   4.432  16.641 -0.6889 -1.4210 -2.3456
 2882TIP3   OH230060   1.531   2.622  12.315  0.5114  0.4200  0.3610
 2882TIP3    H130061   1.583   2.599  12.392  0.2324  0.5609  0.5954
 2882TIP3    H230062   1.590   2.674  12.261  1.0424 -0.5479 -0.0195
 2883TIP3   OH230063   5.190   0.973   1.527 -0.7200 -0.0319  0.1979
 2883TIP3    H130064   5.114   0.958   1.583 -0.7168  1.1903  0.5599
 2883TIP3    H230065   5.202   0.890   1.480 -1.3055 -0.7618  1.2897
 2884TIP3   OH230066   2.051   4.700  15.945 -0.1636  0.1710  0.0571
 2884TIP3    H130067   1.971   4.728  15.990  0.3583  1.2907  0.3277
 2884TIP3    H230068   2.104   4.779  15.940  2.1700 -1.1199  2.4214
 2885TIP3   OH230069   5.234   4.230  13.315 -0.2167 -0.1074  0.2291
 2885TIP3    H130070   5.163   4.233  13.380  0.5395  0.2453  1.0548
 2885TIP3    H230071   5.264   4.139  13.316 -0.9562 -0.3702 -0.4655
 2886TIP3   OH230072   1.629   6.104   5.548 -0.3714  0.1190  0.4316
 2886TIP3    H130073   1.544   6.061   5.547 -0.8626  1.0707 -0.0666
 2886TIP3    H230074   1.687   6.043   5.502 -0.7709 -0.5477  0.7983
 2887TIP3   OH230075   5.568   4.234   1.817  0.0369 -0.1764  0.4258
 2887TIP3    H130076   5.638   4.227   1.753 -0.1697  0.2119  0.1539
 2887TIP3    H230077   5.597   4.181   1.891  1.0510  0.7479  0.7138
 2888TIP3   OH230078   3.475   3.224   5.043  0.6876  0.0612 -0.1629
 2888TIP3    H130079   3.528   3.198   5.118 -2.1959 -2.3591  1.2246
 2888TIP3    H230080   3.512   3.174   4.970  0.7714 -1.0456  0.6148
 2889TIP3   OH230081   1.796   5.226  13.432 -0.1211  0.6773 -0.7154
 2889TIP3    H130082   1.874   5.207  13.381  0.5911  1.0472  0.1948
 2889TIP3    H230083   1.793   5.321  13.436  0.1196  0.6532  0.3250
 2890TIP3   OH230084   2.856   5.415   3.983  0.7219 -0.1647 -0.8440
 2890TIP3    H130085   2.867   5.320   3.990  1.3754 -0.3451 -3.3968
 2890TIP3    H230086   2.765   5.427   3.958  1.1419 -0.2925 -2.5135
 2891TIP3   OH230087   5.007   2.112  15.686  0.1007 -0.2830 -0.0473
 2891TIP3    H130088   4.961   2.129  15.604 -0.0098  1.2808  0.3073
 2891TIP3    H230089   5.077   2.051  15.662  0.6634  0.8705 -1.5368
 2892TIP3   OH230090   0.959   6.665   0.183  0.3234 -0.3688 -0.6322
 2892TIP3    H130091   0.893   6.596   0.185  1.1326 -1.1549  0.3168
 2892TIP3    H230092   1.014   6.647   0.259  0.1433  1.7453  0.0639
 2893TIP3   OH230093   4.064   3.358  15.124  0.5656  0.3615 -0.1536
 2893TIP3    H130094   4.132   3.318  15.069 -1.0401  0.6655 -2.5017
 2893TIP3    H230095   4.100   3.354  15.213  2.3582 -2.1893 -0.8816
 2894TIP3   OH230096   6.156   5.090  17.310 -0.4685  0.8113  0.1410
 2894TIP3    H130097   6.110   5.082  17.394 -0.0330  1.5779  0.4635
 2894TIP3    H230098   6.221   5.157  17.325  0.0266  0.5197 -0.6449
 2895TIP3   OH230099   2.995   5.970   4.040  0.3389 -0.4254 -0.9143
 2895TIP3    H130100   2.942   6.045   4.014  0.1272 -0.1957  0.1419
 2895TIP3    H230101   3.044   6.000   4.116 -0.4400 -1.6326  0.1104
 2896TIP3   OH230102   1.258   5.204   5.535 -0.1521  0.1019  0.2647
 2896TIP3    H130103   1.241   5.198   5.629  2.0272  1.2425  0.7976
 2896TIP3    H230104   1.319   5.133   5.516 -2.4233 -1.6979 -0.8810
 2897TIP3   OH230105   6.602   5.086  16.531 -0.4191 -0.1411 -0.0916
 2897TIP3    H130106   6.509   5.067  16.523 -0.3562 -0.4849 -0.0101
 2897TIP3    H230107   6.609   5.136  16.612 -0.5746  0.1686 -0.2681
 2898TIP3   OH230108   3.660   0.374  14.382  0.7425 -0.7372  0.1388
 2898TIP3    H130109   3.565   0.369  14.390  0.7058 -0.6705 -0.2288
 2898TIP3    H230110   3.692   0.295  14.424  0.5383 -0.6204  0.5138
 2899TIP3   OH230111   4.342   1.332   0.610  0.4736 -0.2221  0.1605
 2899TIP3    H130112   4.406   1.297   0.548 -0.7624 -1.3020 -0.5510
 2899TIP3    H230113   4.299   1.255   0.647  1.5574  0.3538  2.8468
 2900TIP3   OH230114   4.133   2.849   4.374 -0.2030 -0.8562  0.2693
 2900TIP3    H130115   4.135   2.944   4.377 -0.8264 -0.8355  0.1090
 2900TIP3    H230116   4.176   2.821   4.455  0.2682 -0.4456  0.1644
 2901TIP3   OH230117   3.678   6.524   3.768  0.5499  0.8873  0.3420
 2901TIP3    H130118   3.649   6.584   3.837 -0.0479  1.7643 -0.6503
 2901TIP3    H230119   3.758   6.484   3.803 -1.3428 -1.0536  2.8643
 2902TIP3   OH230120   3.130   2.093  14.369  0.2128  0.1537  0.6010
 2902TIP3    H130121   3.171   2.049  14.444  0.5338 -1.6221 -0.5684
 2902TIP3    H230122   3.036   2.080  14.382  0.2297  0.4256  1.0245
 2903TIP3   OH230123   6.190   4.985  12.639  0.0633  0.1869  0.6887
 2903TIP3    H130124   6.168   5.042  12.713  0.9356 -0.1255  1.2012
 2903TIP3    H230125   6.115   4.928  12.629  0.3376 -0.4217  1.9728
 2904TIP3   OH230126   3.752   4.961   4.343 -0.3778  0.4196  0.2460
 2904TIP3    H130127   3.683   4.927   4.285 -0.9172  1.6147  0.1635
 2904TIP3    H230128   3.746   4.907   4.422 -0.6056 -0.2703 -0.2318
 2905TIP3   OH230129   5.538   4.577  15.076  0.0354  0.2601  0.6285
 2905TIP3    H130130   5.470   4.567  15.009  0.3883 -1.5901  0.4938
 2905TIP3    H230131   5.530   4.498  15.130  2.0367  0.0318  0.6504
 2906TIP3   OH230132   2.074   4.694   0.595  0.6160  0.0654  0.0711
 2906TIP3    H130133   2.164   4.696   0.564  0.9142 -0.0929  0.9185
 2906TIP3    H230134   2.050   4.787   0.604  0.3479  0.1288 -1.1030
 2907TIP3   OH230135   3.706   3.272  16.980 -0.0956  0.2716  0.4602
 2907TIP3    H130136   3.756   3.338  16.930  0.7822 -1.1733 -0.6489
 2907TIP3    H230137   3.769   3.202  16.997 -1.3702 -0.9476  0.3336
 2908TIP3   OH230138   1.639   4.346   3.001 -0.7001 -0.2955 -0.4391
 2908TIP3    H130139   1.678   4.367   2.916 -0.5031  0.6337 -0.1328
 2908TIP3    H230140   1.634   4.250   3.003  2.3567 -0.5499 -0.1813
 2909TIP3   OH230141   4.210   5.665   0.221  0.0137 -0.2467  0.3793
 2909TIP3    H130142   4.264   5.621   0.155 -1.4366 -2.1064  0.3349
 2909TIP3    H230143   4.273   5.692   0.289  0.9987 -2.9819  0.6877
 2910TIP3   OH230144   3.482   6.722  15.667 -0.1637 -0.2597 -0.0517
 2910TIP3    H130145   3.569   6.756  15.687  1.0074 -2.4009 -1.1287
 2910TIP3    H230146   3.470   6.740  15.574 -1.2925  0.8272  0.2826
 2911TIP3   OH230147   2.609   3.167   6.398  0.5607  0.0076  0.2195
 2911TIP3    H130148   2.703   3.182   6.410  1.0539 -1.2963 -1.5823
 2911TIP3    H230149   2.571   3.254   6.385  1.4362  0.5808  1.3861
 2912TIP3   OH230150   2.764   3.533  16.175 -0.1933 -0.5886 -0.0557
 2912TIP3    H130151   2.706   3.491  16.111  0.2766 -1.6689  0.1969
 2912TIP3    H230152   2.833   3.573  16.122  0.2666 -1.5938 -0.2475
 2913TIP3   OH230153   6.199   1.277   4.144  0.6547  0.3675  0.4210
 2913TIP3    H130154   6.193   1.219   4.220  1.1140  1.2280  1.1317
 2913TIP3    H230155   6.129   1.341   4.157 -0.1405 -0.2524 -0.5854
 2914TIP3   OH230156   4.333   1.832  11.661 -0.9413 -0.2786  0.1842
 2914TIP3    H130157   4.313   1.904  11.720  0.0947 -0.1274  0.3585
 2914TIP3    H230158   4.364   1.762  11.717  1.7384  0.4438 -0.2502
 2915TIP3   OH230159   2.946   5.799  11.141 -0.5363 -0.0302  0.5690
 2915TIP3    H130160   2.947   5.874  11.199 -0.4120  0.2386  0.2246
 2915TIP3    H230161   2.935   5.836  11.053 -1.5258 -0.4826  0.4916
 2916TIP3   OH230162   5.677   2.492   6.507 -0.1353 -0.0246  0.1222
 2916TIP3    H130163   5.607   2.429   6.486 -0.2381  0.3570 -0.7209
 2916TIP3    H230164   5.727   2.500   6.427 -0.6916  1.6853 -0.0939
 2917TIP3   OH230165   1.372   1.057   0.305  0.5046  0.0563  0.5004
 2917TIP3    H130166   1.294   1.015   0.269  0.3255 -0.3631  1.3650
 2917TIP3    H230167   1.438   1.048   0.236  0.4693 -1.6300  0.6664
 2918TIP3   OH230168   3.631   0.270  16.965 -0.1510 -0.0235  0.1371
 2918TIP3    H130169   3.625   0.364  16.951  2.3280  0.1247 -0.4046
 2918TIP3    H230170   3.647   0.234  16.877  1.0367 -0.7067  0.6216
 2919TIP3   OH230171   3.124   4.455   5.010 -0.0347 -0.2324  0.1297
 2919TIP3    H130172   3.164   4.489   5.090  1.4596 -2.2836  0.3496
 2919TIP3    H230173   3.077   4.529   4.973 -0.4244  0.8878  2.6773
 2920TIP3   OH230174   4.923   1.499   4.695 -0.0823  0.0805 -0.1518
 2920TIP3    H130175   4.839   1.542   4.676  0.4082  1.6444  0.9749
 2920TIP3    H230176   4.989   1.563   4.667  0.7441 -0.9104 -0.5271
 2921TIP3   OH230177   2.177   5.526   2.937 -0.1024  0.4846 -0.3472
 2921TIP3    H130178   2.182   5.460   2.868  0.7182 -1.0652  1.0949
 2921TIP3    H230179   2.140   5.603   2.895 -2.1915 -1.2324 -1.8815
 2922TIP3   OH230180   2.982   5.308  12.247  0.4565 -0.0594 -0.1229
 2922TIP3    H130181   3.042   5.378  12.219 -0.6184  1.3113  0.8593
 2922TIP3    H230182   2.914   5.308  12.180  0.2263  0.1539  0.1075
 2923TIP3   OH230183   5.757   2.054  11.392 -0.1210 -0.0882 -0.1509
 2923TIP3    H130184   5.668   2.084  11.372  0.2910  1.2163 -0.1306
 2923TIP3    H230185   5.811   2.092  11.323  0.2061 -2.3813 -1.2304
 2924TIP3   OH230186   1.162   4.898  17.304 -0.1615  0.7644 -0.2477
 2924TIP3    H130187   1.082   4.902  17.252  0.4595  2.1050 -1.1572
 2924TIP3    H230188   1.164   4.982  17.350  0.9052  0.9101 -0.5372
 2925TIP3   OH230189   4.590   4.124  12.491 -0.2873  0.1328 -0.0416
 2925TIP3    H130190   4.645   4.069  12.435  1.2195  0.5033  1.0044
 2925TIP3    H230191   4.508   4.076  12.498  0.1211 -0.7780 -1.1120
 2926TIP3   OH230192   5.200   1.622   5.762  0.1500 -0.1746 -0.6623
 2926TIP3    H130193   5.268   1.614   5.830  0.8299 -2.4912 -1.5163
 2926TIP3    H230194   5.205   1.713   5.734  2.2114 -0.0126  0.0424
 2927TIP3   OH230195   6.121   5.748   5.671  0.2434  0.0593 -0.5380
 2927TIP3    H130196   6.184   5.687   5.707  1.1166  0.6405 -1.0556
 2927TIP3    H230197   6.072   5.780   5.747  0.5816 -0.3791 -0.1335
 2928TIP3   OH230198   3.275   2.359   4.025  0.5007  0.7615  0.4082
 2928TIP3    H130199   3.228   2.442   4.037 -1.3931 -0.0905 -0.5902
 2928TIP3    H230200   3.316   2.368   3.939 -0.3715  0.3852 -0.0570
 2929TIP3   OH230201   2.908   0.365  12.825 -0.0916 -0.7745 -0.3345
 2929TIP3    H130202   2.974   0.298  12.846  1.0099 -0.2988 -2.0625
 2929TIP3    H230203   2.941   0.445  12.866  0.1816 -0.6414 -0.8039
 2930TIP3   OH230204   0.450   6.181  13.200  0.1547 -0.2231  0.8027
 2930TIP3    H130205   0.398   6.135  13.135  0.3952 -1.8123  1.6923
 2930TIP3    H230206   0.541   6.166  13.174  0.2432 -0.5815  1.3053
 2931TIP3   OH230207   5.257   0.420  16.544 -0.4452 -0.2962 -0.0401
 2931TIP3    H130208   5.349   0.445  16.544 -0.7504  0.9118 -0.5240
 2931TIP3    H230209   5.256   0.328  16.519  0.7093 -0.7081  1.2892
 2932TIP3   OH230210   3.646   6.011  13.093  0.0644  0.1677  0.2636
 2932TIP3    H130211   3.656   6.058  13.010  1.3018  0.5778  0.6237
 2932TIP3    H230212   3.592   6.069  13.147  0.7346  0.7293  0.3483
 2933TIP3   OH230213   3.044   2.861   1.331 -0.0167 -0.1699  0.1994
 2933TIP3    H130214   3.114   2.835   1.272  1.0790  0.6266  1.0850
 2933TIP3    H230215   3.007   2.779   1.363 -0.9621 -0.6226 -1.9110
 2934TIP3   OH230216   0.596   3.596  15.109  0.2474  0.4178  0.3533
 2934TIP3    H130217   0.626   3.510  15.080  0.5291  0.9540 -1.0367
 2934TIP3    H230218   0.530   3.621  15.044  0.8484  1.6499  0.1892
 2935TIP3   OH230219   4.182   0.342   5.069  0.0647 -0.5365  0.3641
 2935TIP3    H130220   4.171   0.249   5.088  2.7249 -0.5043  2.8811
 2935TIP3    H230221   4.277   0.354   5.067 -0.1969  2.1768  0.4599
 2936TIP3   OH230222   2.536   2.734  12.585 -0.3563  0.3290 -0.0729
 2936TIP3    H130223   2.448   2.723  12.549 -0.4811  3.1089 -0.8742
 2936TIP3    H230224   2.532   2.817  12.633  1.9697  0.8766 -0.6902
 2937TIP3   OH230225   1.399   0.244   1.999 -0.0086 -0.0164 -0.2520
 2937TIP3    H130226   1.476   0.226   2.053 -0.0886  2.9007  1.0268
 2937TIP3    H230227   1.341   0.294   2.056 -1.6638  0.2121 -2.0333
 2938TIP3   OH230228   2.597   6.600   6.257 -0.1465 -0.2859 -0.0500
 2938TIP3    H130229   2.504   6.610   6.274 -0.2907 -4.0902  2.4549
 2938TIP3    H230230   2.640   6.618   6.340  1.1187 -0.9227 -0.5265
 2939TIP3   OH230231   4.968   6.489   1.962 -0.0321 -0.3043 -0.9449
 2939TIP3    H130232   5.055   6.524   1.946  0.2209 -1.3007 -1.8862
 2939TIP3    H230233   4.983   6.401   1.998 -0.6509  0.1453  0.4699
 2940TIP3   OH230234   1.547   6.543   5.877 -0.3968 -0.2449 -0.0914
 2940TIP3    H130235   1.459   6.527   5.842 -1.0238  0.7221  0.9818
 2940TIP3    H230236   1.597   6.465   5.854 -1.5082 -0.7682 -0.7964
 2941TIP3   OH230237   1.542   4.919  16.235  0.8224  0.2184  0.1616
 2941TIP3    H130238   1.511   4.993  16.184  0.3675  1.0052  1.5253
 2941TIP3    H230239   1.598   4.958  16.303  1.0581 -0.7380  0.5357
 2942TIP3   OH230240   6.300   3.418  13.370 -1.3285 -0.1436 -0.1875
 2942TIP3    H130241   6.329   3.471  13.295 -0.7208 -0.7258 -0.3724
 2942TIP3    H230242   6.372   3.357  13.385 -1.9505 -0.8026  0.1445
 2943TIP3   OH230243   5.409   2.063  11.978 -0.1649  0.2864 -0.3859
 2943TIP3    H130244   5.442   2.153  11.978 -1.9951  1.0173  0.3467
 2943TIP3    H230245   5.354   2.058  11.900 -0.2711 -0.1096 -0.2833
 2944TIP3   OH230246   0.231   5.426   5.225  0.5802  0.2134 -0.2502
 2944TIP3    H130247   0.276   5.439   5.141  1.1755  3.5025  0.4105
 2944TIP3    H230248   0.288   5.368   5.274  1.3378 -0.0089 -1.3432
 2945TIP3   OH230249   5.274   2.700  16.122 -0.2221 -1.0387 -0.1833
 2945TIP3    H130250   5.310   2.612  16.135  0.1989 -1.1780 -2.0038
 2945TIP3    H230251   5.351   2.757  16.122 -0.4704 -0.6825  0.7104
 2946TIP3   OH230252   2.434   1.497   0.236 -0.0907  0.1839  0.2319
 2946TIP3    H130253   2.425   1.483   0.142  1.0987  3.0269 -0.4140
 2946TIP3    H230254   2.345   1.485   0.271 -0.9135  0.7512 -1.5414
 2947TIP3   OH230255   1.296   6.713  14.334  0.2956 -0.1834 -0.3523
 2947TIP3    H130256   1.234   6.649  14.299  1.5088 -0.8572 -1.3763
 2947TIP3    H230257   1.331   6.672  14.413  0.6057 -0.5328 -0.6637
 2948TIP3   OH230258   1.094   3.907  13.806  0.0417 -0.0931 -0.3191
 2948TIP3    H130259   1.055   3.995  13.804 -2.1103 -0.9727  0.2792
 2948TIP3    H230260   1.129   3.895  13.718  0.7701  1.5012 -0.2951
 2949TIP3   OH230261   6.113   5.932  12.440  0.5693 -0.2539 -0.2263
 2949TIP3    H130262   6.205   5.915  12.460  0.1214 -0.8377  1.4329
 2949TIP3    H230263   6.090   6.008  12.493 -0.0323 -0.3992 -0.2660
 2950TIP3   OH230264   5.440   5.366   4.605 -0.1729  0.7462 -0.6733
 2950TIP3    H130265   5.347   5.356   4.629  0.1779  0.6789  0.7498
 2950TIP3    H230266   5.455   5.297   4.541 -0.1884 -1.9044  1.9371
 2951TIP3   OH230267   5.652   4.851   1.817  0.0962  0.8705  0.0858
 2951TIP3    H130268   5.701   4.769   1.827  0.0085  0.5615 -1.6765
 2951TIP3    H230269   5.706   4.917   1.861  0.5551  0.0126  0.8494
 2952TIP3   OH230270   3.242   6.041  16.917  0.0097 -0.1920  0.1050
 2952TIP3    H130271   3.193   6.032  16.836  0.5041 -1.3204 -0.0892
 2952TIP3    H230272   3.250   5.952  16.951 -0.4334  0.2845  1.5521
 2953TIP3   OH230273   2.932   6.358  15.233 -0.0256 -0.0905 -0.3089
 2953TIP3    H130274   2.968   6.337  15.146  1.7310 -1.0458  0.5977
 2953TIP3    H230275   2.846   6.316  15.233 -0.0092 -0.1844 -1.5322
 2954TIP3   OH230276   1.601   2.843  12.083 -0.4621 -0.0515  0.1419
 2954TIP3    H130277   1.570   2.833  11.993  1.4356 -0.0933 -0.5562
 2954TIP3    H230278   1.580   2.934  12.107 -1.3950 -0.1814 -0.1452
 2955TIP3   OH230279   2.574   0.915  11.189  0.2727 -0.2102 -0.4419
 2955TIP3    H130280   2.500   0.866  11.225 -1.2708  2.3420  0.1136
 2955TIP3    H230281   2.651   0.876  11.231 -0.9802 -1.1971  1.0649
 2956TIP3   OH230282   4.615   1.529  13.827 -0.0720  0.5512 -0.2622
 2956TIP3    H130283   4.667   1.452  13.805 -1.1795 -0.4144  0.4006
 2956TIP3    H230284   4.679   1.601  13.831  1.0379 -0.3968 -0.4808
 2957TIP3   OH230285   1.959   1.876   1.216 -0.2895 -0.5668 -0.0143
 2957TIP3    H130286   2.014   1.860   1.293  1.7438 -1.2813 -1.5336
 2957TIP3    H230287   1.984   1.807   1.154 -1.0850  0.6240 -1.7290
 2958TIP3   OH230288   2.328   5.555  14.769  0.1157  0.1350  0.5262
 2958TIP3    H130289   2.406   5.501  14.762  0.4076  0.6315 -0.1000
 2958TIP3    H230290   2.303   5.574  14.679 -0.8349 -0.1645  0.7150
 2959TIP3   OH230291   2.047   2.253   5.084 -0.0025 -0.0826 -0.2153
 2959TIP3    H130292   2.107   2.327   5.072  0.4435 -0.6169 -1.3700
 2959TIP3    H230293   2.096   2.191   5.138  2.0149 -2.1000 -3.9898
 2960TIP3   OH230294   0.274   0.229  17.128 -0.3058  0.4151  0.0015
 2960TIP3    H130295   0.249   0.226  17.220  1.1311  0.4937  0.4183
 2960TIP3    H230296   0.252   0.319  17.100  1.1670  1.0806  0.8709
 2961TIP3   OH230297   5.783   6.516  12.410 -0.0530 -0.1528  0.0315
 2961TIP3    H130298   5.733   6.491  12.332 -0.0740  0.8195 -0.2818
 2961TIP3    H230299   5.720   6.510  12.482 -0.3913  0.2399 -0.2298
 2962TIP3   OH230300   2.292   3.750   4.876  0.5514  0.2112 -0.1503
 2962TIP3    H130301   2.301   3.835   4.832 -1.0591 -0.3114 -1.6059
 2962TIP3    H230302   2.364   3.748   4.939 -0.4059  3.4322  1.2739
 2963TIP3   OH230303   1.615   3.813   2.447 -0.1462  0.3122  0.2403
 2963TIP3    H130304   1.697   3.813   2.397  0.0500  2.4046  0.4944
 2963TIP3    H230305   1.548   3.788   2.383  0.3253  1.3244 -0.6839
 2964TIP3   OH230306   0.705   6.207   0.507 -0.3844 -0.2711  0.1928
 2964TIP3    H130307   0.675   6.118   0.489  2.3421 -1.0148 -1.2811
 2964TIP3    H230308   0.797   6.197   0.529  0.0548  2.2015 -0.2500
 2965TIP3   OH230309   0.364   2.704   3.734  0.3014 -0.0176  0.7439
 2965TIP3    H130310   0.361   2.610   3.715 -0.5082  0.0726  0.3977
 2965TIP3    H230311   0.306   2.715   3.810 -2.2131  0.6185 -1.1261
 2966TIP3   OH230312   5.585   6.031  14.279 -0.1224  0.2012  0.1423
 2966TIP3    H130313   5.650   6.090  14.317  1.2276 -0.7134 -0.6285
 2966TIP3    H230314   5.566   5.968  14.349 -2.2312  1.9762  1.2674
 2967TIP3   OH230315   1.384   2.162  12.693  0.1324 -0.4988 -0.0528
 2967TIP3    H130316   1.293   2.150  12.663  0.0471 -0.5570  0.2230
 2967TIP3    H230317   1.437   2.122  12.625  0.0556  1.1938 -1.1454
 2968TIP3   OH230318   3.100   0.057   2.455  0.2531  0.1639 -0.3654
 2968TIP3    H130319   3.069   0.028   2.369 -2.9867 -0.5836  0.9087
 2968TIP3    H230320   3.118   0.150   2.444  1.7252 -0.2690 -2.2441
 2969TIP3   OH230321   0.918   4.469  11.585 -0.3960 -0.1545 -0.7856
 2969TIP3    H130322   0.863   4.536  11.545 -0.7780 -0.1028 -0.1886
 2969TIP3    H230323   0.938   4.502  11.673 -2.0181 -1.5523  0.1826
 2970TIP3   OH230324   0.410   2.412   0.237  0.1809 -0.2076  0.3015
 2970TIP3    H130325   0.342   2.378   0.296 -1.8331  1.2355 -1.0486
 2970TIP3    H230326   0.405   2.356   0.160 -0.3046  0.5819 -0.2590
 2971TIP3   OH230327   2.036   3.879   0.013 -0.8762  0.2093  0.5431
 2971TIP3    H130328   2.062   3.795   0.051 -1.2523  0.0231  0.3957
 2971TIP3    H230329   2.051   3.869  -0.081  1.3705  1.1441  0.7452
 2972TIP3   OH230330   4.553   1.427  13.345 -0.1353 -0.3396  0.0844
 2972TIP3    H130331   4.490   1.439  13.274  1.8836  1.1856 -1.5918
 2972TIP3    H230332   4.598   1.346  13.324  0.1689 -0.1126 -0.1459
 2973TIP3   OH230333   5.430   2.224  12.320 -0.3397  0.0694 -0.2976
 2973TIP3    H130334   5.352   2.252  12.273 -0.8616 -1.0424 -0.1343
 2973TIP3    H230335   5.435   2.130  12.305  2.3789  0.4034 -2.3614
 2974TIP3   OH230336   2.218   1.741  14.834 -0.7292  0.5014  0.1868
 2974TIP3    H130337   2.143   1.767  14.886  0.7113  1.7482  1.7323
 2974TIP3    H230338   2.243   1.655  14.868 -0.7089  0.6374  0.5115
 2975TIP3   OH230339   0.818   0.347  15.036  0.0915  0.0679 -0.4768
 2975TIP3    H130340   0.894   0.388  14.995  0.0985  0.4621 -0.0748
 2975TIP3    H230341   0.796   0.273  14.979  0.6669  0.0601 -0.6853
 2976TIP3   OH230342   6.451   4.655  13.085 -0.2829  0.1809 -0.1420
 2976TIP3    H130343   6.383   4.619  13.027 -0.0965 -2.4747  1.1404
 2976TIP3    H230344   6.528   4.601  13.067  0.7947  1.5513  0.1993
 2977TIP3   OH230345   4.627   4.975   6.197 -0.0810  0.3762  0.4601
 2977TIP3    H130346   4.554   5.023   6.235  0.3635  0.0089  1.8335
 2977TIP3    H230347   4.665   4.927   6.270  1.3159  0.2716 -0.2937
 2978TIP3   OH230348   1.639   2.323   4.605  0.7803  0.1920 -0.2014
 2978TIP3    H130349   1.585   2.344   4.681 -0.7674  0.7360 -1.3938
 2978TIP3    H230350   1.714   2.383   4.612 -0.0873  1.2735  0.1359
 2979TIP3   OH230351   6.282   0.666   4.772 -0.6593  0.1079  0.0404
 2979TIP3    H130352   6.212   0.728   4.794 -0.7195 -0.0218  0.2146
 2979TIP3    H230353   6.345   0.674   4.844  0.2145  1.2646 -0.8177
 2980TIP3   OH230354   6.094   0.797   0.457 -0.1008 -0.0241  0.4716
 2980TIP3    H130355   6.068   0.734   0.389  1.7241 -1.3747  0.9539
 2980TIP3    H230356   6.052   0.764   0.537  1.0465 -0.8061  0.7708
 2981TIP3   OH230357   5.711   3.089   2.930  0.1968 -0.0413  0.1774
 2981TIP3    H130358   5.694   3.086   3.024 -1.3124  0.8881 -0.0333
 2981TIP3    H230359   5.805   3.106   2.923  0.7451 -2.1543  1.4680
 2982TIP3   OH230360   2.863   3.764  13.435 -0.0412 -0.3735 -0.7317
 2982TIP3    H130361   2.807   3.840  13.450  3.8911  2.2458  2.8188
 2982TIP3    H230362   2.832   3.698  13.497 -0.5618  0.1417 -0.4423
 2983TIP3   OH230363   5.404   1.179   3.275  0.1721  0.1741 -0.4040
 2983TIP3    H130364   5.359   1.264   3.275  0.7488  0.5010 -1.8566
 2983TIP3    H230365   5.333   1.114   3.273 -0.3108  0.6800 -2.4715
 2984TIP3   OH230366   4.037   0.946  16.634 -0.3355 -0.2746  0.1338
 2984TIP3    H130367   4.086   0.904  16.564 -0.7956 -2.1709  0.8785
 2984TIP3    H230368   3.970   0.882  16.658 -1.4269  1.1242  0.9994
 2985TIP3   OH230369   1.616   3.330  15.806  0.1731 -0.4060 -0.2431
 2985TIP3    H130370   1.648   3.415  15.836  0.9504 -0.6685 -0.3059
 2985TIP3    H230371   1.612   3.338  15.711 -0.8595 -0.0653 -0.1770
 2986TIP3   OH230372   4.648   0.489  16.761  0.1106 -0.0666  0.2630
 2986TIP3    H130373   4.560   0.478  16.796  1.0720  1.3346  3.5059
 2986TIP3    H230374   4.697   0.413  16.795  0.7911  0.6651  0.9513
 2987TIP3   OH230375   3.087   1.995   2.184 -0.5434  0.2696  0.0208
 2987TIP3    H130376   3.067   1.951   2.267 -0.0258  0.7899  0.4274
 2987TIP3    H230377   3.002   2.003   2.140 -0.4946 -2.2612 -0.6519
 2988TIP3   OH230378   5.343   3.816  11.950 -0.2271 -0.4819  0.2433
 2988TIP3    H130379   5.313   3.851  11.866  0.0591 -1.5937 -0.3402
 2988TIP3    H230380   5.438   3.834  11.950  0.2209 -2.5670 -0.7649
 2989TIP3   OH230381   4.444   5.625  13.441 -0.2175  0.2196  0.2029
 2989TIP3    H130382   4.390   5.699  13.414  0.1424  0.0105 -1.1657
 2989TIP3    H230383   4.390   5.578  13.504 -1.2100  0.5947 -0.3412
 2990TIP3   OH230384   0.156   4.631   3.206 -0.0454 -0.1121  0.4233
 2990TIP3    H130385   0.108   4.658   3.285  0.5753 -0.4648  0.9353
 2990TIP3    H230386   0.133   4.539   3.195 -1.6921  0.4232 -0.9776
 2991TIP3   OH230387   6.353   1.570  15.449 -0.1216 -0.0601  0.1709
 2991TIP3    H130388   6.361   1.575  15.354  2.7710  1.1278  0.3710
 2991TIP3    H230389   6.285   1.504  15.464  0.4507 -1.4603 -2.6998
 2992TIP3   OH230390   0.011   2.696  12.310  0.5080 -0.2631  0.5337
 2992TIP3    H130391  -0.003   2.766  12.374 -1.5000 -1.6548  1.7160
 2992TIP3    H230392  -0.066   2.700  12.253  2.9779  2.0580 -3.1244
 2993TIP3   OH230393   4.313   2.149   2.469 -0.2830 -0.3779  0.0829
 2993TIP3    H130394   4.308   2.064   2.425 -5.2578 -0.3214 -0.0880
 2993TIP3    H230395   4.331   2.211   2.399 -2.3935 -0.8617 -0.9745
 2994TIP3   OH230396   5.729   4.673  15.290  0.1970 -0.1891  0.0334
 2994TIP3    H130397   5.746   4.579  15.277 -0.6218 -0.3004 -0.3054
 2994TIP3    H230398   5.650   4.690  15.239 -1.1963  0.1106  2.1310
 2995TIP3   OH230399   4.006   5.687   4.440  0.2066  0.0902  0.1295
 2995TIP3    H130400   4.069   5.632   4.394 -1.2596 -1.6207  0.0437
 2995TIP3    H230401   3.982   5.637   4.518 -0.5037  1.0166  0.5234
 2996TIP3   OH230402   6.734   1.900   6.177 -0.3541  0.0786 -0.2225
 2996TIP3    H130403   6.729   1.965   6.247 -0.9102 -0.8525  0.6039
 2996TIP3    H230404   6.803   1.934   6.119  0.5416  0.5564  1.0807
 2997TIP3   OH230405   2.253   5.132   5.062 -0.3279 -0.1917 -0.0203
 2997TIP3    H130406   2.244   5.086   5.145  1.3009 -2.2153 -0.8950
 2997TIP3    H230407   2.253   5.063   4.995  0.0966  1.2357 -1.5762
 2998TIP3   OH230408   2.853   1.617  11.468 -0.3263 -0.1609 -0.4272
 2998TIP3    H130409   2.924   1.554  11.455  0.5671  0.5355  0.8643
 2998TIP3    H230410   2.798   1.578  11.536 -0.8251 -0.3981 -0.9608
 2999TIP3   OH230411   3.264   2.469  15.602  0.3436 -0.5477  0.2498
 2999TIP3    H130412   3.344   2.484  15.653 -0.0219  0.8224  0.4537
 2999TIP3    H230413   3.262   2.541  15.539 -1.3024  0.1324  1.0093
 3000TIP3   OH230414   2.800   0.461  11.423 -0.0476 -0.1605 -0.5099
 3000TIP3    H130415   2.785   0.455  11.329 -1.6958 -1.2995 -0.2070
 3000TIP3    H230416   2.887   0.422  11.436 -0.5893 -1.7446 -1.3703
 3001TIP3   OH230417   6.252   3.554   0.127 -0.5778 -0.4746  0.2767
 3001TIP3    H130418   6.320   3.621   0.138 -0.1478 -0.7005 -0.8544
 3001TIP3    H230419   6.208   3.551   0.212 -0.8828  1.5402  0.2596
 3002TIP3   OH230420   1.339   4.753  13.872 -0.1166 -0.2055  1.0365
 3002TIP3    H130421   1.346   4.799  13.956  0.1833 -0.3962  1.1156
 3002TIP3    H230422   1.390   4.807  13.811 -0.3244 -0.0738  0.9786
 3003TIP3   OH230423   3.261   1.856  11.838  0.3316 -0.0420 -0.0597
 3003TIP3    H130424   3.259   1.892  11.750  0.7233  0.4320  0.1187
 3003TIP3    H230425   3.196   1.785  11.837  1.9312 -1.5741 -1.3819
 3004TIP3   OH230426   3.803   1.578   4.881 -0.2495 -0.3805 -0.4510
 3004TIP3    H130427   3.847   1.653   4.840 -2.0321  0.5273 -0.8056
 3004TIP3    H230428   3.717   1.575   4.839 -0.4299 -2.3103 -0.0345
 3005TIP3   OH230429   1.475   3.356   4.673  0.0266 -0.3017 -0.2080
 3005TIP3    H130430   1.564   3.389   4.686  0.0805 -0.3403 -0.4760
 3005TIP3    H230431   1.444   3.401   4.594  0.5621 -1.8625 -1.3392
 3006TIP3   OH230432   1.116   3.631  16.042  0.1953  0.5455 -0.4198
 3006TIP3    H130433   1.021   3.633  16.056  0.0701 -0.5153 -1.0101
 3006TIP3    H230434   1.143   3.722  16.047 -0.6593  0.7434  1.0289
 3007TIP3   OH230435   5.312   1.285  15.062 -0.0510  0.1381  0.1143
 3007TIP3    H130436   5.319   1.365  15.010  1.2912  0.1408  0.2629
 3007TIP3    H230437   5.402   1.255  15.072 -0.5016 -1.1877  0.3917
 3008TIP3   OH230438   2.153   3.602  14.617 -0.2153  0.0113 -0.2468
 3008TIP3    H130439   2.149   3.529  14.679 -0.7277 -1.1305 -1.5765
 3008TIP3    H230440   2.204   3.568  14.543  0.9527  1.5623 -0.2108
 3009TIP3   OH230441   6.007   4.022   5.078  0.2102  0.3888  0.5939
 3009TIP3    H130442   5.917   4.053   5.067 -0.2771 -0.8966  0.7389
 3009TIP3    H230443   6.044   4.022   4.989  0.0709  0.9173  0.5350
 3010TIP3   OH230444   5.588   6.296   1.716  0.0998 -0.2492  0.1733
 3010TIP3    H130445   5.600   6.201   1.728 -0.0848 -0.0858  1.9537
 3010TIP3    H230446   5.544   6.324   1.796  0.7191  1.4536 -0.0540
 3011TIP3   OH230447   2.674   2.104   3.557  0.2410  0.2233  0.7950
 3011TIP3    H130448   2.666   2.161   3.480 -0.7465 -2.2376 -1.0786
 3011TIP3    H230449   2.762   2.120   3.589  1.1419  0.5590 -1.6073
 3012TIP3   OH230450   1.579   4.243   5.506 -0.9242 -0.0758 -0.5803
 3012TIP3    H130451   1.523   4.167   5.487 -0.1178 -0.6728 -0.6120
 3012TIP3    H230452   1.664   4.205   5.527 -0.1230  0.8894 -1.9723
 3013TIP3   OH230453   1.390   0.735  14.707  0.1923 -0.1138 -0.3160
 3013TIP3    H130454   1.294   0.739  14.707  0.2065  0.6237  0.9369
 3013TIP3    H230455   1.416   0.781  14.786  1.5883 -0.5425 -0.5025
 3014TIP3   OH230456   4.427   0.134   4.031 -0.2915 -0.3613 -0.1116
 3014TIP3    H130457   4.451   0.141   3.939 -0.2136 -1.5157 -0.1839
 3014TIP3    H230458   4.509   0.152   4.078 -0.2033 -0.3413 -0.2710
 3015TIP3   OH230459   1.844   2.535   0.714  0.4009 -0.2307 -0.3978
 3015TIP3    H130460   1.846   2.562   0.623 -1.1238 -0.6708 -0.5981
 3015TIP3    H230461   1.879   2.446   0.713  2.3937  0.4944 -0.2022
 3016TIP3   OH230462   0.314   3.127   3.622 -0.1111  0.7325  0.2686
 3016TIP3    H130463   0.361   3.051   3.587  0.3647  0.3019  1.7696
 3016TIP3    H230464   0.382   3.179   3.665 -0.4169  2.0815 -0.8057
 3017TIP3   OH230465   1.457   5.626  13.553  0.1065 -0.1424 -0.3635
 3017TIP3    H130466   1.373   5.641  13.597 -0.8965 -3.8248 -0.6609
 3017TIP3    H230467   1.457   5.686  13.479 -2.8335 -0.8240 -1.0041
 3018TIP3   OH230468   4.994   1.578   6.096 -0.1614  0.1501 -0.0706
 3018TIP3    H130469   5.059   1.508   6.108 -0.5904 -0.3950 -0.8239
 3018TIP3    H230470   5.020   1.646   6.158  0.2857 -0.6637  0.6589
 3019TIP3   OH230471   1.887   0.130   1.909  0.2080  0.4485  0.4033
 3019TIP3    H130472   1.867   0.046   1.951  1.0641 -0.2786 -0.5744
 3019TIP3    H230473   1.825   0.135   1.836  0.5712  0.3476  0.0821
 3020TIP3   OH230474   2.269   0.779   0.970  0.0305  0.0097  0.0489
 3020TIP3    H130475   2.258   0.839   0.897  1.9967  0.5281  0.1290
 3020TIP3    H230476   2.349   0.730   0.950  0.6265  0.1748  1.8214
 3021TIP3   OH230477   4.566   2.323  12.654  0.6740 -0.1102  0.0682
 3021TIP3    H130478   4.512   2.269  12.712 -1.1412 -0.6494 -1.9685
 3021TIP3    H230479   4.510   2.399  12.633  0.8411 -0.4340 -1.7157
 3022TIP3   OH230480   4.927   4.886   3.962  0.0232  0.5405 -0.9666
 3022TIP3    H130481   4.932   4.935   4.045 -0.6608  2.9005 -2.2138
 3022TIP3    H230482   4.909   4.796   3.988  1.0811  0.9628  1.4819
 3023TIP3   OH230483   6.720   0.320  12.529  0.1342 -0.2006  0.1464
 3023TIP3    H130484   6.648   0.344  12.470  1.6160 -1.3095 -2.2611
 3023TIP3    H230485   6.764   0.403  12.549 -1.2649  0.3742  0.9678
 3024TIP3   OH230486   1.593   5.632  11.404 -0.0915  0.3612 -0.1674
 3024TIP3    H130487   1.661   5.699  11.406  0.5387 -0.2844  0.8754
 3024TIP3    H230488   1.512   5.680  11.383  0.5140  1.2813 -0.4272
 3025TIP3   OH230489   2.227   3.695   5.457 -0.2410  0.3044 -0.1468
 3025TIP3    H130490   2.134   3.714   5.449 -0.1349  1.0725  0.2976
 3025TIP3    H230491   2.232   3.626   5.523 -0.4184  1.2056  0.8339
 3026TIP3   OH230492   3.140   3.326  12.542 -0.0195  0.5455  0.2675
 3026TIP3    H130493   3.049   3.301  12.532  0.1895 -0.4038  0.6623
 3026TIP3    H230494   3.177   3.319  12.454 -0.0121 -0.3475  0.3392
 3027TIP3   OH230495   4.203   3.307  15.349  0.4152 -0.1269 -0.3255
 3027TIP3    H130496   4.198   3.213  15.329 -0.0248  0.0717 -1.1959
 3027TIP3    H230497   4.297   3.324  15.361  0.3568 -1.0563  1.8272
 3028TIP3   OH230498   3.561   2.993   1.174 -0.1579  0.5215 -0.5280
 3028TIP3    H130499   3.493   2.926   1.174 -1.0011  1.2802 -3.0119
 3028TIP3    H230500   3.643   2.944   1.184 -0.8731 -0.6721 -0.3489
 3029TIP3   OH230501   4.161   4.261   1.062  0.6804  0.0970  0.4791
 3029TIP3    H130502   4.136   4.291   0.975  1.2897 -0.2420  0.1903
 3029TIP3    H230503   4.119   4.324   1.121  0.0715  0.1907 -0.0416
 3030TIP3   OH230504   4.303   0.306  14.240  0.3380  0.2405 -0.4287
 3030TIP3    H130505   4.282   0.357  14.161  0.2080 -0.3414 -0.7756
 3030TIP3    H230506   4.236   0.238  14.243  1.3820 -0.8566 -0.8351
 3031TIP3   OH230507   4.463   4.593   6.200  0.6221 -0.4627  0.4058
 3031TIP3    H130508   4.415   4.672   6.225 -0.9107 -1.1839 -0.1723
 3031TIP3    H230509   4.552   4.625   6.182 -0.0341  1.2041 -0.1336
 3032TIP3   OH230510   4.808   6.550  12.319 -0.4881  0.0822  0.4299
 3032TIP3    H130511   4.793   6.577  12.228  1.6286  1.4438  0.4181
 3032TIP3    H230512   4.874   6.481  12.312  0.8980  1.3046  0.9739
 3033TIP3   OH230513   3.669   5.065   0.461 -0.2159  0.6536 -0.4179
 3033TIP3    H130514   3.635   5.153   0.446 -1.5748  0.4318  1.0157
 3033TIP3    H230515   3.760   5.069   0.433  0.0508  2.8025  0.5331
 3034TIP3   OH230516   3.057   0.104   3.869 -0.1685  0.0046 -0.0313
 3034TIP3    H130517   3.035   0.165   3.798  0.8313  1.1453  0.5901
 3034TIP3    H230518   3.083   0.024   3.824  0.6640  0.7758 -0.9969
 3035TIP3   OH230519   2.199   1.111  15.865  0.0733 -0.7071  0.2785
 3035TIP3    H130520   2.266   1.140  15.803  0.6173 -1.1248  0.6554
 3035TIP3    H230521   2.136   1.183  15.868  0.7350 -0.1148  0.2475
 3036TIP3   OH230522   5.867   1.845   3.100 -0.5563  0.6779 -0.2054
 3036TIP3    H130523   5.952   1.802   3.110 -0.4438  0.6446 -1.1823
 3036TIP3    H230524   5.815   1.784   3.049 -0.3918  1.6702 -1.6242
 3037TIP3   OH230525   4.815   2.984   3.692 -0.3583  0.3038  0.7393
 3037TIP3    H130526   4.834   2.989   3.598 -0.0885 -0.0910  0.7694
 3037TIP3    H230527   4.900   2.985   3.734 -0.4477 -0.2161  0.9404
 3038TIP3   OH230528   2.446   2.845  11.746 -0.5308  0.0686  0.5745
 3038TIP3    H130529   2.397   2.897  11.809  0.9849  1.5256  0.6008
 3038TIP3    H230530   2.538   2.860  11.768 -0.0013 -2.3656  0.3632
 3039TIP3   OH230531   5.258   6.263  10.570 -0.5909 -0.1114 -0.2571
 3039TIP3    H130532   5.341   6.311  10.571  0.2525 -1.5056  0.7539
 3039TIP3    H230533   5.279   6.178  10.610 -2.2183 -0.9859 -1.1637
 3040TIP3   OH230534   4.752   3.829   2.203 -0.1592  0.3243  0.2305
 3040TIP3    H130535   4.738   3.862   2.291 -0.8915  1.9714 -0.4633
 3040TIP3    H230536   4.839   3.860   2.179 -0.1511  0.2862  0.2103
 3041TIP3   OH230537   5.938   0.662   1.269  0.5530 -0.2949 -0.3610
 3041TIP3    H130538   6.001   0.651   1.198 -0.9229 -2.0271 -1.5093
 3041TIP3    H230539   5.876   0.728   1.236  0.4590 -0.3315 -0.2588
 3042TIP3   OH230540   6.747   4.387  15.777 -0.0285  0.3122 -0.5421
 3042TIP3    H130541   6.826   4.364  15.729  0.5244  1.6701 -0.3294
 3042TIP3    H230542   6.777   4.443  15.848 -1.1655  0.7992 -0.4160
 3043TIP3   OH230543   2.884   1.669  16.378 -0.2460 -0.3666  0.2521
 3043TIP3    H130544   2.955   1.607  16.392 -0.8806 -0.7586  1.9259
 3043TIP3    H230545   2.899   1.738  16.443 -0.3634  0.5190 -0.6276
 3044TIP3   OH230546   3.331   5.493   1.778  0.2559 -0.3459 -0.6825
 3044TIP3    H130547   3.309   5.404   1.806  0.2082 -0.7796 -2.0177
 3044TIP3    H230548   3.426   5.494   1.770  0.1288 -0.9081 -2.5932
 3045TIP3   OH230549   1.915   2.738   5.568 -0.1968 -0.1475 -0.3359
 3045TIP3    H130550   1.854   2.735   5.642  0.2381 -0.3850  0.0206
 3045TIP3    H230551   1.860   2.759   5.492 -0.7415 -0.4901 -0.0439
 3046TIP3   OH230552   2.066   1.992  13.087  0.3502 -0.2195  0.2103
 3046TIP3    H130553   2.075   1.937  13.165 -1.4426  0.1639  0.7432
 3046TIP3    H230554   2.089   2.080  13.117  0.2165 -0.1667  0.1570
 3047TIP3   OH230555   0.984   0.386  15.851 -0.5371  0.3353  0.7885
 3047TIP3    H130556   0.997   0.303  15.805  2.0097  0.3017  1.4167
 3047TIP3    H230557   0.909   0.426  15.807  0.0669 -0.9137 -1.5571
 3048TIP3   OH230558   3.801   0.213  15.833  0.0423  0.4565  0.1411
 3048TIP3    H130559   3.866   0.203  15.903 -0.9470  0.1163  1.0509
 3048TIP3    H230560   3.852   0.213  15.752  1.0865 -0.8689  0.7600
 3049TIP3   OH230561   1.110   3.357  13.062  0.2259  0.5805 -0.3551
 3049TIP3    H130562   1.155   3.325  13.140  1.2735 -1.1415 -1.6067
 3049TIP3    H230563   1.018   3.332  13.075  0.1972  1.1868  0.7393
 3050TIP3   OH230564   5.819   0.134  11.770  0.0255 -0.1596  0.1834
 3050TIP3    H130565   5.813   0.044  11.737  0.5027 -0.1657  0.1034
 3050TIP3    H230566   5.771   0.186  11.705  1.9404 -0.0082 -1.2294
 3051TIP3   OH230567   4.792   3.903   1.853 -0.1186 -0.0279  0.7100
 3051TIP3    H130568   4.876   3.866   1.829 -0.5958 -1.9596  1.8306
 3051TIP3    H230569   4.727   3.846   1.810 -0.8648  0.0651  1.6681
 3052TIP3   OH230570   0.309   5.222   1.142  0.5701  0.0067 -0.0522
 3052TIP3    H130571   0.228   5.239   1.095  0.5918 -2.0034 -0.9078
 3052TIP3    H230572   0.282   5.203   1.232  0.1017 -0.3445 -0.2639
 3053TIP3   OH230573   4.534   5.084   0.566  0.1631  0.5291  0.3638
 3053TIP3    H130574   4.501   5.001   0.600  0.1357 -0.1023 -1.1433
 3053TIP3    H230575   4.625   5.066   0.543 -0.6775 -0.0743 -2.9450
 3054TIP3   OH230576   6.413   4.250  15.936  0.2007  0.0024 -0.0755
 3054TIP3    H130577   6.418   4.159  15.905  0.2037  0.3719 -1.2128
 3054TIP3    H230578   6.412   4.302  15.856  0.5547  1.0300  0.5727
 3055TIP3   OH230579   5.345   3.182   1.033  0.2165  0.3266 -1.1995
 3055TIP3    H130580   5.296   3.257   0.999 -0.3043 -0.0687 -1.3380
 3055TIP3    H230581   5.289   3.145   1.101  1.2483  1.1024  0.1180
 3056TIP3   OH230582   5.647   2.270  14.651 -0.3399 -0.1209 -0.5075
 3056TIP3    H130583   5.702   2.324  14.595  0.5088 -0.1873  0.2267
 3056TIP3    H230584   5.610   2.203  14.593  0.9850 -0.5458 -0.8819
 3057TIP3   OH230585   1.048   1.234  11.946 -0.6283 -0.4758 -0.2717
 3057TIP3    H130586   1.018   1.312  11.993  0.4656  0.4517 -1.0541
 3057TIP3    H230587   0.997   1.162  11.983 -0.7697  0.4197  1.3503
 3058TIP3   OH230588   3.840   0.525   0.995 -0.1984  0.0562 -0.0296
 3058TIP3    H130589   3.800   0.446   0.958 -1.7797 -0.1452  1.9202
 3058TIP3    H230590   3.772   0.592   0.986 -0.7236 -0.0487  2.5322
 3059TIP3   OH230591   2.754   4.374  15.833  0.1401 -0.0065 -0.1744
 3059TIP3    H130592   2.724   4.454  15.791  0.0051  0.9967  1.7185
 3059TIP3    H230593   2.779   4.401  15.922 -0.1895 -2.1028  0.6177
 3060TIP3   OH230594   4.704   3.273   1.506  0.9127  0.2297  0.2505
 3060TIP3    H130595   4.768   3.342   1.489  0.0719  0.8230 -0.6465
 3060TIP3    H230596   4.753   3.191   1.494  1.6337  0.6660  0.1641
 3061TIP3   OH230597   4.322   2.439   4.507  0.3193 -0.1780  0.5892
 3061TIP3    H130598   4.231   2.418   4.528 -0.2626  1.0007 -0.5986
 3061TIP3    H230599   4.346   2.377   4.438 -0.2616  0.7250 -0.4705
 3062TIP3   OH230600   5.928   0.226   3.882 -0.3266  0.6658  0.4244
 3062TIP3    H130601   5.932   0.139   3.921 -0.0616  0.5127  0.0611
 3062TIP3    H230602   6.008   0.232   3.829 -0.6553  0.8922 -0.0445
 3063TIP3   OH230603   0.646   4.341   4.803  0.1544  0.1386  0.3751
 3063TIP3    H130604   0.560   4.365   4.837  0.9480  2.1441  1.1066
 3063TIP3    H230605   0.702   4.336   4.880  1.1757  1.0979 -0.2772
 3064TIP3   OH230606   3.130   3.126  16.274  0.4221  0.0272 -0.1722
 3064TIP3    H130607   3.175   3.199  16.231  0.0082  0.3980  0.0183
 3064TIP3    H230608   3.168   3.123  16.362 -0.3364  0.7221  0.1884
 3065TIP3   OH230609   4.450   0.426  11.468 -0.2306 -0.3985 -0.4369
 3065TIP3    H130610   4.390   0.379  11.525 -2.3888  0.9834 -1.4368
 3065TIP3    H230611   4.452   0.515  11.502  0.6989 -0.2377 -0.8629
 3066TIP3   OH230612   5.721   4.060  15.445  0.1165 -0.1260  0.0945
 3066TIP3    H130613   5.694   4.045  15.354 -1.8787 -1.3426  0.8104
 3066TIP3    H230614   5.742   3.974  15.479 -0.8939  0.0426  1.2536
 3067TIP3   OH230615   3.360   4.050   2.728  0.2180  0.7106  0.2809
 3067TIP3    H130616   3.310   3.969   2.719  0.7750  0.5661 -2.2143
 3067TIP3    H230617   3.370   4.082   2.639  1.9918  2.3409  0.9913
 3068TIP3   OH230618   3.457   2.419   5.789  0.1088  0.0702 -0.6356
 3068TIP3    H130619   3.398   2.352   5.754 -0.6722  1.2451 -1.6611
 3068TIP3    H230620   3.402   2.470   5.849  0.6161 -0.0256 -0.0827
 3069TIP3   OH230621   3.735   6.467  13.574  0.7540  0.3843 -0.2917
 3069TIP3    H130622   3.775   6.531  13.515 -0.7519  0.6681 -1.0629
 3069TIP3    H230623   3.731   6.386  13.522 -0.1817  0.5185 -0.4446
 3070TIP3   OH230624   2.598   6.334   2.474 -0.0368 -0.1120 -0.1211
 3070TIP3    H130625   2.530   6.315   2.539 -1.4765  0.3530 -1.4197
 3070TIP3    H230626   2.594   6.260   2.413  2.1650 -1.1840  0.9322
 3071TIP3   OH230627   0.321   2.294   2.445  0.5210  0.0476 -0.0250
 3071TIP3    H130628   0.247   2.235   2.452 -0.3524  1.2435  1.4748
 3071TIP3    H230629   0.283   2.382   2.450  1.8530  0.7520 -1.2474
 3072TIP3   OH230630   6.073   6.126   0.992 -0.2362  0.1004 -0.3895
 3072TIP3    H130631   6.017   6.141   0.916  1.2103  1.4575 -1.2313
 3072TIP3    H230632   6.104   6.212   1.017 -1.0252 -0.2513  2.0840
 3073TIP3   OH230633   0.765   0.880   3.200 -0.1221 -0.5365  0.1394
 3073TIP3    H130634   0.676   0.899   3.231  0.2896  0.8280  0.5584
 3073TIP3    H230635   0.766   0.912   3.110  0.0159 -0.3169  0.2184
 3074TIP3   OH230636   1.688   1.693  12.540  0.1336  0.0446 -0.0406
 3074TIP3    H130637   1.781   1.679  12.523 -0.2921 -0.0548 -2.7297
 3074TIP3    H230638   1.673   1.785  12.519 -0.3114  0.1835  0.8388
 3075TIP3   OH230639   4.881   2.041  12.789  1.0330  0.4696  0.7309
 3075TIP3    H130640   4.833   1.968  12.749  0.2145  1.2580  0.2308
 3075TIP3    H230641   4.971   2.030  12.757  0.4747  0.8882 -1.1465
 3076TIP3   OH230642   0.736   3.447  15.788 -0.2287  0.6983  0.0846
 3076TIP3    H130643   0.788   3.522  15.817 -1.4763  2.1677 -1.2743
 3076TIP3    H230644   0.645   3.473  15.805 -0.6656 -0.7082  0.0041
 3077TIP3   OH230645   1.308   3.359   4.032 -0.1330 -0.5396 -0.4434
 3077TIP3    H130646   1.290   3.267   4.013  1.1554 -0.8477 -0.2498
 3077TIP3    H230647   1.389   3.378   3.985  0.6711 -0.0679  1.0542
 3078TIP3   OH230648   1.869   3.019  15.055  0.2244 -0.1647 -0.0879
 3078TIP3    H130649   1.950   3.006  15.104 -0.9778 -2.3070  1.4757
 3078TIP3    H230650   1.862   3.114  15.044  2.2197  0.1377  0.9531
 3079TIP3   OH230651   5.855   5.671  14.621 -0.3415 -0.2291  0.1507
 3079TIP3    H130652   5.807   5.589  14.608  0.2801 -0.8082  1.3198
 3079TIP3    H230653   5.821   5.730  14.554 -3.0941 -0.4375  1.2129
 3080TIP3   OH230654   1.346   3.292  14.806  0.0076 -0.1157  0.5773
 3080TIP3    H130655   1.371   3.218  14.862 -2.4566 -2.1311 -0.7701
 3080TIP3    H230656   1.251   3.295  14.810 -0.4019 -0.6062 -3.5784
 3081TIP3   OH230657   1.874   0.980   2.070 -0.3845  0.7225  0.0664
 3081TIP3    H130658   1.930   0.973   1.993  1.5191  0.0271  1.4271
 3081TIP3    H230659   1.885   0.897   2.116  0.8142  2.1091  2.4933
 3082TIP3   OH230660   0.904   0.972  16.902 -0.4274  0.0581 -0.3011
 3082TIP3    H130661   0.820   0.940  16.937 -0.0886  0.4541  0.9351
 3082TIP3    H230662   0.968   0.907  16.932  0.2350  1.6304  2.0261
 3083TIP3   OH230663   5.836   1.154   3.106  0.3419  0.3087  0.2604
 3083TIP3    H130664   5.753   1.156   3.154 -0.8243 -2.0682 -1.4680
 3083TIP3    H230665   5.883   1.232   3.136 -2.1526  1.2897  1.9104
 3084TIP3   OH230666   2.096   3.635  13.274  0.1725 -0.1880 -0.2246
 3084TIP3    H130667   2.023   3.644  13.335 -0.2293 -0.3520 -0.6688
 3084TIP3    H230668   2.057   3.597  13.195  0.6547  0.1206 -0.6244
 3085TIP3   OH230669   5.853   1.529  14.384 -0.4735 -0.2920  0.5412
 3085TIP3    H130670   5.819   1.497  14.300  0.2273 -0.4734  0.3173
 3085TIP3    H230671   5.910   1.458  14.415 -1.2114 -0.4958  1.4871
 3086TIP3   OH230672   3.084   4.598   3.893 -0.1734 -0.1490  0.1804
 3086TIP3    H130673   3.005   4.610   3.945 -1.3432  0.3367 -1.6394
 3086TIP3    H230674   3.145   4.663   3.928 -0.8958  0.1265  0.9723
 3087TIP3   OH230675   0.357   0.660   0.414  0.5153  0.0133  0.4232
 3087TIP3    H130676   0.424   0.591   0.413  1.2204  0.6833 -0.5072
 3087TIP3    H230677   0.377   0.714   0.337 -0.2668  1.0225  0.9066
 3088TIP3   OH230678   0.099   1.666   2.884  0.3884 -0.1488  0.3388
 3088TIP3    H130679   0.070   1.640   2.796  1.1160  2.0088 -0.6012
 3088TIP3    H230680   0.184   1.624   2.895 -0.1091 -1.1580  0.3948
 3089TIP3   OH230681   2.652   1.460   1.804  0.2649 -0.1733  0.0265
 3089TIP3    H130682   2.570   1.494   1.768 -0.3694 -1.0923  0.5592
 3089TIP3    H230683   2.661   1.504   1.888  0.8762  0.7057 -0.4764
 3090TIP3   OH230684   1.340   2.378  14.332 -0.3234  0.4480  0.1140
 3090TIP3    H130685   1.412   2.322  14.360  0.3425  1.2270 -0.0306
 3090TIP3    H230686   1.266   2.317  14.322  0.3206 -0.3709  0.1906
 3091TIP3   OH230687   5.912   1.078  13.160 -0.5479  0.4607  0.1525
 3091TIP3    H130688   5.947   1.008  13.214  1.1924  2.4537  1.8168
 3091TIP3    H230689   5.818   1.078  13.176 -0.6805 -1.8304 -0.3960
 3092TIP3   OH230690   5.616   0.414   5.003 -0.0467 -0.2948 -0.0071
 3092TIP3    H130691   5.638   0.479   4.937  1.6456 -1.8783 -1.1137
 3092TIP3    H230692   5.595   0.465   5.081 -0.0764  1.5796 -1.1761
 3093TIP3   OH230693   3.974   6.650  13.504  0.5679  0.5804 -0.0775
 3093TIP3    H130694   3.966   6.690  13.418  0.9686 -2.1165 -1.4651
 3093TIP3    H230695   4.045   6.586  13.495 -0.4050 -0.8687  1.7826
 3094TIP3   OH230696   0.482   0.461  15.624  0.0386  0.5335 -0.3423
 3094TIP3    H130697   0.390   0.436  15.613  0.2758 -0.5995  0.1408
 3094TIP3    H230698   0.531   0.396  15.573  0.5379  1.8113 -1.5802
 3095TIP3   OH230699   0.712   0.156  14.524  0.1951 -0.1743 -0.6245
 3095TIP3    H130700   0.650   0.138  14.595  2.3683  0.2769  1.5120
 3095TIP3    H230701   0.784   0.095  14.539  0.7654  0.0058 -2.4294
 3096TIP3   OH230702   5.515   5.598  12.153 -0.2148 -0.3768 -0.1128
 3096TIP3    H130703   5.596   5.644  12.133 -1.2006  1.6550  0.1616
 3096TIP3    H230704   5.495   5.625  12.243 -1.7146  0.0702 -0.5486
 3097TIP3   OH230705   0.485   1.922   5.780  0.2475 -0.6436  0.2331
 3097TIP3    H130706   0.569   1.922   5.825  2.0039 -2.5829 -2.6761
 3097TIP3    H230707   0.471   2.014   5.754  1.6956 -0.3576  0.4179
 3098TIP3   OH230708   2.640   0.870   2.261 -0.3395  0.1634  0.7536
 3098TIP3    H130709   2.593   0.826   2.191  0.8371  0.6018 -0.3427
 3098TIP3    H230710   2.700   0.804   2.295 -0.5664  0.1005  1.0474
 3099TIP3   OH230711   5.395   4.837  14.847  0.5898 -0.1247 -0.3856
 3099TIP3    H130712   5.425   4.901  14.912 -0.1057  0.9729 -1.1198
 3099TIP3    H230713   5.475   4.793  14.819  1.0920  0.4530  0.1031
 3100TIP3   OH230714   1.413   2.058  13.149  0.5051  0.1925  0.2196
 3100TIP3    H130715   1.354   1.986  13.127  1.6462 -1.0162  0.9355
 3100TIP3    H230716   1.362   2.114  13.207  0.1400 -0.9965  1.0802
 3101TIP3   OH230717   1.326   0.749   2.564  0.1383  0.0471  0.1299
 3101TIP3    H130718   1.324   0.793   2.649 -1.3098 -0.3430  0.3178
 3101TIP3    H230719   1.330   0.821   2.500  0.2388  0.3677  0.4949
 3102TIP3   OH230720   3.828   6.083  13.971  0.3236  0.2055  0.0838
 3102TIP3    H130721   3.854   6.134  13.894  1.6431  0.5466  0.7143
 3102TIP3    H230722   3.911   6.066  14.016 -0.4533  0.2120  1.5470
 3103TIP3   OH230723   5.280   4.573  15.868 -0.5347 -0.3774 -0.4621
 3103TIP3    H130724   5.243   4.509  15.807 -1.3828 -1.1997  0.8464
 3103TIP3    H230725   5.314   4.643  15.813 -1.2090 -1.1237 -1.8677
 3104TIP3   OH230726   3.995   1.994  10.810 -0.1071  0.4907  0.4556
 3104TIP3    H130727   4.004   2.088  10.830  0.1554  1.0982 -2.1069
 3104TIP3    H230728   3.937   1.992  10.734  0.7814 -1.3204 -0.2264
 3105TIP3   OH230729   0.790   4.261   6.433 -0.0953  0.6935 -0.3960
 3105TIP3    H130730   0.717   4.321   6.421  0.3131  1.2350 -0.2043
 3105TIP3    H230731   0.756   4.192   6.491 -0.6481  0.5813 -0.8514
 3106TIP3   OH230732   4.505   4.325  14.543 -0.0282 -0.2712 -0.7264
 3106TIP3    H130733   4.450   4.378  14.485  1.6513 -0.8260 -2.9342
 3106TIP3    H230734   4.593   4.332  14.507  1.2295 -0.3277  2.0383
 3107TIP3   OH230735   0.781   0.765   2.899  0.1686 -0.4581  0.5741
 3107TIP3    H130736   0.852   0.815   2.939 -1.2643  1.8080  0.4481
 3107TIP3    H230737   0.702   0.813   2.922 -1.0693 -1.2472 -1.7381
 3108TIP3   OH230738   1.315   3.501   2.691 -0.1400 -0.1081 -0.5511
 3108TIP3    H130739   1.391   3.443   2.697 -0.0812 -0.4333 -3.1995
 3108TIP3    H230740   1.338   3.577   2.744  0.8319 -1.4003  0.9438
 3109TIP3   OH230741   0.847   3.906  15.382 -0.1899  0.5791 -0.0575
 3109TIP3    H130742   0.941   3.925  15.374 -0.2786  1.5814  0.9481
 3109TIP3    H230743   0.804   3.973  15.329 -0.3327  0.0356 -0.6278
 3110TIP3   OH230744   1.190   6.046   2.726 -0.0421 -0.5218  0.2891
 3110TIP3    H130745   1.097   6.058   2.745 -0.5284 -1.0221 -1.5340
 3110TIP3    H230746   1.225   6.001   2.802 -1.1298  0.3025  1.3114
 3111TIP3   OH230747   5.949   5.934   2.439 -0.0960  0.4795  0.3197
 3111TIP3    H130748   5.883   5.936   2.370 -0.0962  1.3972  0.3357
 3111TIP3    H230749   5.927   5.857   2.491  0.5768 -0.8961 -1.3378
 3112TIP3   OH230750   6.690   2.383   5.820 -0.0951 -0.7618  0.0542
 3112TIP3    H130751   6.660   2.406   5.907  3.6222  2.1557  0.8207
 3112TIP3    H230752   6.664   2.456   5.765  0.5513 -0.9209 -0.4890
 3113TIP3   OH230753   4.383   2.588  12.307 -0.2554 -0.3458  0.0887
 3113TIP3    H130754   4.380   2.672  12.262  0.9527 -0.2613  0.1189
 3113TIP3    H230755   4.346   2.525  12.245  0.3430 -0.0436 -0.5949
 3114TIP3   OH230756   1.250   0.455  15.796  0.2989  0.1331  0.2386
 3114TIP3    H130757   1.157   0.461  15.816  0.2903  1.7756 -0.1300
 3114TIP3    H230758   1.256   0.391  15.726 -0.4818 -0.4220  0.6642
 3115TIP3   OH230759   4.917   4.449   0.547 -0.5023 -0.4930 -0.0621
 3115TIP3    H130760   4.904   4.401   0.629  1.3164 -0.9524 -0.0136
 3115TIP3    H230761   5.007   4.429   0.521 -0.7274  0.4300 -1.6696
 3116TIP3   OH230762   4.482   1.179  15.632  0.3571 -0.0439  0.1009
 3116TIP3    H130763   4.512   1.091  15.610 -0.4755  0.0130 -1.4033
 3116TIP3    H230764   4.534   1.204  15.708  1.6272 -1.2811 -0.3206
 3117TIP3   OH230765   3.709   3.138   4.244 -0.2941  0.4632  0.2779
 3117TIP3    H130766   3.747   3.050   4.243 -0.2642  0.4587  1.2425
 3117TIP3    H230767   3.695   3.158   4.337 -0.2308  1.5064  0.0788
 3118TIP3   OH230768   4.008   1.282   3.859 -0.3838 -0.0916  0.3521
 3118TIP3    H130769   4.061   1.205   3.838  2.5747  1.6933  0.6278
 3118TIP3    H230770   3.985   1.271   3.951  2.3005  0.4509  1.1757
 3119TIP3   OH230771   4.907   2.099  15.943 -0.0724  0.4232  0.0720
 3119TIP3    H130772   4.822   2.135  15.918 -0.3213 -0.3799 -0.2935
 3119TIP3    H230773   4.948   2.077  15.859  0.5607  0.9418  0.2401
 3120TIP3   OH230774   1.246   1.847   1.176  0.0698  0.2142 -0.1548
 3120TIP3    H130775   1.235   1.911   1.106  1.1768  0.6738  0.0685
 3120TIP3    H230776   1.287   1.896   1.247  0.6645 -0.6730  0.1338
 3121TIP3   OH230777   2.684   0.294   3.675  0.6681  0.0820 -0.4054
 3121TIP3    H130778   2.752   0.242   3.719  0.1029  0.0319  0.4293
 3121TIP3    H230779   2.726   0.378   3.658 -0.2984  1.8160  4.2899
 3122TIP3   OH230780   3.911   3.747  15.568 -0.2504  0.2223 -0.0491
 3122TIP3    H130781   3.875   3.829  15.601  0.0639  0.5209 -0.4435
 3122TIP3    H230782   3.917   3.691  15.646 -0.9503  0.3914  0.1304
 3123TIP3   OH230783   2.064   4.571   3.962  0.2912 -0.4139  0.4488
 3123TIP3    H130784   2.013   4.638   4.007  1.2092  1.7555 -1.5736
 3123TIP3    H230785   2.045   4.582   3.870  2.6651 -1.0026 -0.1970
 3124TIP3   OH230786   3.851   6.264  13.194  0.0287 -0.1171 -0.3876
 3124TIP3    H130787   3.862   6.200  13.124  1.6404  0.9875 -1.1961
 3124TIP3    H230788   3.849   6.349  13.150  0.2770  0.5580  0.8412
 3125TIP3   OH230789   3.275   4.740  16.727 -0.1347  0.3509  1.1714
 3125TIP3    H130790   3.302   4.743  16.635 -0.6581  0.2045  1.0028
 3125TIP3    H230791   3.295   4.651  16.755 -0.8267  0.1009  0.9134
 3126TIP3   OH230792   4.071   2.948   0.206  0.2500  0.5100  0.0215
 3126TIP3    H130793   4.101   2.915   0.291 -0.8229 -0.4433  0.0504
 3126TIP3    H230794   4.132   2.910   0.142 -0.9868 -1.6538  0.0443
 3127TIP3   OH230795   2.342   0.101  13.342  0.4528 -0.3723 -0.0129
 3127TIP3    H130796   2.275   0.169  13.346  2.0861  1.4487 -1.7350
 3127TIP3    H230797   2.411   0.131  13.402  0.6562 -1.1793  0.1722
 3128TIP3   OH230798   1.498   4.360  13.204 -0.1048 -0.0618  0.2279
 3128TIP3    H130799   1.559   4.417  13.157 -2.0896  2.3244  0.3689
 3128TIP3    H230800   1.415   4.407  13.203 -1.6344 -2.5384  1.2645
 3129TIP3   OH230801   4.493   3.164   6.258 -0.1217 -0.1130  0.2586
 3129TIP3    H130802   4.472   3.214   6.180  1.5953  0.7781  0.3075
 3129TIP3    H230803   4.513   3.076   6.226 -1.7029 -0.3869 -0.0096
 3130TIP3   OH230804   6.148   3.813  12.846 -0.4773 -0.4894 -0.2143
 3130TIP3    H130805   6.184   3.846  12.928 -1.1201  0.0440 -0.1431
 3130TIP3    H230806   6.061   3.851  12.840 -0.4449 -0.5278 -1.1402
 3131TIP3   OH230807   3.839   1.570  14.410 -0.1003 -0.1406 -0.5439
 3131TIP3    H130808   3.804   1.483  14.390 -1.3197  0.4657 -1.1667
 3131TIP3    H230809   3.767   1.630  14.390 -0.3811  0.7959  2.6684
 3132TIP3   OH230810   6.245   3.654   3.183  0.5812  0.0059  0.7161
 3132TIP3    H130811   6.320   3.713   3.186  1.3125 -0.8939  0.5849
 3132TIP3    H230812   6.274   3.580   3.130  0.1059 -1.0202  1.8251
 3133TIP3   OH230813   2.092   3.518   4.467  0.6948 -0.1281  0.0874
 3133TIP3    H130814   2.067   3.574   4.540 -0.2467 -0.1453 -0.2178
 3133TIP3    H230815   2.152   3.572   4.415  1.9407 -0.3549  1.2193
 3134TIP3   OH230816   1.764   3.903   6.210 -0.2222  0.1456  0.3613
 3134TIP3    H130817   1.783   3.948   6.292 -0.3609  0.5457  0.1805
 3134TIP3    H230818   1.816   3.949   6.145 -1.2309  0.7996 -0.0185
 3135TIP3   OH230819   0.208   1.305   3.193 -0.2194  0.3659  0.5750
 3135TIP3    H130820   0.218   1.215   3.162  0.2707  0.2908  0.9470
 3135TIP3    H230821   0.281   1.319   3.252 -0.0968  1.1254  0.2599
 3136TIP3   OH230822   4.076   4.850   3.284  0.3392 -0.0034 -0.4649
 3136TIP3    H130823   4.125   4.769   3.268  1.2997  0.2894  0.7858
 3136TIP3    H230824   4.044   4.842   3.374  0.0724  0.8160 -0.4739
 3137TIP3   OH230825   2.013   0.008  14.000  0.0049  0.3331  0.5310
 3137TIP3    H130826   2.039   0.099  13.990 -0.5319  0.4077 -0.2225
 3137TIP3    H230827   2.092  -0.036  14.031  0.1249  1.1380  1.3992
 3138TIP3   OH230828   0.309   4.102   0.731  0.1102  0.6235  0.2906
 3138TIP3    H130829   0.368   4.054   0.789 -0.4773  0.6475  0.9287
 3138TIP3    H230830   0.221   4.077   0.761 -0.4219 -2.5207 -3.0497
 3139TIP3   OH230831   1.740   5.164  15.588  0.1509  0.3817 -0.1020
 3139TIP3    H130832   1.719   5.128  15.502 -1.5955 -0.6755  0.7055
 3139TIP3    H230833   1.729   5.258  15.578  2.1530  0.5188 -1.5653
 3140TIP3   OH230834   4.350   0.181   2.242  0.1356  0.0535 -0.0376
 3140TIP3    H130835   4.330   0.088   2.251 -0.4250  0.2247  0.5088
 3140TIP3    H230836   4.404   0.202   2.318  0.5707  0.0983 -0.3528
 3141TIP3   OH230837   6.712   3.023  12.878  0.3280 -0.1101 -0.8450
 3141TIP3    H130838   6.679   2.949  12.827  0.4965 -1.6786  1.1744
 3141TIP3    H230839   6.642   3.042  12.940  1.9369 -1.5773  1.5859
 3142TIP3   OH230840   1.231   5.010  11.227 -0.1717 -0.2152  0.4785
 3142TIP3    H130841   1.194   4.927  11.196 -0.9089  0.2173  0.1645
 3142TIP3    H230842   1.244   5.061  11.147 -1.5520  0.6976  0.7945
 3143TIP3   OH230843   4.638   0.631  13.960  0.1864 -0.4022 -0.0179
 3143TIP3    H130844   4.581   0.642  13.885  0.6845  1.0242 -0.2173
 3143TIP3    H230845   4.717   0.680  13.938  1.2253 -1.7599  0.5349
 3144TIP3   OH230846   5.399   0.019   3.859  0.1577 -0.3221  0.5525
 3144TIP3    H130847   5.425   0.026   3.951  1.1050  0.0737  0.2641
 3144TIP3    H230848   5.369  -0.071   3.850  0.0154 -0.3506  1.2613
 3145TIP3   OH230849   1.590   3.036  14.476  0.9741  0.2383  0.3324
 3145TIP3    H130850   1.527   3.093  14.521 -1.5202 -2.1192  0.1090
 3145TIP3    H230851   1.665   3.032  14.534  0.2291  1.8055  1.4795
 3146TIP3   OH230852   0.242   2.047  14.514  0.0530  0.5039 -0.4760
 3146TIP3    H130853   0.164   2.102  14.504 -1.2229 -0.8881  1.1360
 3146TIP3    H230854   0.264   2.020  14.425 -2.1473 -0.1156 -0.9006
 3147TIP3   OH230855   6.653   2.401  15.833  0.2353  0.0278  0.2053
 3147TIP3    H130856   6.694   2.483  15.860 -1.3850  1.0253 -0.2369
 3147TIP3    H230857   6.598   2.424  15.758  0.3438 -1.6202 -0.4372
 3148TIP3   OH230858   5.042   2.937   4.988 -0.2227  0.5649  0.3421
 3148TIP3    H130859   5.051   2.971   5.077 -1.4073  0.2174  0.6083
 3148TIP3    H230860   4.957   2.968   4.958 -0.1696  0.0349 -0.3937
 3149TIP3   OH230861   1.224   3.728  13.941  0.2425 -0.3119 -0.4752
 3149TIP3    H130862   1.290   3.689  13.883  1.6375  0.9292  0.2046
 3149TIP3    H230863   1.172   3.784  13.884  2.5584  2.0924 -0.4014
 3150TIP3   OH230864   3.928   1.513   3.702  0.2981 -0.0545 -0.6425
 3150TIP3    H130865   3.964   1.433   3.741  1.3801 -0.1011 -1.6749
 3150TIP3    H230866   3.848   1.530   3.752  0.5145 -1.2834  0.1745
 3151TIP3   OH230867   0.682   3.857   2.298  0.1738 -0.2061  0.4784
 3151TIP3    H130868   0.618   3.926   2.277  0.8566  0.9355  1.9489
 3151TIP3    H230869   0.766   3.902   2.300  0.6335 -1.0781  1.5614
 3152TIP3   OH230870   3.308   2.095  16.195  0.1826 -0.2984 -0.1277
 3152TIP3    H130871   3.327   2.181  16.158  0.0665 -0.2737 -0.1301
 3152TIP3    H230872   3.212   2.088  16.193  0.2049 -0.5540 -0.4115
 3153TIP3   OH230873   5.614   2.928  13.711 -0.3364  0.0350  0.1162
 3153TIP3    H130874   5.581   3.010  13.674 -1.0006  0.3171  1.2842
 3153TIP3    H230875   5.631   2.948  13.803  0.7403 -0.8007  0.1293
 3154TIP3   OH230876   1.542   0.798  11.922  0.3479 -0.1289  0.1354
 3154TIP3    H130877   1.522   0.711  11.889  0.1067  0.0245 -0.1285
 3154TIP3    H230878   1.497   0.803  12.007  0.6411 -0.3801  0.3062
 3155TIP3   OH230879   4.997   4.434  11.430  0.5201 -0.4937  0.2043
 3155TIP3    H130880   5.003   4.421  11.336  1.0857  0.7629  0.0515
 3155TIP3    H230881   5.088   4.426  11.461  0.2012 -2.1107  0.8335
 3156TIP3   OH230882   4.163   2.954   4.767 -0.9420  0.1912 -0.4538
 3156TIP3    H130883   4.148   2.941   4.860 -0.0374  0.8947 -0.1847
 3156TIP3    H230884   4.226   2.886   4.743 -1.2278 -0.0340 -0.5745
 3157TIP3   OH230885   4.091   5.843   3.648 -0.1901 -0.6001 -0.3234
 3157TIP3    H130886   4.080   5.921   3.703 -0.6125 -1.6370  1.1251
 3157TIP3    H230887   4.148   5.786   3.699 -0.6650 -1.6301 -0.9246
 3158TIP3   OH230888   4.264   1.558  14.584 -0.1978 -0.2627  0.1393
 3158TIP3    H130889   4.213   1.581  14.506 -1.2577 -0.7732  0.6569
 3158TIP3    H230890   4.350   1.534  14.550  0.2027  2.0389 -0.6349
 3159TIP3   OH230891   1.200   2.410   2.943  0.3632 -0.6341  0.0742
 3159TIP3    H130892   1.260   2.350   2.898  0.3614 -1.1631  0.7615
 3159TIP3    H230893   1.191   2.374   3.031  2.0139  1.5106  1.2241
 3160TIP3   OH230894   0.264   3.808   2.007  0.5262  0.2570 -0.1252
 3160TIP3    H130895   0.209   3.827   1.931 -0.3358  1.9248  0.8591
 3160TIP3    H230896   0.352   3.834   1.980  0.1833  1.0926 -0.4967
 3161TIP3   OH230897   4.352   0.974  12.060 -0.0915 -0.1641  0.3961
 3161TIP3    H130898   4.391   1.047  12.013 -1.0072  0.7515  1.0288
 3161TIP3    H230899   4.261   1.000  12.074 -0.8282 -1.9937 -0.5474
 3162TIP3   OH230900   2.131   0.610  11.818 -0.5904 -0.2896 -0.3923
 3162TIP3    H130901   2.062   0.550  11.791 -0.9636 -0.7645  1.5280
 3162TIP3    H230902   2.145   0.592  11.911  0.7461  1.1645 -0.2601
 3163TIP3   OH230903   6.476   5.738  17.015 -0.2558 -0.1324 -0.0204
 3163TIP3    H130904   6.548   5.689  16.975 -0.2434 -0.3729  0.2924
 3163TIP3    H230905   6.434   5.676  17.075 -1.8492 -0.5794 -1.5010
 3164TIP3   OH230906   3.116   5.813   3.476  0.0685 -0.3557 -0.1829
 3164TIP3    H130907   3.099   5.723   3.449  1.1792 -0.6506  0.0702
 3164TIP3    H230908   3.131   5.808   3.570  0.2663  0.0725 -0.1890
 3165TIP3   OH230909   1.370   2.155   2.872 -0.0559  0.2780  0.4047
 3165TIP3    H130910   1.321   2.150   2.954 -0.8655  0.4248 -0.0543
 3165TIP3    H230911   1.400   2.065   2.857 -2.2577 -0.3765 -0.5046
 3166TIP3   OH230912   5.420   1.083  17.390  0.1296  0.3191 -0.4170
 3166TIP3    H130913   5.364   1.122  17.324  0.7035  0.1714 -1.0093
 3166TIP3    H230914   5.505   1.127  17.379  0.4007 -0.1325 -0.1869
 3167TIP3   OH230915   3.503   5.211   5.542 -0.7198  0.0199  0.3417
 3167TIP3    H130916   3.558   5.253   5.608  0.3840 -0.6150 -0.1426
 3167TIP3    H230917   3.462   5.284   5.496 -0.4757  0.5054  0.8851
 3168TIP3   OH230918   2.278   2.962   3.635 -0.2848 -0.4361  0.2010
 3168TIP3    H130919   2.277   2.965   3.731 -0.1961 -1.1443  0.2245
 3168TIP3    H230920   2.186   2.967   3.610 -0.3203 -0.4785  0.3248
 3169TIP3   OH230921   2.942   1.379   2.099  0.6118  0.4787  0.3074
 3169TIP3    H130922   2.991   1.412   2.175  0.4231 -0.6295  0.9190
 3169TIP3    H230923   2.939   1.454   2.039  1.7237  1.0345  0.9137
 3170TIP3   OH230924   4.780   0.996  12.937 -0.1987  0.1660 -0.3809
 3170TIP3    H130925   4.868   0.958  12.934 -0.7816 -1.1922 -0.5259
 3170TIP3    H230926   4.760   1.004  13.030 -0.0732  0.1323 -0.3500
 3171TIP3   OH230927   1.677   6.570  16.517  0.0521 -0.1759  0.2069
 3171TIP3    H130928   1.702   6.481  16.541  0.3649 -0.4685 -1.1270
 3171TIP3    H230929   1.624   6.559  16.437  1.5765  0.9338 -1.0136
 3172TIP3   OH230930   4.267   2.102  17.148 -0.2814  0.0829  0.0973
 3172TIP3    H130931   4.214   2.054  17.211  0.8042 -0.9438  0.2541
 3172TIP3    H230932   4.255   2.056  17.066 -1.5162  1.2898 -0.4569
 3173TIP3   OH230933   4.389   3.449  10.884  0.4395  0.5512  0.1775
 3173TIP3    H130934   4.426   3.402  10.809  1.2326 -1.8054  1.8882
 3173TIP3    H230935   4.296   3.428  10.882  0.2146  1.5875 -0.8465
 3174TIP3   OH230936   1.996   1.607   4.742  0.0438  0.3559 -0.0586
 3174TIP3    H130937   1.950   1.691   4.748 -0.4544  0.1151 -0.4064
 3174TIP3    H230938   2.087   1.627   4.765  0.0841  1.1252 -0.8308
 3175TIP3   OH230939   0.169   2.186   0.171 -0.2589  0.3859 -0.0105
 3175TIP3    H130940   0.085   2.145   0.150  0.5848 -0.9881 -0.8867
 3175TIP3    H230941   0.174   2.261   0.113 -1.4615  1.3305  1.0268
 3176TIP3   OH230942   5.612   6.302   2.937  0.0997  0.4829  0.4427
 3176TIP3    H130943   5.619   6.276   2.845  0.9197 -2.0167  1.1318
 3176TIP3    H230944   5.659   6.385   2.942 -0.6640  1.0842 -1.5196
 3177TIP3   OH230945   0.797   1.978  16.002 -0.4238  0.9149  0.7511
 3177TIP3    H130946   0.833   1.961  15.915 -1.3704 -0.0189  0.5097
 3177TIP3    H230947   0.845   2.054  16.035  0.3222  0.9372 -0.3610
 3178TIP3   OH230948   3.817   3.896  13.077 -0.3773  0.1242  0.1976
 3178TIP3    H130949   3.843   3.904  13.169 -0.8689 -0.6611  0.4082
 3178TIP3    H230950   3.786   3.984  13.054 -0.7871  0.1877  0.9533
 3179TIP3   OH230951   3.057   2.075   5.583  0.1436 -0.7270  0.1113
 3179TIP3    H130952   3.014   2.049   5.501  0.0070 -0.7789  0.1998
 3179TIP3    H230953   2.997   2.047   5.652  0.0297 -0.2481  0.2113
 3180TIP3   OH230954   0.291   5.640   1.501 -0.0450 -0.4283 -0.4760
 3180TIP3    H130955   0.267   5.728   1.530 -1.1075 -0.7104 -0.4524
 3180TIP3    H230956   0.376   5.651   1.460  0.7040  0.2823  1.1889
 3181TIP3   OH230957   1.742   5.503  13.491  0.2344  0.3621  1.1171
 3181TIP3    H130958   1.654   5.516  13.526 -1.2989 -3.5845 -0.6537
 3181TIP3    H230959   1.740   5.542  13.403  0.7480  1.4354  1.5654
 3182TIP3   OH230960   3.138   1.688   0.402  0.2963 -1.2136  0.3278
 3182TIP3    H130961   3.061   1.664   0.351 -0.4190 -1.3500  1.4443
 3182TIP3    H230962   3.212   1.667   0.345 -0.4495  2.8895 -2.5845
 3183TIP3   OH230963   6.372   1.008   4.154  0.3474  0.1753 -0.1426
 3183TIP3    H130964   6.364   0.969   4.067  1.7045  0.8866 -0.6216
 3183TIP3    H230965   6.405   1.097   4.137  0.5635  0.3455  1.0876
 3184TIP3   OH230966   5.098   2.043  17.059  0.5359  0.5568  0.2497
 3184TIP3    H130967   5.038   1.993  17.114  1.0588  2.1079  2.3299
 3184TIP3    H230968   5.081   2.010  16.970 -2.4068 -0.0124  0.9147
 3185TIP3   OH230969   6.552   2.032   3.405 -0.2018 -0.5074 -0.4803
 3185TIP3    H130970   6.646   2.019   3.396 -0.1380  0.3629 -1.1678
 3185TIP3    H230971   6.514   1.983   3.333 -0.2760 -0.8449 -0.2126
 3186TIP3   OH230972   1.209   1.552   5.443  0.8714 -0.3312  0.1947
 3186TIP3    H130973   1.286   1.609   5.443  1.5077 -0.8430 -3.7230
 3186TIP3    H230974   1.245   1.464   5.429 -0.3248 -0.8425  0.2313
 3187TIP3   OH230975   0.662   2.664   6.288 -0.0316  0.1820  0.2090
 3187TIP3    H130976   0.666   2.706   6.373 -0.4146 -0.5889  0.6251
 3187TIP3    H230977   0.587   2.604   6.294  1.0261 -1.2352 -0.0196
 3188TIP3   OH230978   6.471   4.587   4.886  0.0861 -0.5029 -0.3065
 3188TIP3    H130979   6.447   4.496   4.871 -0.6431 -0.6622  1.5562
 3188TIP3    H230980   6.537   4.584   4.955 -1.1524  0.4218  0.9751
 3189TIP3   OH230981   5.240   5.644   1.917  0.3114  0.5556  0.2338
 3189TIP3    H130982   5.209   5.734   1.924 -0.9195  0.2138 -0.5567
 3189TIP3    H230983   5.165   5.590   1.941 -0.5249 -0.3443 -3.6732
 3190TIP3   OH230984   3.756   4.632   2.813 -0.4573 -0.5170 -0.6078
 3190TIP3    H130985   3.734   4.551   2.860 -0.7052 -0.1167 -0.0210
 3190TIP3    H230986   3.798   4.687   2.879 -0.7882  0.0405 -0.8548
 3191TIP3   OH230987   2.091   3.241   1.346  0.4101 -0.0014  0.4726
 3191TIP3    H130988   2.158   3.252   1.279 -0.3572 -1.8559 -0.6890
 3191TIP3    H230989   2.063   3.330   1.368  2.1234  0.7242 -0.1535
 3192TIP3   OH230990   0.497   6.449   5.531 -0.5292  0.1776  0.3794
 3192TIP3    H130991   0.540   6.523   5.487  0.0847  0.2837  1.1333
 3192TIP3    H230992   0.413   6.442   5.487  0.8449 -1.1237 -2.3304
 3193TIP3   OH230993   3.589   6.506  13.093 -0.2209 -0.4184 -0.6585
 3193TIP3    H130994   3.681   6.484  13.104  0.4740  1.8759 -1.3190
 3193TIP3    H230995   3.546   6.473  13.172  1.1619 -1.4345 -0.2976
 3194TIP3   OH230996   2.699   0.830   0.649  0.4189 -0.4185  0.2610
 3194TIP3    H130997   2.693   0.862   0.559 -1.9628 -0.0930  0.4520
 3194TIP3    H230998   2.674   0.906   0.702  0.4484 -0.9922  1.1025
 3195TIP3   OH230999   4.520   2.511   1.803  0.3216  0.2835  0.0787
 3195TIP3    H131000   4.555   2.586   1.851 -0.5053  1.4242 -1.0169
 3195TIP3    H231001   4.559   2.519   1.716 -0.7066  0.1484 -0.4016
 3196TIP3   OH231002   3.631   1.748   9.985 -0.5002  0.5916 -0.1989
 3196TIP3    H131003   3.680   1.795  10.053  0.0263 -1.0697  0.6175
 3196TIP3    H231004   3.540   1.774   9.998 -0.0306  3.0486 -1.1811
 3197TIP3   OH231005   3.461   3.713  13.863  0.3253 -0.3252  0.0139
 3197TIP3    H131006   3.439   3.772  13.790 -0.4549  0.3573  0.7810
 3197TIP3    H231007   3.541   3.750  13.901 -0.3769  0.4962  0.7367
 3198TIP3   OH231008   5.542   0.556  17.388  0.1562 -0.4207 -0.6184
 3198TIP3    H131009   5.505   0.638  17.421  1.6905  1.2811 -2.8413
 3198TIP3    H231010   5.628   0.550  17.431  0.1556 -0.7438 -0.6575
 3199TIP3   OH231011   0.161   0.555  17.307 -0.7127  0.1398  0.1748
 3199TIP3    H131012   0.101   0.629  17.297 -2.2621 -1.1471 -0.4536
 3199TIP3    H231013   0.171   0.520  17.219 -0.6279 -0.8594  0.5680
 3200TIP3   OH231014   3.882   6.693  13.963  0.3579 -0.3496 -0.5105
 3200TIP3    H131015   3.930   6.716  13.883  0.3358  0.3048 -0.3406
 3200TIP3    H231016   3.804   6.749  13.960  0.2300 -0.5106 -0.1615
 3201TIP3   OH231017   5.499   5.440  14.950  0.3559 -0.7405  0.6099
 3201TIP3    H131018   5.563   5.379  14.913  1.3882  1.1799 -0.9471
 3201TIP3    H231019   5.435   5.453  14.880 -0.0635 -0.3317  1.0604
 3202TIP3   OH231020   3.501   0.062  15.422 -0.2415 -0.9802  0.0202
 3202TIP3    H131021   3.518   0.132  15.358  0.1007 -0.7944  0.3103
 3202TIP3    H231022   3.441   0.003  15.377 -1.0342 -0.1808 -0.0068
 3203TIP3   OH231023   0.773   1.224  10.451  0.3024  0.6907 -0.0156
 3203TIP3    H131024   0.778   1.261  10.363  0.1607 -0.5342 -0.5502
 3203TIP3    H231025   0.806   1.135  10.442  0.7011  0.6902  1.2638
 3204TIP3   OH231026   1.138   3.741   3.516  0.1308  0.3164 -0.3478
 3204TIP3    H131027   1.225   3.719   3.550 -0.3063  0.8183  1.1547
 3204TIP3    H231028   1.145   3.833   3.491 -0.6468  1.1781  2.2776
 3205TIP3   OH231029   4.329   1.129  11.395 -0.2491 -0.0699  0.0887
 3205TIP3    H131030   4.421   1.104  11.385 -0.4573 -2.3152  2.7305
 3205TIP3    H231031   4.285   1.048  11.418 -3.0927  0.8235 -1.7259
 3206TIP3   OH231032   2.526   4.854  14.104  0.3508  0.2096 -0.3876
 3206TIP3    H131033   2.619   4.874  14.090  1.0990 -1.2494  1.9660
 3206TIP3    H231034   2.504   4.795  14.031  2.0111 -1.3755  0.2977
 3207TIP3   OH231035   1.476   3.574   5.442  0.2819 -0.4342 -0.1442
 3207TIP3    H131036   1.458   3.485   5.410  0.9234 -0.1770 -1.2632
 3207TIP3    H231037   1.482   3.627   5.363 -0.8295  0.7655  0.5473
 3208TIP3   OH231038   3.649   0.561  12.322 -0.1342  0.3952  0.3614
 3208TIP3    H131039   3.646   0.635  12.261  1.9244  0.9784  0.8928
 3208TIP3    H231040   3.605   0.490  12.275 -1.7504  1.7865 -0.3437
 3209TIP3   OH231041   1.732   1.272  16.432  0.0071  0.0656  0.1748
 3209TIP3    H131042   1.662   1.207  16.426  0.9089 -0.8415 -0.7265
 3209TIP3    H231043   1.805   1.226  16.473  0.2801  0.8343  0.5676
 3210TIP3   OH231044   1.262   3.285   5.604  0.3167 -0.1226  0.1153
 3210TIP3    H131045   1.250   3.338   5.526  0.8860 -0.7579 -0.4235
 3210TIP3    H231046   1.322   3.335   5.659  2.6849 -1.1590 -1.3866
 3211TIP3   OH231047   5.126   5.016  15.816 -0.3971  0.4608  0.2948
 3211TIP3    H131048   5.148   4.956  15.745 -1.2812 -1.0286  1.2375
 3211TIP3    H231049   5.183   4.990  15.889 -1.1108  0.4458  0.8593
 3212TIP3   OH231050   1.462   4.929   3.132  0.5106  0.1316 -0.4111
 3212TIP3    H131051   1.533   4.888   3.183  1.7835  2.1387 -0.4525
 3212TIP3    H231052   1.436   5.005   3.184 -0.1629  0.6085 -1.4138
 3213TIP3   OH231053   4.804   6.177  14.602 -0.3930 -0.0792 -0.2654
 3213TIP3    H131054   4.814   6.153  14.510 -3.0242 -0.1474 -0.5892
 3213TIP3    H231055   4.823   6.097  14.650 -0.8826 -0.5630 -0.8653
 3214TIP3   OH231056   1.731   1.994  16.235 -0.7138 -0.2519  0.4317
 3214TIP3    H131057   1.748   2.001  16.329 -0.7367  3.2397  0.3299
 3214TIP3    H231058   1.699   2.081  16.210  0.7628 -0.5547 -3.1033
 3215TIP3   OH231059   0.317   4.918  10.888  0.8311  0.0529  0.3622
 3215TIP3    H131060   0.386   4.971  10.848  0.5396 -1.2814 -2.0575
 3215TIP3    H231061   0.326   4.831  10.849  0.3216 -1.3340  3.0522
 3216TIP3   OH231062   0.362   5.435   2.422 -0.1179  0.2859  0.2805
 3216TIP3    H131063   0.288   5.482   2.459  1.4760  1.2736  2.3741
 3216TIP3    H231064   0.340   5.342   2.433 -0.8354  0.5677  1.3391
 3217TIP3   OH231065   3.273   3.860  14.155  0.3606  0.0654 -0.8608
 3217TIP3    H131066   3.325   3.789  14.193 -0.7735  0.0947  0.8576
 3217TIP3    H231067   3.189   3.820  14.135 -0.1952  0.8419 -0.1409
 3218TIP3   OH231068   1.596   5.776   0.578  0.5752  0.2722 -0.3910
 3218TIP3    H131069   1.678   5.803   0.535  0.8684 -1.0133 -0.6668
 3218TIP3    H231070   1.527   5.804   0.518  0.7147  2.2210  0.2797
 3219TIP3   OH231071   5.784   4.663   5.588 -0.1290  0.4940 -0.5065
 3219TIP3    H131072   5.855   4.671   5.651  0.6333 -1.4829 -1.0260
 3219TIP3    H231073   5.730   4.741   5.601  0.4196  0.5133  2.0388
 3220TIP3   OH231074   2.308   2.137  12.970 -0.7967  0.4212  0.0615
 3220TIP3    H131075   2.387   2.133  12.916 -2.0526 -1.5958 -1.7877
 3220TIP3    H231076   2.338   2.115  13.059  0.6907 -0.5613 -0.6523
 3221TIP3   OH231077   4.170   3.511   1.514  0.2322 -0.3218 -0.3166
 3221TIP3    H131078   4.107   3.578   1.539  0.2561 -0.4930  0.2185
 3221TIP3    H231079   4.256   3.553   1.525  0.2205 -0.0620 -1.1224
 3222TIP3   OH231080   5.546   4.980  13.691  0.2695 -0.2517  0.1078
 3222TIP3    H131081   5.511   4.988  13.780  1.4158  1.5039  0.4513
 3222TIP3    H231082   5.508   5.055  13.644  2.4142  0.9221  0.1305
 3223TIP3   OH231083   3.810   2.772   5.606  0.3232 -0.1203  0.0014
 3223TIP3    H131084   3.795   2.865   5.625  1.0787  0.2098 -0.9248
 3223TIP3    H231085   3.845   2.736   5.687 -1.0858  0.1231  0.7439
 3224TIP3   OH231086   2.154   5.340   2.760 -0.0862 -0.1383  0.0640
 3224TIP3    H131087   2.175   5.257   2.802 -0.6829  0.1686  0.9928
 3224TIP3    H231088   2.094   5.316   2.689 -0.8409 -0.4469  0.7798
 3225TIP3   OH231089   1.487   0.744   5.751 -0.6770  0.1258 -0.2684
 3225TIP3    H131090   1.524   0.669   5.798 -1.7140  0.0379  0.4525
 3225TIP3    H231091   1.557   0.809   5.751  0.0120 -0.6000 -0.3211
 3226TIP3   OH231092   0.061   5.453  15.924  0.1825  0.1133 -0.5186
 3226TIP3    H131093   0.130   5.488  15.867 -0.3653  2.3230  0.0878
 3226TIP3    H231094   0.103   5.382  15.972  1.0362 -0.9203 -2.6544
 3227TIP3   OH231095   3.341   3.433  13.306  0.2740 -0.6788 -0.3018
 3227TIP3    H131096   3.335   3.515  13.356  1.6903 -1.4712  1.3003
 3227TIP3    H231097   3.389   3.457  13.227 -0.3145  0.2604 -0.3896
 3228TIP3   OH231098   0.384   0.564   1.648  0.1644  0.3343 -0.4030
 3228TIP3    H131099   0.437   0.489   1.622 -0.6567  0.6396 -3.2349
 3228TIP3    H231100   0.315   0.527   1.703  0.9223 -0.6512 -0.0907
 3229TIP3   OH231101   2.062   1.056   5.530  0.3838 -0.2625 -0.4579
 3229TIP3    H131102   2.093   1.087   5.616 -2.4028 -0.7974  0.8686
 3229TIP3    H231103   1.985   1.110   5.512  0.7015 -0.4255 -2.4921
 3230TIP3   OH231104   0.825   6.418   3.299  0.1965  0.2190  0.4123
 3230TIP3    H131105   0.758   6.416   3.366 -1.9621 -0.3849 -1.6201
 3230TIP3    H231106   0.779   6.447   3.220  2.6725  1.2673 -0.7685
 3231TIP3   OH231107   1.168   6.697  16.794  0.2916 -1.0776  0.0703
 3231TIP3    H131108   1.206   6.744  16.719  2.3453 -2.1704  0.3423
 3231TIP3    H231109   1.128   6.619  16.755  0.5137 -1.1604  0.0043
 3232TIP3   OH231110   4.137   1.601  11.556 -0.3480  0.4880  0.5826
 3232TIP3    H131111   4.222   1.642  11.542 -1.3170  2.6363  0.7031
 3232TIP3    H231112   4.144   1.516  11.511  1.6645  0.8033  0.1821
 3233TIP3   OH231113   5.276   1.612  17.239  0.1357 -0.4311 -0.5704
 3233TIP3    H131114   5.343   1.680  17.242  0.3110 -0.6072 -0.4896
 3233TIP3    H231115   5.240   1.618  17.150  1.0538 -1.0993 -1.0079
 3234TIP3   OH231116   3.991   1.957  13.080 -0.0348 -0.2987  0.3374
 3234TIP3    H131117   4.077   1.963  13.120  0.0999  0.2505 -0.0251
 3234TIP3    H231118   3.939   1.905  13.142  0.0875  0.7547  1.3567
 3235TIP3   OH231119   5.462   2.391  10.172  0.2701  0.2341  0.0112
 3235TIP3    H131120   5.374   2.364  10.143  0.3172  1.2617 -1.1823
 3235TIP3    H231121   5.447   2.459  10.236  0.1937 -0.3518  0.6272
 3236TIP3   OH231122   5.103   2.282   2.667  0.2400 -0.2124  0.1924
 3236TIP3    H131123   5.114   2.249   2.579 -1.2077  0.2547 -0.1987
 3236TIP3    H231124   5.056   2.213   2.714 -1.0782  0.4691 -0.0855
 3237TIP3   OH231125   5.575   1.244  13.073 -0.1866  0.6337  0.1839
 3237TIP3    H131126   5.536   1.288  12.997 -0.1462  0.2874 -0.0361
 3237TIP3    H231127   5.603   1.316  13.130 -1.2266  0.9016  0.3895
 3238TIP3   OH231128   6.309   0.220  16.330  0.1877 -0.1430 -0.0865
 3238TIP3    H131129   6.346   0.285  16.271  1.3941 -0.6806  0.0603
 3238TIP3    H231130   6.330   0.252  16.418  0.0887 -0.3229  0.0048
 3239TIP3   OH231131   2.979   4.736  17.085 -0.4801 -0.3159  0.2767
 3239TIP3    H131132   2.985   4.718  17.179 -0.5701  1.0028  0.5473
 3239TIP3    H231133   2.885   4.748  17.069 -0.5677 -1.4339 -0.1786
 3240TIP3   OH231134   3.973   2.117   5.965  0.3571 -0.0550  0.6554
 3240TIP3    H131135   3.957   2.027   5.993 -1.0748 -0.2322 -0.6367
 3240TIP3    H231136   3.912   2.170   6.016  0.8923  0.1568  1.0932
 3241TIP3   OH231137   4.635   6.688   1.806  0.1706 -0.2134  0.3214
 3241TIP3    H131138   4.664   6.688   1.715  0.0243 -0.9045  0.2732
 3241TIP3    H231139   4.542   6.665   1.802 -0.2482  1.3517  0.5260
 3242TIP3   OH231140   0.786   2.831  11.026 -0.3396 -0.0469 -0.1599
 3242TIP3    H131141   0.843   2.831  10.949 -1.1164 -0.9848 -0.7481
 3242TIP3    H231142   0.707   2.876  10.998 -1.0642 -1.3483 -0.2622
 3243TIP3   OH231143   0.437   5.701   1.806 -0.2305  0.0860  0.1471
 3243TIP3    H131144   0.396   5.753   1.737 -1.5972 -0.9157  0.1771
 3243TIP3    H231145   0.531   5.714   1.793 -0.4296 -0.4099 -2.1918
 3244TIP3   OH231146   6.317   5.071  16.612  0.6162 -0.8651  0.2143
 3244TIP3    H131147   6.256   5.100  16.544  1.4447 -0.3159 -0.3111
 3244TIP3    H231148   6.260   5.038  16.682 -0.3076  0.1033 -0.0410
 3245TIP3   OH231149   4.090   2.409  14.849  0.7670  0.3819 -0.0290
 3245TIP3    H131150   4.007   2.377  14.815  0.6030  0.7140  0.0472
 3245TIP3    H231151   4.155   2.346  14.819  0.6429  0.7113 -1.0441
 3246TIP3   OH231152   5.726   2.938   5.619 -0.2586  0.2416  0.7299
 3246TIP3    H131153   5.810   2.980   5.599 -0.0284 -0.0996  0.9751
 3246TIP3    H231154   5.669   2.963   5.546 -0.1199  0.9680  0.8611
 3247TIP3   OH231155   1.366   6.661  17.014  0.2598  0.0541  0.2114
 3247TIP3    H131156   1.440   6.605  16.991 -0.1037  0.4444 -2.1425
 3247TIP3    H231157   1.325   6.682  16.930 -0.1523  3.1280  1.0576
 3248TIP3   OH231158   0.763   2.335  15.072 -0.2463  0.0229 -0.0026
 3248TIP3    H131159   0.768   2.318  15.166 -1.6254 -0.6677 -0.0254
 3248TIP3    H231160   0.814   2.265  15.032 -1.2661 -0.8238  0.1572
 3249TIP3   OH231161   5.526   5.088  16.222 -0.7782  0.2560  0.3285
 3249TIP3    H131162   5.503   4.999  16.193  1.8512 -0.5506  0.4631
 3249TIP3    H231163   5.540   5.079  16.316 -0.9196  0.9396  0.4197
 3250TIP3   OH231164   6.293   5.725   1.112  0.1230  0.4630 -0.5191
 3250TIP3    H131165   6.319   5.784   1.042  0.3599  0.5970 -0.3186
 3250TIP3    H231166   6.349   5.748   1.186  0.6003 -0.3781 -0.6084
 3251TIP3   OH231167   5.374   0.317  12.983  0.0149 -0.0615  0.3505
 3251TIP3    H131168   5.299   0.312  12.923 -0.9740  0.3376  1.5040
 3251TIP3    H231169   5.443   0.358  12.932 -1.0881  1.1085 -0.2547
 3252TIP3   OH231170   0.339   3.356  14.274 -0.2904  0.1137  0.1732
 3252TIP3    H131171   0.396   3.348  14.351 -0.0551  0.2372  0.0133
 3252TIP3    H231172   0.376   3.429  14.224 -0.0478 -0.3791 -0.3864
 3253TIP3   OH231173   5.921   4.010   1.875  0.1138 -0.3067  0.3164
 3253TIP3    H131174   5.878   3.945   1.819 -1.9799  1.2276  0.0403
 3253TIP3    H231175   5.868   4.011   1.955  0.5019  0.6017  0.5742
 3254TIP3   OH231176   3.719   0.727  15.365  0.2251  0.0728 -0.0481
 3254TIP3    H131177   3.669   0.744  15.285 -0.8414  0.7481  0.7258
 3254TIP3    H231178   3.756   0.640  15.353 -1.3696 -0.5752 -0.5628
 3255TIP3   OH231179   2.293   2.687  16.977  0.0368 -0.1328 -0.4090
 3255TIP3    H131180   2.270   2.775  17.006  0.8987  0.0156 -0.1597
 3255TIP3    H231181   2.209   2.640  16.974 -0.4248  0.6766 -0.5024
 3256TIP3   OH231182   4.320   6.275   3.009  0.1115  0.5040  0.2184
 3256TIP3    H131183   4.382   6.201   3.006  0.6427  0.8685  1.3459
 3256TIP3    H231184   4.376   6.353   3.007 -0.3877  0.8546 -0.0233
 3257TIP3   OH231185   6.578   0.062   1.453  0.8677 -0.1742  0.2371
 3257TIP3    H131186   6.576   0.154   1.479 -0.7760  0.0315 -0.5043
 3257TIP3    H231187   6.509   0.021   1.505  0.6331 -0.6826 -0.4609
 3258TIP3   OH231188   0.465   4.351  14.840  0.3874  0.4043  0.3850
 3258TIP3    H131189   0.449   4.257  14.850  3.8324 -0.3285  0.1064
 3258TIP3    H231190   0.510   4.359  14.756 -1.3291  2.6135 -0.4352
 3259TIP3   OH231191   5.104   5.294   0.841 -0.0947  0.7962  0.2285
 3259TIP3    H131192   5.076   5.218   0.893 -4.2575  0.4952 -1.9756
 3259TIP3    H231193   5.039   5.361   0.860  2.2569  3.1602  0.4781
 3260TIP3   OH231194   6.030   2.783   1.215  0.1631 -0.0510 -0.1578
 3260TIP3    H131195   5.963   2.772   1.147  1.9671  0.1803 -2.0678
 3260TIP3    H231196   6.056   2.874   1.209 -0.3104  0.2397  1.5773
 3261TIP3   OH231197   6.722   0.697   0.950  0.5848 -0.4306  0.1602
 3261TIP3    H131198   6.634   0.723   0.922  0.3356 -0.4682  0.8739
 3261TIP3    H231199   6.781   0.750   0.897  0.1229 -0.0986 -0.0273
 3262TIP3   OH231200   6.194   4.977  15.626  0.2043 -0.2320  0.3424
 3262TIP3    H131201   6.145   4.914  15.573  1.0796 -0.0482 -0.7167
 3262TIP3    H231202   6.192   4.940  15.714  0.5678 -1.6890 -0.2174
 3263TIP3   OH231203   6.750   1.988  16.893 -0.1502 -0.5465 -0.0198
 3263TIP3    H131204   6.679   1.966  16.833 -0.4506  0.0090  0.1277
 3263TIP3    H231205   6.714   1.968  16.980  0.0925 -0.8394  0.0151
 3264TIP3   OH231206   5.906   2.031   0.909 -0.1885  0.2824 -0.0263
 3264TIP3    H131207   5.927   1.944   0.943 -2.0466 -0.0796  0.2692
 3264TIP3    H231208   5.959   2.091   0.962  0.5381 -0.5951  0.2733
 3265TIP3   OH231209   3.486   1.088  13.134  0.4609 -0.2968 -0.5232
 3265TIP3    H131210   3.494   1.152  13.064  1.5026  0.4062  0.2156
 3265TIP3    H231211   3.574   1.053  13.145  0.0284 -1.4037 -0.4902
 3266TIP3   OH231212   3.136   3.872  16.663 -0.3742 -0.0362  0.4837
 3266TIP3    H131213   3.063   3.928  16.689 -1.1401 -0.5279 -0.5580
 3266TIP3    H231214   3.105   3.783  16.680  0.6247 -0.1983  1.5919
 3267TIP3   OH231215   2.666   1.907   2.580 -0.4852  0.0506 -0.0921
 3267TIP3    H131216   2.656   1.955   2.662  0.1213 -0.4015  0.2556
 3267TIP3    H231217   2.585   1.923   2.532 -0.9464  0.1096  0.7071
 3268TIP3   OH231218   6.651   3.878   5.849  0.0772 -0.2691 -0.4265
 3268TIP3    H131219   6.632   3.784   5.853 -0.5970 -0.1200  0.0689
 3268TIP3    H231220   6.716   3.886   5.779  0.5034 -1.1577 -0.1460
 3269TIP3   OH231221   5.918   4.040   0.681  0.4752  0.2178  0.1110
 3269TIP3    H131222   5.896   4.128   0.650  1.3321  0.2759 -0.3503
 3269TIP3    H231223   5.963   4.055   0.764  2.1880  0.3435 -0.8007
 3270TIP3   OH231224   3.698   1.522  14.651  0.2311  0.1673 -0.0998
 3270TIP3    H131225   3.704   1.567  14.567  0.4361  1.2382  0.4709
 3270TIP3    H231226   3.610   1.484  14.651  0.1063  0.4397 -0.6523
 3271TIP3   OH231227   2.350   2.809  11.459  0.1028 -0.0084 -0.0503
 3271TIP3    H131228   2.438   2.785  11.430  0.1021 -1.8334  1.2727
 3271TIP3    H231229   2.356   2.814  11.555 -1.2798 -0.4654  0.0927
 3272TIP3   OH231230   4.267   4.467  12.998 -0.0598  0.4116 -0.0834
 3272TIP3    H131231   4.315   4.386  12.982 -1.4972 -0.2636 -1.1813
 3272TIP3    H231232   4.195   4.465  12.936  0.2903  2.9267 -0.6752
 3273TIP3   OH231233   6.578   3.149  14.203 -0.0023 -1.0992 -0.3657
 3273TIP3    H131234   6.667   3.164  14.235 -0.7308  2.5902  0.3571
 3273TIP3    H231235   6.590   3.119  14.113  1.9940 -0.8632 -0.2184
 3274TIP3   OH231236   0.691   3.867  15.779 -0.0476  0.5691 -1.0238
 3274TIP3    H131237   0.685   3.957  15.747 -1.1642  1.1793  0.7333
 3274TIP3    H231238   0.737   3.875  15.863 -0.0847 -0.5012 -0.8896
 3275TIP3   OH231239   1.554   5.528   5.040 -0.5911  0.3166  0.3055
 3275TIP3    H131240   1.645   5.549   5.062 -0.9744  0.0565  2.3437
 3275TIP3    H231241   1.560   5.447   4.988  0.2432 -1.5208  3.0527
 3276TIP3   OH231242   0.491   3.874   6.722  0.4186  0.3627 -0.3161
 3276TIP3    H131243   0.580   3.905   6.737  0.8590  0.2894 -2.5165
 3276TIP3    H231244   0.497   3.815   6.647 -1.6263  1.2201 -1.2518
 3277TIP3   OH231245   5.864   2.450  16.675  0.5708 -0.5162  0.2367
 3277TIP3    H131246   5.888   2.430  16.765 -0.4195 -0.3839  0.5460
 3277TIP3    H231247   5.779   2.493  16.682  0.5489 -0.3755 -0.7502
 3278TIP3   OH231248   0.587   5.527  17.328 -0.0868 -0.6801  0.6879
 3278TIP3    H131249   0.574   5.555  17.237 -1.1324 -0.0316  1.0264
 3278TIP3    H231250   0.505   5.484  17.352 -0.1814  0.0185  1.6438
 3279TIP3   OH231251   3.515   6.438  15.213 -0.2816 -0.0638  0.1315
 3279TIP3    H131252   3.449   6.433  15.143 -2.4282  2.4860  1.7751
 3279TIP3    H231253   3.574   6.507  15.184 -1.3592  1.2234  0.8724
 3280TIP3   OH231254   2.894   3.721  13.107 -0.0683  0.0451  0.2556
 3280TIP3    H131255   2.893   3.782  13.181  0.5315  1.3536 -0.7704
 3280TIP3    H231256   2.861   3.638  13.143 -0.5282  0.8610  1.7814
 3281TIP3   OH231257   1.384   0.658   0.175 -0.1945  0.1220 -0.1116
 3281TIP3    H131258   1.295   0.689   0.194  0.2704  0.0963  2.5479
 3281TIP3    H231259   1.439   0.702   0.241  1.8937  0.6054 -2.0546
 3282TIP3   OH231260   5.361   2.423  11.756 -0.2510  0.2795 -0.1942
 3282TIP3    H131261   5.322   2.510  11.759 -2.8748 -0.7838 -0.1444
 3282TIP3    H231262   5.328   2.380  11.835  1.3494 -0.6408  0.0089
 3283TIP3   OH231263   4.730   4.496  12.577 -0.2881 -0.1806  0.1660
 3283TIP3    H131264   4.695   4.407  12.584  1.2565 -0.7392  1.1081
 3283TIP3    H231265   4.806   4.497  12.634 -0.1025  1.6813 -0.0517
 3284TIP3   OH231266   5.252   1.872   5.070 -0.4490  0.3488 -0.6334
 3284TIP3    H131267   5.213   1.860   5.156 -1.8633 -0.5374 -1.3537
 3284TIP3    H231268   5.201   1.942   5.029 -0.0873  0.4519 -0.9152
 3285TIP3   OH231269   4.983   1.275  14.888  0.0878 -0.0537  0.2894
 3285TIP3    H131270   4.999   1.346  14.950  1.8857  1.1110 -1.4024
 3285TIP3    H231271   4.913   1.308  14.831 -1.4011 -1.0315  1.4549
 3286TIP3   OH231272   4.030   6.638   0.450 -0.0017 -0.3293 -0.3191
 3286TIP3    H131273   4.002   6.568   0.509  0.3059  0.6065  0.9732
 3286TIP3    H231274   3.963   6.705   0.459  1.0652  0.6628  0.5327
 3287TIP3   OH231275   4.539   2.848  12.833  0.0412  0.5165 -0.0971
 3287TIP3    H131276   4.516   2.790  12.905  0.5360 -0.3273 -0.5977
 3287TIP3    H231277   4.552   2.933  12.874 -1.4390  0.4706  0.5524
 3288TIP3   OH231278   2.829   6.398   0.029 -0.6527  0.1460  0.0253
 3288TIP3    H131279   2.873   6.370  -0.051 -0.1232 -1.3918  0.7972
 3288TIP3    H231280   2.877   6.352   0.099 -0.3108  2.3589  1.3533
 3289TIP3   OH231281   4.122   5.182   4.602  0.6891  0.0182 -0.3694
 3289TIP3    H131282   4.123   5.132   4.684 -0.8161  2.4412  1.2472
 3289TIP3    H231283   4.047   5.146   4.553  0.4450 -0.2094  0.1664
 3290TIP3   OH231284   2.138   6.443   2.812 -0.0765  0.3862  0.4617
 3290TIP3    H131285   2.061   6.397   2.847  0.6684 -2.3498 -1.1430
 3290TIP3    H231286   2.120   6.450   2.718  1.5579 -0.2660  0.0722
 3291TIP3   OH231287   1.287   3.857  16.011  0.0729  0.2111  0.1269
 3291TIP3    H131288   1.336   3.886  15.935  0.7673 -0.5615  0.2587
 3291TIP3    H231289   1.352   3.814  16.066 -0.5047  0.3638  0.9448
 3292TIP3   OH231290   4.446   2.922   1.940 -0.4257 -0.7086 -0.6934
 3292TIP3    H131291   4.437   3.007   1.897  1.4605  0.1998  0.5177
 3292TIP3    H231292   4.369   2.872   1.914 -1.6050  1.3907 -1.4094
 3293TIP3   OH231293   3.499   3.641   0.898  0.2937  0.0925  0.3565
 3293TIP3    H131294   3.565   3.612   0.960  1.8041 -0.3161 -1.3635
 3293TIP3    H231295   3.544   3.644   0.814 -1.5826  0.9461 -0.6907
 3294TIP3   OH231296   0.416   0.451   1.941 -0.0645 -0.0826  0.5185
 3294TIP3    H131297   0.481   0.507   1.898  1.0723 -0.6280  1.4783
 3294TIP3    H231298   0.389   0.501   2.018  2.7308 -1.6866  2.7549
 3295TIP3   OH231299   0.932   6.200   4.065  0.7593  0.3032 -0.6669
 3295TIP3    H131300   0.991   6.140   4.019  2.7670  0.7966  1.1016
 3295TIP3    H231301   0.876   6.143   4.118  1.6608 -0.0841 -0.1131
 3296TIP3   OH231302   0.542   2.136   4.208 -0.0528 -0.2702  0.0213
 3296TIP3    H131303   0.622   2.174   4.174  0.6495 -1.3700  0.3743
 3296TIP3    H231304   0.568   2.048   4.236 -1.2143 -0.3712  0.8372
 3297TIP3   OH231305   2.439   4.224  13.430  0.2096 -0.3105 -0.7929
 3297TIP3    H131306   2.393   4.169  13.494  0.4547 -0.9324 -1.1517
 3297TIP3    H231307   2.370   4.254  13.371 -0.1597  0.9238  0.1978
 3298TIP3   OH231308   6.546   4.656   4.113 -0.7922 -0.5024 -0.2452
 3298TIP3    H131309   6.607   4.698   4.051 -1.4504 -2.7404 -2.5534
 3298TIP3    H231310   6.589   4.667   4.198  0.8029  1.5792 -1.2061
 3299TIP3   OH231311   2.083   5.300   1.225 -0.3642 -0.6181  0.0473
 3299TIP3    H131312   2.138   5.252   1.163  0.1997 -1.0673  0.8875
 3299TIP3    H231313   2.142   5.362   1.267 -0.5887 -0.8263  0.6742
 3300TIP3   OH231314   1.107   0.840  11.837 -0.3259 -0.3295 -0.0763
 3300TIP3    H131315   1.117   0.829  11.932 -0.5017 -0.5737 -0.0870
 3300TIP3    H231316   1.017   0.814  11.819 -0.6467  0.7983 -0.1501
 3301TIP3   OH231317   2.916   2.459  10.596  0.4905  0.2255 -0.0502
 3301TIP3    H131318   2.871   2.376  10.608 -0.7663  1.0128  0.9517
 3301TIP3    H231319   2.877   2.497  10.517  0.0854  0.4507  0.2502
 3302TIP3   OH231320   5.027   5.519  11.081  0.2736 -0.7036  0.1825
 3302TIP3    H131321   5.083   5.555  11.012  0.7456  0.2380  1.0445
 3302TIP3    H231322   4.941   5.513  11.040 -0.2100  2.7811  0.3404
 3303TIP3   OH231323   5.189   3.322  11.074  0.2580 -0.8264 -0.2508
 3303TIP3    H131324   5.277   3.358  11.078 -1.0155  2.5063  1.9158
 3303TIP3    H231325   5.149   3.365  10.998  0.2306 -1.7785 -0.7961
 3304TIP3   OH231326   3.267   1.277   1.161 -0.8456  0.1363  0.0374
 3304TIP3    H131327   3.206   1.322   1.103  1.7145  1.9922 -1.3841
 3304TIP3    H231328   3.248   1.312   1.248 -2.7077 -0.4283 -0.0944
 3305TIP3   OH231329   5.446   0.651   4.300  0.1889  0.3360 -0.1166
 3305TIP3    H131330   5.400   0.709   4.362 -0.3370 -0.9963  0.7721
 3305TIP3    H231331   5.376   0.613   4.248  0.5436  0.5288 -0.7397
 3306TIP3   OH231332   4.433   5.009   3.988  0.5983  0.1309  0.3648
 3306TIP3    H131333   4.504   4.974   4.041  0.0715 -0.2865  0.8157
 3306TIP3    H231334   4.416   5.096   4.025  0.1336 -0.2181  0.9908
 3307TIP3   OH231335   4.243   6.113  16.448  0.5938 -0.0154 -0.2491
 3307TIP3    H131336   4.151   6.130  16.429  0.3847  1.9084  2.0185
 3307TIP3    H231337   4.242   6.064  16.530  1.5486  1.2357  0.5563
 3308TIP3   OH231338   5.977   5.213   0.353 -0.0756  0.4997 -0.1452
 3308TIP3    H131339   5.906   5.149   0.360 -0.0599  0.3597 -1.0708
 3308TIP3    H231340   5.947   5.274   0.285  1.3783 -0.5198 -1.7693
 3309TIP3   OH231341   0.225   4.838   4.357 -0.3560 -0.8173 -0.2254
 3309TIP3    H131342   0.286   4.813   4.287 -0.8429 -0.7210 -0.6873
 3309TIP3    H231343   0.195   4.925   4.332  0.8207 -0.0076  1.0275
 3310TIP3   OH231344   6.040   1.910  11.290 -0.0173  0.2924 -0.7947
 3310TIP3    H131345   5.998   1.838  11.337  2.3459 -0.9779 -0.4802
 3310TIP3    H231346   6.038   1.884  11.198  1.6979 -0.7388 -0.5889
 3311TIP3   OH231347   1.669   5.077   0.862  0.1387  0.4633  0.4659
 3311TIP3    H131348   1.723   5.035   0.796  1.4869  2.0911  0.4748
 3311TIP3    H231349   1.679   5.171   0.846 -1.8066  0.8360  1.1846
 3312TIP3   OH231350   0.734   0.976   4.163 -0.0466  0.3948  0.3099
 3312TIP3    H131351   0.793   1.051   4.154 -0.2563  0.5268  0.0243
 3312TIP3    H231352   0.654   1.012   4.200 -0.1318  0.3045  0.2145
 3313TIP3   OH231353   6.688   6.099   3.252 -0.1758  0.0072  0.0297
 3313TIP3    H131354   6.714   6.064   3.338  1.2921 -0.6987 -0.6689
 3313TIP3    H231355   6.699   6.194   3.261 -1.9788  0.1625  1.2151
 3314TIP3   OH231356   3.940   3.352   5.615 -0.4651  0.3282  0.3743
 3314TIP3    H131357   3.860   3.298   5.612  0.3445 -0.8920  0.1127
 3314TIP3    H231358   3.912   3.437   5.581 -1.6819 -0.0390  0.3778
 3315TIP3   OH231359   3.386   3.739   5.678 -0.1467  0.0470 -0.2935
 3315TIP3    H131360   3.470   3.781   5.695  0.5640 -0.4337 -2.3232
 3315TIP3    H231361   3.322   3.796   5.720  0.9720  1.8738 -0.9698
 3316TIP3   OH231362   0.200   3.983  11.724  0.2094 -0.4458  0.4003
 3316TIP3    H131363   0.167   3.894  11.740  0.3914 -0.5461  0.2279
 3316TIP3    H231364   0.280   3.970  11.673 -0.9967 -0.1096 -1.6971
 3317TIP3   OH231365   4.091   4.124   5.048 -0.2733  0.2559 -0.6333
 3317TIP3    H131366   4.069   4.216   5.056  3.0649  1.0183  1.6821
 3317TIP3    H231367   4.058   4.084   5.128 -0.6529 -0.3655 -1.0842
 3318TIP3   OH231368   0.400   6.140   5.624 -0.2284 -0.0730 -0.1317
 3318TIP3    H131369   0.394   6.222   5.673  2.4930  0.3940 -0.3968
 3318TIP3    H231370   0.404   6.073   5.692  1.0312  0.3604  0.2584
 3319TIP3   OH231371   3.335   5.495  11.472  0.3782  0.2540 -0.3153
 3319TIP3    H131372   3.255   5.502  11.419 -0.5546  1.1508  1.1430
 3319TIP3    H231373   3.342   5.580  11.515 -0.1242 -1.0822  2.6427
 3320TIP3   OH231374   1.953   4.802  13.806  0.5876 -0.0774  0.0413
 3320TIP3    H131375   2.033   4.803  13.858  1.2925  0.4258 -1.0192
 3320TIP3    H231376   1.972   4.860  13.732 -1.0288  0.6570  0.1640
 3321TIP3   OH231377   4.411   3.462   1.979 -0.1893 -0.7848 -0.6544
 3321TIP3    H131378   4.383   3.544   1.939 -1.6200 -0.4612  0.9286
 3321TIP3    H231379   4.506   3.461   1.967 -0.2156  0.8386 -1.1660
 3322TIP3   OH231380   5.118   6.067   5.068  0.2416 -0.0876  0.4802
 3322TIP3    H131381   5.173   6.083   4.991  0.5116 -1.3885  0.3813
 3322TIP3    H231382   5.028   6.068   5.034  0.2058  1.6053  0.5658
 3323TIP3   OH231383   5.285   0.797  15.748 -0.3704 -0.4251 -0.1815
 3323TIP3    H131384   5.266   0.849  15.669  0.8457 -0.1094 -0.2794
 3323TIP3    H231385   5.302   0.862  15.816  2.6875 -0.5904 -0.6613
 3324TIP3   OH231386   1.296   1.300   5.345 -0.2525 -0.3646 -0.6856
 3324TIP3    H131387   1.288   1.244   5.267  1.0723 -0.6315 -0.6635
 3324TIP3    H231388   1.368   1.261   5.395 -0.6197  0.2157  0.3291
 3325TIP3   OH231389   0.103   2.912  11.701 -0.3622 -0.0157  0.5693
 3325TIP3    H131390   0.068   2.828  11.672 -1.9452  1.0125 -0.6347
 3325TIP3    H231391   0.132   2.955  11.621  1.1373  0.3136  1.2563
 3326TIP3   OH231392   0.996   2.093  10.906  0.4814  0.5293  0.0860
 3326TIP3    H131393   0.918   2.061  10.952 -0.0117  1.3824 -0.1331
 3326TIP3    H231394   1.048   2.014  10.889 -0.1821 -0.0127  0.5168
 3327TIP3   OH231395   1.159   2.920  15.029 -0.0490 -0.0266 -0.0776
 3327TIP3    H131396   1.230   2.859  15.048 -0.2757 -0.2149  0.1775
 3327TIP3    H231397   1.203   3.000  15.001  0.2950  0.0634  0.6731
 3328TIP3   OH231398   3.032   2.396   3.785  1.1293  0.1656  0.7234
 3328TIP3    H131399   3.092   2.463   3.752 -1.4014  2.1738 -0.1768
 3328TIP3    H231400   3.032   2.408   3.880  1.0078  1.2146  0.5990
 3329TIP3   OH231401   0.122   4.259   1.158 -0.5451  0.5936  0.3042
 3329TIP3    H131402   0.081   4.314   1.225  0.4503  2.7720 -0.8074
 3329TIP3    H231403   0.087   4.292   1.075  1.1331  0.4712 -0.4782
 3330TIP3   OH231404   4.155   4.047   3.593  0.5492 -0.1842  0.3431
 3330TIP3    H131405   4.099   3.990   3.646  0.6710  0.7069  1.4869
 3330TIP3    H231406   4.170   3.998   3.512 -1.6984 -0.5372  0.0865
 3331TIP3   OH231407   5.680   1.005   1.376  0.4631  0.1426  0.4235
 3331TIP3    H131408   5.589   1.033   1.368  0.9257  1.3090 -1.2566
 3331TIP3    H231409   5.723   1.076   1.423  0.4807 -0.5292  1.4567
 3332TIP3   OH231410   1.548   1.586  12.750  0.3309 -0.0498  0.2225
 3332TIP3    H131411   1.633   1.565  12.791  0.5091  1.6854  0.8027
 3332TIP3    H231412   1.570   1.614  12.661  0.2171 -0.9459 -0.0983
 3333TIP3   OH231413   3.617   0.955  12.407 -0.6490  0.1726 -0.3587
 3333TIP3    H131414   3.530   0.927  12.433 -0.9451  1.8514  0.6656
 3333TIP3    H231415   3.608   1.048  12.388  0.6668  0.0976 -1.5272
 3334TIP3   OH231416   2.327   5.062   1.933  0.2378 -0.2756  0.4659
 3334TIP3    H131417   2.244   5.110   1.940 -0.2282 -1.1089  0.8279
 3334TIP3    H231418   2.320   4.992   1.998  1.5412  0.0739  1.0201
 3335TIP3   OH231419   2.945   2.082   1.669 -0.1341 -0.0678  0.1185
 3335TIP3    H131420   3.040   2.086   1.664 -0.0255  1.0475  1.9930
 3335TIP3    H231421   2.919   2.165   1.709 -1.8396 -0.6497  0.3399
 3336TIP3   OH231422   6.090   0.835   4.841 -0.6419 -0.3834  0.3612
 3336TIP3    H131423   6.070   0.885   4.762  0.6490 -0.6063 -0.1159
 3336TIP3    H231424   6.020   0.860   4.902 -0.9204  0.7925 -0.3945
 3337TIP3   OH231425   6.119   0.108  14.566 -0.0932 -0.2552 -0.1092
 3337TIP3    H131426   6.206   0.117  14.529  0.8465  0.1069  2.0345
 3337TIP3    H231427   6.109   0.184  14.624 -2.2887  0.3202 -1.1111
 3338TIP3   OH231428   3.941   5.071   0.972 -0.3104 -0.4042 -0.3914
 3338TIP3    H131429   3.960   4.987   1.013 -2.7063 -1.1447 -0.6595
 3338TIP3    H231430   3.875   5.051   0.906  0.8922  1.3100 -2.2540
 3339TIP3   OH231431   5.787   5.407  12.127 -0.4879 -0.5912 -0.4310
 3339TIP3    H131432   5.782   5.492  12.170 -0.2928 -0.5618 -0.4654
 3339TIP3    H231433   5.881   5.387  12.125 -0.5468 -0.8752 -0.2861
 3340TIP3   OH231434   1.052   0.352  13.368 -0.3514 -0.0472 -0.1299
 3340TIP3    H131435   1.020   0.296  13.297  0.2879  0.5079 -0.8694
 3340TIP3    H231436   1.116   0.410  13.326 -0.4405  0.7249  0.7694
 3341TIP3   OH231437   6.430   4.319   4.879  0.2045  0.3319 -0.1800
 3341TIP3    H131438   6.365   4.294   4.946  1.2357 -1.1317  0.3295
 3341TIP3    H231439   6.487   4.242   4.872 -0.3330  0.0911 -3.3565
 3342TIP3   OH231440   5.031   2.604   5.074  0.3332  0.1822 -0.4067
 3342TIP3    H131441   5.099   2.537   5.064  0.8423  0.9375 -2.2571
 3342TIP3    H231442   5.077   2.687   5.063 -0.7786  0.7184 -1.1591
 3343TIP3   OH231443   3.866   5.790   0.895  0.1483  0.7561  0.2767
 3343TIP3    H131444   3.860   5.727   0.823 -0.0725 -0.6033  1.4371
 3343TIP3    H231445   3.935   5.850   0.869  0.5289 -0.1122 -0.7690
 3344TIP3   OH231446   3.841   5.481   2.459 -0.5403  0.1190  0.6664
 3344TIP3    H131447   3.924   5.456   2.418 -0.7068  0.3152  0.1972
 3344TIP3    H231448   3.864   5.555   2.515 -0.9192  2.4567 -2.0383
 3345TIP3   OH231449   4.591   5.613   2.497 -0.0854 -0.0905  0.0422
 3345TIP3    H131450   4.660   5.612   2.431 -0.8774  1.4428 -0.8750
 3345TIP3    H231451   4.582   5.705   2.521 -1.3141 -0.3522  0.6746
 3346TIP3   OH231452   5.330   3.473  13.871  0.0261  0.6022 -0.2971
 3346TIP3    H131453   5.425   3.485  13.870 -0.1420  2.1577 -1.4701
 3346TIP3    H231454   5.308   3.471  13.964  1.1122  0.9934 -0.0090
 3347TIP3   OH231455   3.396   3.869   2.209 -0.6091 -0.4411 -0.1922
 3347TIP3    H131456   3.465   3.934   2.219 -0.6586 -0.6666  1.9459
 3347TIP3    H231457   3.438   3.786   2.229 -1.1613 -0.7502 -0.2806
 3348TIP3   OH231458   3.801   3.099  15.492 -0.0984  0.1729 -0.0711
 3348TIP3    H131459   3.865   3.039  15.454  0.0851  1.2664 -1.5783
 3348TIP3    H231460   3.847   3.183  15.498 -1.1335  0.7836 -0.4091
 3349TIP3   OH231461   2.559   2.216   2.761  0.1504 -0.7096  0.6284
 3349TIP3    H131462   2.470   2.217   2.798 -0.0658  0.9709  0.1748
 3349TIP3    H231463   2.606   2.151   2.813 -0.8542 -0.3068  2.1206
 3350TIP3   OH231464   0.545   2.200  14.428  0.2983 -0.5526  0.2781
 3350TIP3    H131465   0.461   2.241  14.451 -0.8761 -1.0967 -2.5938
 3350TIP3    H231466   0.593   2.195  14.511 -1.6141  1.7597  1.6430
 3351TIP3   OH231467   2.962   4.991  15.699  0.4572 -0.0115 -0.1205
 3351TIP3    H131468   2.981   4.972  15.607 -0.3198  1.0090 -0.5052
 3351TIP3    H231469   3.048   4.991  15.741  0.7945 -0.7778 -0.7774
 3352TIP3   OH231470   1.090   6.290  17.038  0.9975 -0.1269  0.0854
 3352TIP3    H131471   1.082   6.378  17.075 -1.8203  0.8432 -2.4560
 3352TIP3    H231472   1.013   6.244  17.071 -0.2633  0.0202 -2.4450
 3353TIP3   OH231473   6.619   1.962   2.425 -0.4372  0.0420  0.1884
 3353TIP3    H131474   6.594   1.887   2.372 -0.8622  1.3784 -1.5924
 3353TIP3    H231475   6.714   1.968   2.417 -0.4272 -0.1674  0.1581
 3354TIP3   OH231476   4.652   5.090  13.937 -0.5692 -0.5585 -0.6712
 3354TIP3    H131477   4.737   5.120  13.968 -0.0170 -0.8781 -1.8125
 3354TIP3    H231478   4.599   5.081  14.016  0.5234 -0.5809  0.0792
 3355TIP3   OH231479   4.573   3.236   1.198  0.0665  0.1596 -0.1206
 3355TIP3    H131480   4.564   3.176   1.125  2.0221 -0.2541 -0.0791
 3355TIP3    H231481   4.559   3.182   1.276 -0.0965  0.1864 -0.1304
 3356TIP3   OH231482   3.126   1.642   1.172 -0.2761  0.4456  0.4088
 3356TIP3    H131483   3.081   1.577   1.117  1.0637 -0.3175  0.1811
 3356TIP3    H231484   3.189   1.684   1.113  0.0909  0.7212  0.9926
 3357TIP3   OH231485   1.059   3.912  17.038  0.1135  0.2564 -0.3289
 3357TIP3    H131486   1.135   3.889  16.984  0.6123  1.6919 -0.2600
 3357TIP3    H231487   0.984   3.897  16.980  0.3327 -1.9000 -0.1632
 3358TIP3   OH231488   4.678   1.881  15.421  0.2092 -0.6202 -0.1128
 3358TIP3    H131489   4.672   1.853  15.512 -0.5552  0.9221  0.3478
 3358TIP3    H231490   4.593   1.860  15.383 -0.1874  0.5250  0.0994
 3359TIP3   OH231491   2.607   5.616   5.454 -0.3732  0.2465 -0.1275
 3359TIP3    H131492   2.616   5.677   5.527 -2.4118  3.5405 -2.3670
 3359TIP3    H231493   2.512   5.606   5.443 -0.1119 -0.4733 -2.0218
 3360TIP3   OH231494   6.370   5.302  13.608 -0.8101 -0.5156  0.8193
 3360TIP3    H131495   6.297   5.359  13.585  1.8958  2.8306 -0.3143
 3360TIP3    H231496   6.368   5.232  13.542 -1.2175  1.3132 -1.2196
 3361TIP3   OH231497   3.406   6.606  16.401  0.2215 -0.2480  0.0357
 3361TIP3    H131498   3.426   6.577  16.490 -1.2630 -1.7311 -0.0745
 3361TIP3    H231499   3.430   6.532  16.346 -2.0293 -0.6952 -0.4301
 3362TIP3   OH231500   3.236   2.903  12.771  0.2182  0.9804 -0.3509
 3362TIP3    H131501   3.230   2.835  12.704 -0.7107  0.6541  0.0521
 3362TIP3    H231502   3.267   2.981  12.724  0.1079  0.6095 -1.0464
 3363TIP3   OH231503   6.278   2.820   2.423  0.0429 -0.3693  0.1383
 3363TIP3    H131504   6.234   2.743   2.460  0.1583 -0.5225 -0.0398
 3363TIP3    H231505   6.260   2.890   2.485 -0.6426 -0.3753 -0.0440
 3364TIP3   OH231506   1.996   0.638   4.142  0.5462 -0.2503 -0.7475
 3364TIP3    H131507   2.034   0.553   4.123 -2.2470 -1.8198  0.0350
 3364TIP3    H231508   2.055   0.677   4.207 -0.0288 -3.3611  1.9041
 3365TIP3   OH231509   3.533   4.296   4.160 -0.8613  0.1506 -0.4621
 3365TIP3    H131510   3.611   4.334   4.200 -0.7277 -0.5028 -0.0930
 3365TIP3    H231511   3.561   4.269   4.072 -1.3956  2.4695 -1.4401
 3366TIP3   OH231512   2.902   0.357   4.739 -0.2895 -0.2429  0.0053
 3366TIP3    H131513   2.866   0.420   4.801  1.1428 -1.0814  1.7879
 3366TIP3    H231514   2.987   0.332   4.776  0.2423 -1.4408 -1.8638
 3367TIP3   OH231515   2.997   4.459  12.286 -0.1306  0.0445  0.1828
 3367TIP3    H131516   2.996   4.370  12.249  0.0904  0.8255 -1.8118
 3367TIP3    H231517   3.088   4.486  12.283 -0.2103  0.3852  0.6955
 3368TIP3   OH231518   4.145   6.175   0.150  0.0259  0.3853  0.7290
 3368TIP3    H131519   4.206   6.155   0.080 -0.6771 -1.0097  0.4583
 3368TIP3    H231520   4.059   6.154   0.114 -0.4247  0.3964  1.7383
 3369TIP3   OH231521   1.270   4.556  12.802 -0.4525 -0.0653  0.2530
 3369TIP3    H131522   1.313   4.611  12.737  0.7662 -0.5885  0.5840
 3369TIP3    H231523   1.185   4.535  12.763  0.4295 -0.7815 -1.4231
 3370TIP3   OH231524   1.622   4.211   3.870 -0.1249 -0.3612 -0.3844
 3370TIP3    H131525   1.635   4.198   3.776  0.6940  0.0277 -0.3256
 3370TIP3    H231526   1.608   4.122   3.904 -0.7989 -0.4747 -0.9156
 3371TIP3   OH231527   3.893   0.105  16.803 -0.5880  0.5266  0.0639
 3371TIP3    H131528   3.930   0.176  16.855 -0.1484 -0.4903  1.1807
 3371TIP3    H231529   3.810   0.140  16.770 -0.3084  1.5981  0.4520
 3372TIP3   OH231530   2.373   5.096   6.765 -0.4894  0.1375 -0.5456
 3372TIP3    H131531   2.377   5.178   6.815 -0.0286  0.5160 -1.1982
 3372TIP3    H231532   2.283   5.093   6.732 -0.3160  0.7236 -1.0903
 3373TIP3   OH231533   3.345   0.364  15.896 -0.5067  0.4906 -0.2143
 3373TIP3    H131534   3.299   0.319  15.825 -2.8493  1.7784  0.3641
 3373TIP3    H231535   3.298   0.339  15.975 -1.2172  2.9734  0.2486
 3374TIP3   OH231536   0.032   3.138   5.246 -0.2503 -0.0848  0.1608
 3374TIP3    H131537   0.034   3.108   5.155  0.1493 -0.3867  0.2686
 3374TIP3    H231538   0.077   3.069   5.295  0.7779  0.7363  0.3971
 3375TIP3   OH231539   6.448   3.603  17.236 -0.4136  0.6207 -0.1378
 3375TIP3    H131540   6.447   3.656  17.316 -3.4792 -0.1713  0.4566
 3375TIP3    H231541   6.418   3.517  17.264  1.6698 -0.6780 -1.6233
 3376TIP3   OH231542   1.986   4.095  14.329 -0.4714  0.1368 -0.2101
 3376TIP3    H131543   2.000   4.024  14.266  2.5408  0.0322  0.4232
 3376TIP3    H231544   2.032   4.066  14.408 -2.3476  1.2092  1.3781
 3377TIP3   OH231545   4.922   5.914  13.415 -0.1207 -0.7656 -0.7009
 3377TIP3    H131546   4.986   5.985  13.426  0.7509 -1.7850  1.3301
 3377TIP3    H231547   4.851   5.937  13.475 -1.4125  0.0090 -2.4500
 3378TIP3   OH231548   0.313   4.240  15.104 -0.5310 -0.1898  0.4633
 3378TIP3    H131549   0.399   4.266  15.135 -0.5684  1.3303 -0.6204
 3378TIP3    H231550   0.330   4.180  15.032 -0.2786  1.7451 -1.1655
 3379TIP3   OH231551   2.899   0.102  17.221  0.3773  0.7555 -0.1381
 3379TIP3    H131552   2.946   0.019  17.209  1.3868  1.5254 -1.8252
 3379TIP3    H231553   2.969   0.166  17.236 -0.2720  1.6048 -0.7161
 3380TIP3   OH231554   3.798   2.431   4.603  0.1190  0.6929 -0.0268
 3380TIP3    H131555   3.751   2.372   4.543 -1.1157  2.5953 -1.0108
 3380TIP3    H231556   3.741   2.436   4.680  1.8519 -2.0013  1.6035
 3381TIP3   OH231557   1.159   0.985  11.562  0.0932 -0.2004  0.2919
 3381TIP3    H131558   1.142   0.891  11.551  1.0178 -0.4293  0.7022
 3381TIP3    H231559   1.244   0.999  11.521  0.2278  0.3424  0.7403
 3382TIP3   OH231560   2.836   5.153   1.542  0.0402 -0.9130  0.3611
 3382TIP3    H131561   2.823   5.210   1.466  1.3346 -1.9891 -0.7333
 3382TIP3    H231562   2.795   5.200   1.615 -1.6913 -0.0878 -1.0821
 3383TIP3   OH231563   6.016   3.107  15.216  0.2613 -0.8618 -0.8557
 3383TIP3    H131564   5.952   3.136  15.281 -0.2440 -3.3734 -0.1584
 3383TIP3    H231565   5.967   3.102  15.134  0.1679 -0.5300 -0.8211
 3384TIP3   OH231566   1.904   6.148  13.066 -0.2868  0.0157 -0.0679
 3384TIP3    H131567   1.918   6.160  12.972  0.3902  4.0423  0.3863
 3384TIP3    H231568   1.979   6.095  13.095 -0.8654 -1.8798 -1.7837
 3385TIP3   OH231569   0.643   5.367  14.146 -0.0170  0.0480  0.5080
 3385TIP3    H131570   0.635   5.328  14.233  1.1707  0.3358  0.7619
 3385TIP3    H231571   0.661   5.460  14.163  0.3112  0.0896 -0.0489
 3386TIP3   OH231572   0.860   1.300  14.076 -0.4119 -0.0130  0.0379
 3386TIP3    H131573   0.858   1.210  14.109  0.5573 -0.3081 -0.6609
 3386TIP3    H231574   0.945   1.308  14.032 -0.8540  0.9598 -0.6975
 3387TIP3   OH231575   1.091   6.135   3.062  0.1749 -0.1578 -0.3450
 3387TIP3    H131576   1.156   6.066   3.050  0.0447 -0.8198  2.1698
 3387TIP3    H231577   1.014   6.104   3.015  0.8008 -0.6905 -1.0400
 3388TIP3   OH231578   2.450   0.357  11.729  1.1707  0.6560  0.4203
 3388TIP3    H131579   2.501   0.398  11.798  1.0455 -0.1074  0.9803
 3388TIP3    H231580   2.465   0.412  11.652 -0.1316  2.5724  1.4511
 3389TIP3   OH231581   4.315   2.980  12.694 -0.1923 -0.1621  0.2456
 3389TIP3    H131582   4.336   2.907  12.636 -0.2877 -0.3099  0.3967
 3389TIP3    H231583   4.384   2.978  12.760  1.5079  1.6430 -1.3363
 3390TIP3   OH231584   1.981   3.425  12.520 -0.1240  0.0730  0.2074
 3390TIP3    H131585   1.920   3.499  12.519  1.8617  1.8496 -1.6710
 3390TIP3    H231586   1.928   3.350  12.492 -1.9507  1.0067  0.9800
 3391TIP3   OH231587   5.654   5.428  17.174  0.0932  0.0206 -0.0485
 3391TIP3    H131588   5.602   5.443  17.253 -1.5713 -2.2036 -0.6171
 3391TIP3    H231589   5.723   5.367  17.202 -0.5747 -0.8704 -0.3060
 3392TIP3   OH231590   2.120   5.992   3.513 -0.0694  0.3331  0.6043
 3392TIP3    H131591   2.079   6.071   3.479 -0.5680  0.1484  0.7727
 3392TIP3    H231592   2.134   6.009   3.605  0.5423  0.5232  0.4773
 3393TIP3   OH231593   6.371   6.308   3.232  0.3681  0.0215 -0.2182
 3393TIP3    H131594   6.373   6.220   3.269 -0.5052  0.2256  0.3557
 3393TIP3    H231595   6.332   6.297   3.146 -2.7425  0.1708  1.0180
 3394TIP3   OH231596   1.581   4.873  14.310  0.0599 -0.1636  0.2318
 3394TIP3    H131597   1.602   4.789  14.270  1.2153  0.2946 -0.1530
 3394TIP3    H231598   1.501   4.902  14.266  0.9276  0.0136 -1.2875
 3395TIP3   OH231599   4.109   5.192   5.875 -0.4283 -0.3359  0.1111
 3395TIP3    H131600   4.142   5.270   5.920  0.3898 -1.2102  1.0793
 3395TIP3    H231601   4.152   5.119   5.919 -1.2702 -1.3526 -0.6961
 3396TIP3   OH231602   2.582   5.010  15.295 -0.1120 -0.5130  0.8156
 3396TIP3    H131603   2.594   4.935  15.353  0.3966 -0.0064  1.3882
 3396TIP3    H231604   2.543   5.077  15.351  0.4818  0.0161  0.6100
 3397TIP3   OH231605   6.073   1.686  14.027 -0.0456 -0.1441 -0.4615
 3397TIP3    H131606   6.015   1.714  13.956 -0.0323  1.5863  0.1602
 3397TIP3    H231607   6.087   1.593  14.011 -0.8223 -0.0098 -2.1661
 3398TIP3   OH231608   5.880   1.385   3.678 -0.1570 -0.1731  0.1092
 3398TIP3    H131609   5.848   1.472   3.655 -0.5631 -0.3762 -0.1173
 3398TIP3    H231610   5.817   1.352   3.742  0.4611  0.0267  0.8289
 3399TIP3   OH231611   4.946   6.488   5.215 -0.2032 -0.0828 -0.3533
 3399TIP3    H131612   4.933   6.514   5.306  0.0708 -0.6724 -0.1379
 3399TIP3    H231613   4.858   6.465   5.184 -0.2803  0.0025 -0.1990
 3400TIP3   OH231614   2.165   5.588  16.585 -0.5656 -0.6944  0.0924
 3400TIP3    H131615   2.174   5.611  16.492 -0.9096 -0.0837  0.2114
 3400TIP3    H231616   2.074   5.605  16.605 -0.7377 -1.7660  0.2954
 3401TIP3   OH231617   2.307   2.418  12.956 -0.1218 -0.4113 -0.3471
 3401TIP3    H131618   2.342   2.332  12.933  0.7062 -0.6604  1.6565
 3401TIP3    H231619   2.235   2.399  13.016  0.4766  0.2658  0.6229
 3402TIP3   OH231620   4.556   4.274   4.581 -0.6322  0.1308  0.2637
 3402TIP3    H131621   4.563   4.352   4.525  2.2625  0.5967  1.1088
 3402TIP3    H231622   4.582   4.304   4.668 -0.0822 -1.6253  0.7567
 3403TIP3   OH231623   3.428   0.529   2.274  0.3580 -0.1177 -0.2945
 3403TIP3    H131624   3.387   0.541   2.360  1.8631  1.1340  0.3053
 3403TIP3    H231625   3.492   0.600   2.268  1.1002 -0.8741 -1.9671
 3404TIP3   OH231626   3.976   2.056   4.944 -0.1181  0.6118 -0.5865
 3404TIP3    H131627   3.926   1.974   4.944  0.0870  0.4870 -0.4520
 3404TIP3    H231628   3.949   2.100   5.024  0.3659  0.3120 -0.2535
 3405TIP3   OH231629   2.181   6.289   2.277  0.3652 -0.4270 -1.1191
 3405TIP3    H131630   2.107   6.238   2.308  0.3649  1.3009  2.1643
 3405TIP3    H231631   2.255   6.228   2.276 -0.0250 -0.9761  0.8393
 3406TIP3   OH231632   5.716   4.630  15.988 -0.0731 -0.2399 -0.1727
 3406TIP3    H131633   5.739   4.544  15.952 -0.1996 -0.3240 -0.0510
 3406TIP3    H231634   5.794   4.657  16.037 -0.0212 -0.2699 -0.2389
 3407TIP3   OH231635   5.764   2.647  17.018  0.3687  0.0468 -0.3900
 3407TIP3    H131636   5.703   2.699  16.965 -2.0178 -2.0839  0.0727
 3407TIP3    H231637   5.723   2.641  17.104  0.0553 -3.1720 -0.6295
 3408TIP3   OH231638   0.784   1.629  11.579  0.7047 -0.2014  1.1678
 3408TIP3    H131639   0.704   1.668  11.614  0.7678  0.9312  0.1197
 3408TIP3    H231640   0.841   1.704  11.560  0.6354 -0.7062 -1.4172
 3409TIP3   OH231641   2.281   1.111  12.009  0.0818  0.1532 -0.2183
 3409TIP3    H131642   2.206   1.051  12.010 -0.0555  0.2785  2.1357
 3409TIP3    H231643   2.254   1.183  12.066  1.7061  0.5629  0.0681
 3410TIP3   OH231644   3.820   2.121  16.881 -0.0446  0.2686  0.1046
 3410TIP3    H131645   3.892   2.176  16.849 -0.4570  0.8576  0.1644
 3410TIP3    H231646   3.848   2.095  16.969 -1.1948  3.0483  1.4265
 3411TIP3   OH231647   6.644   3.631  15.016 -0.3772  0.2280  0.4640
 3411TIP3    H131648   6.614   3.698  14.955 -1.5359  0.8056  1.6118
 3411TIP3    H231649   6.564   3.595  15.054  0.2657  0.8675  2.6194
 3412TIP3   OH231650   2.411   1.960  12.331 -0.0889  0.0253 -0.0755
 3412TIP3    H131651   2.365   1.916  12.403 -0.8884  1.3812  0.2777
 3412TIP3    H231652   2.380   2.050  12.335  0.2273  0.2312 -1.8417
 3413TIP3   OH231653   6.596   3.460   2.778 -0.9059  0.0333 -0.4700
 3413TIP3    H131654   6.603   3.436   2.871 -1.3349  0.3001 -0.3645
 3413TIP3    H231655   6.592   3.377   2.732 -0.1724 -0.1106 -0.2959
 3414TIP3   OH231656   2.620   0.168  14.864  0.5025  0.5654  0.3741
 3414TIP3    H131657   2.526   0.184  14.861  0.7363  2.7300  1.7990
 3414TIP3    H231658   2.658   0.241  14.815  1.4479 -1.0022 -1.3428
 3415TIP3   OH231659   5.369   1.326  10.604  0.0100  0.1725 -0.0451
 3415TIP3    H131660   5.375   1.263  10.532 -0.3295 -1.3493  1.2102
 3415TIP3    H231661   5.352   1.410  10.561  1.0224 -0.4649 -1.8004
 3416TIP3   OH231662   4.162   2.532   2.901  0.2459  0.3075  0.6911
 3416TIP3    H131663   4.218   2.536   2.979 -0.9108 -0.3436  1.5889
 3416TIP3    H231664   4.075   2.511   2.935 -0.3744  0.4217 -0.7514
 3417TIP3   OH231665   4.830   5.863  11.008 -0.4200 -0.2329  0.6625
 3417TIP3    H131666   4.759   5.819  10.962 -0.1516  0.0420 -0.0403
 3417TIP3    H231667   4.904   5.860  10.947 -0.3459  1.0449  0.6467
 3418TIP3   OH231668   5.277   5.901  16.633 -0.1516 -0.1998 -0.5233
 3418TIP3    H131669   5.214   5.868  16.569 -0.4794  0.9524 -0.8239
 3418TIP3    H231670   5.304   5.987  16.599  4.2043 -1.9614 -2.2543
 3419TIP3   OH231671   5.156   1.271   0.083 -0.1109 -0.2813  0.5444
 3419TIP3    H131672   5.183   1.356   0.048 -1.6093  1.7980  3.9944
 3419TIP3    H231673   5.238   1.226   0.104  0.7108  1.0474  0.2875
 3420TIP3   OH231674   1.890   2.214   4.379  0.6113 -0.1207  0.3400
 3420TIP3    H131675   1.869   2.303   4.408 -0.1567 -0.2085  0.0559
 3420TIP3    H231676   1.866   2.159   4.453 -0.8232 -0.2892 -0.2373
 3421TIP3   OH231677   0.953   6.188  11.044 -0.3013 -0.7814 -0.1396
 3421TIP3    H131678   0.908   6.118  10.998  0.1615 -1.1687 -0.0102
 3421TIP3    H231679   0.948   6.162  11.136  2.6683 -2.3425 -0.3102
 3422TIP3   OH231680   1.760   4.418  13.748  0.3441 -0.6637 -0.0621
 3422TIP3    H131681   1.823   4.365  13.796 -0.2535 -0.6472  0.7706
 3422TIP3    H231682   1.756   4.501  13.797 -0.0873 -0.5478 -0.2853
 3423TIP3   OH231683   1.813   0.415  13.642 -0.3535 -0.5476 -0.0870
 3423TIP3    H131684   1.843   0.472  13.571  0.3138 -3.3872 -2.2669
 3423TIP3    H231685   1.731   0.455  13.672 -0.5720  0.8686 -2.3672
 3424TIP3   OH231686   4.195   4.073   1.718  0.2402  1.0947  0.2550
 3424TIP3    H131687   4.280   4.037   1.742 -0.2238  0.1691  0.5746
 3424TIP3    H231688   4.176   4.138   1.786 -1.3115 -1.8962  2.9419
 3425TIP3   OH231689   3.427   4.438   5.446  0.2714  0.3197 -0.6588
 3425TIP3    H131690   3.501   4.489   5.413 -0.5250  0.5852 -2.1130
 3425TIP3    H231691   3.467   4.369   5.500  1.5696  0.4481 -1.4297
 3426TIP3   OH231692   4.180   3.691  12.804  0.2525 -0.5530 -0.1496
 3426TIP3    H131693   4.158   3.681  12.712  0.5143  2.1365 -0.5818
 3426TIP3    H231694   4.096   3.684  12.849  0.0197 -1.1504 -0.6725
 3427TIP3   OH231695   2.451   5.097  16.199 -1.1746 -0.0876  0.5298
 3427TIP3    H131696   2.441   5.147  16.118 -0.5310 -1.2185 -0.2637
 3427TIP3    H231697   2.531   5.132  16.239 -1.5299  0.5179  0.7196
 3428TIP3   OH231698   4.109   3.791  14.906 -0.5779 -0.6358 -0.7270
 3428TIP3    H131699   4.063   3.724  14.956 -0.2501  1.2505  2.3383
 3428TIP3    H231700   4.054   3.869  14.914  0.4491  0.2294 -1.7456
 3429TIP3   OH231701   3.008   6.433   2.671 -0.2696 -0.8203 -0.2945
 3429TIP3    H131702   2.941   6.454   2.736  1.1013  1.1238  0.5997
 3429TIP3    H231703   2.966   6.448   2.587 -0.3942  2.7951  0.2519
 3430TIP3   OH231704   5.474   2.633   5.488  0.6234 -0.3502  0.1316
 3430TIP3    H131705   5.403   2.697   5.491 -0.1460 -0.8907 -2.7971
 3430TIP3    H231706   5.454   2.571   5.558 -1.8771 -0.4937 -0.6008
 3431TIP3   OH231707   0.061   3.938   3.970  0.1055 -0.4261 -0.8756
 3431TIP3    H131708  -0.026   3.913   3.941  0.0775 -1.4232 -0.0127
 3431TIP3    H231709   0.120   3.878   3.924  0.1487 -1.2066  0.1594
 3432TIP3   OH231710   2.484   5.407  12.015 -0.0967  0.2498  0.3897
 3432TIP3    H131711   2.574   5.439  12.013 -0.6962  1.9671 -0.6478
 3432TIP3    H231712   2.472   5.377  12.106  0.9607  1.6294  1.0277
 3433TIP3   OH231713   0.899   1.082   5.596  0.4411 -0.4779 -0.0879
 3433TIP3    H131714   0.962   1.115   5.532  2.4748 -2.2833  0.8315
 3433TIP3    H231715   0.879   0.994   5.566 -2.1912  0.2393 -0.6527
 3434TIP3   OH231716   6.359   0.971  13.577 -0.4345  0.3261  0.2451
 3434TIP3    H131717   6.342   0.890  13.528 -1.1244  0.5391  0.1281
 3434TIP3    H231718   6.277   0.990  13.622 -0.5526  1.4353 -0.4176
 3435TIP3   OH231719   0.544   4.417   6.379 -0.3365 -0.2993  0.0906
 3435TIP3    H131720   0.473   4.440   6.439 -1.8250 -1.4160 -1.1691
 3435TIP3    H231721   0.503   4.416   6.293  1.8114  1.5616 -1.0513
 3436TIP3   OH231722   1.273   0.786  15.410  0.3388  0.2606 -0.1891
 3436TIP3    H131723   1.276   0.882  15.408  0.8721  0.2511  0.0673
 3436TIP3    H231724   1.348   0.761  15.463  0.6094 -0.3258 -0.8279
 3437TIP3   OH231725   3.780   2.265  11.650 -0.3689  0.7814  0.6923
 3437TIP3    H131726   3.693   2.290  11.617 -0.0913  0.3934 -0.3677
 3437TIP3    H231727   3.804   2.337  11.708 -0.6630  1.7802 -0.3688
 3438TIP3   OH231728   4.002   6.236  16.258  0.0155 -0.0160  0.0294
 3438TIP3    H131729   3.925   6.257  16.205  0.4590 -0.1151 -0.6680
 3438TIP3    H231730   4.018   6.143  16.243 -1.0527 -0.5641  1.9489
 3439TIP3   OH231731   1.559   2.527   1.091  0.0643  0.3339 -0.2212
 3439TIP3    H131732   1.585   2.479   1.012  1.4747  1.8101 -0.7228
 3439TIP3    H231733   1.484   2.580   1.063 -1.3299 -1.3036  0.2652
 3440TIP3   OH231734   3.634   2.620   2.013  0.4654 -0.2868  0.2886
 3440TIP3    H131735   3.581   2.629   1.934  1.0235 -0.5079 -0.1145
 3440TIP3    H231736   3.685   2.540   2.000 -1.8482 -2.2833  2.3081
 3441TIP3   OH231737   0.916   5.820  12.335  0.1984  0.2517 -0.1878
 3441TIP3    H131738   0.941   5.813  12.427 -0.9109 -2.3346  0.0182
 3441TIP3    H231739   0.998   5.812  12.287  0.8321  2.0175  0.5437
 3442TIP3   OH231740   3.571   4.440  13.778 -0.7919 -0.0286  0.3762
 3442TIP3    H131741   3.558   4.426  13.685 -1.6236 -0.0993  0.4957
 3442TIP3    H231742   3.537   4.361  13.820 -1.0284  0.2779  0.7750
 3443TIP3   OH231743   3.844   6.141  11.252 -0.2035  0.1276 -0.3277
 3443TIP3    H131744   3.775   6.125  11.188  0.7255  1.4047 -1.7215
 3443TIP3    H231745   3.919   6.090  11.219 -0.2868 -0.8176  0.8711
 3444TIP3   OH231746   1.291   3.856   5.733  0.0957 -0.1166  0.1678
 3444TIP3    H131747   1.306   3.774   5.779  2.2084 -0.4865 -1.0966
 3444TIP3    H231748   1.232   3.833   5.661  1.5360 -0.8038 -0.8357
 3445TIP3   OH231749   2.807   5.402  12.668  0.7365  1.0686 -0.1772
 3445TIP3    H131750   2.859   5.431  12.593 -0.3366 -0.8823 -1.7572
 3445TIP3    H231751   2.813   5.306  12.667  0.9933  0.9660  2.4972
 3446TIP3   OH231752   1.947   3.312   2.475  0.2722 -0.1720 -0.1314
 3446TIP3    H131753   2.016   3.248   2.495 -1.0783 -2.4145 -2.1196
 3446TIP3    H231754   1.876   3.259   2.439 -1.2843  2.4055 -1.0656
 3447TIP3   OH231755   5.151   5.424  15.768  0.1107 -0.3501  0.6643
 3447TIP3    H131756   5.217   5.373  15.815  1.3304  0.0170 -0.5941
 3447TIP3    H231757   5.099   5.358  15.722  0.7569 -0.5652  0.2177
 3448TIP3   OH231758   2.910   1.979  15.245  0.0812  0.5711  0.1074
 3448TIP3    H131759   2.831   2.013  15.204  0.1552  0.2809 -0.2780
 3448TIP3    H231760   2.899   1.998  15.338 -0.3832  0.6445  0.0382
 3449TIP3   OH231761   6.091   3.004   1.984 -0.3549 -0.2343  0.1233
 3449TIP3    H131762   6.000   3.007   1.954 -1.0704  2.0720  2.2257
 3449TIP3    H231763   6.090   2.946   2.060  0.5439 -2.3535 -1.3805
 3450TIP3   OH231764   1.206   1.672  13.235  0.0326 -0.5005  0.8228
 3450TIP3    H131765   1.125   1.627  13.211 -0.1951  0.1895  0.2429
 3450TIP3    H231766   1.275   1.609  13.216 -0.2696 -0.5522 -0.1560
 3451TIP3   OH231767   5.120   3.823   5.678 -0.6860 -0.6857 -0.0952
 3451TIP3    H131768   5.169   3.741   5.682 -1.9848 -1.5084 -0.4045
 3451TIP3    H231769   5.065   3.822   5.756  2.4529  2.0770  2.4226
 3452TIP3   OH231770   1.755   0.721   5.800  0.4400 -0.0632  0.0485
 3452TIP3    H131771   1.744   0.629   5.780  0.7184 -0.0849 -0.0037
 3452TIP3    H231772   1.748   0.726   5.896 -0.6649  0.0123 -0.0288
 3453TIP3   OH231773   4.101   4.477  16.925  0.1839 -0.2272 -0.3267
 3453TIP3    H131774   4.041   4.533  16.974  0.3663 -0.1984 -0.1326
 3453TIP3    H231775   4.046   4.435  16.859 -0.3225 -1.2361  0.6965
 3454TIP3   OH231776   6.559   6.433  14.027  0.5003  0.0552 -0.2933
 3454TIP3    H131777   6.511   6.393  13.955  0.5441 -1.3378  0.4222
 3454TIP3    H231778   6.551   6.527  14.011 -2.0194 -0.1207 -0.4889
 3455TIP3   OH231779   1.827   1.262   5.211  0.2633 -0.4522 -0.1898
 3455TIP3    H131780   1.827   1.213   5.293  0.6529 -1.5598 -0.8141
 3455TIP3    H231781   1.917   1.294   5.202 -0.1779  1.0890  0.5934
 3456TIP3   OH231782   4.875   0.225   1.776 -0.0445 -0.3927 -0.1658
 3456TIP3    H131783   4.950   0.233   1.836  0.6989 -0.9103 -1.0073
 3456TIP3    H231784   4.817   0.162   1.819 -0.1546  0.2376  0.6344
 3457TIP3   OH231785   1.791   1.445  12.014  0.1264 -0.3068  0.0698
 3457TIP3    H131786   1.742   1.486  12.085  1.3078  0.4531  0.4780
 3457TIP3    H231787   1.840   1.517  11.974  0.0328 -0.8487 -1.0557
 3458TIP3   OH231788   1.709   4.977   6.840 -0.5891 -0.3280 -0.0362
 3458TIP3    H131789   1.664   4.980   6.756  0.7737  1.0524 -0.7441
 3458TIP3    H231790   1.684   5.058   6.885  1.3659  0.6394 -0.5818
 3459TIP3   OH231791   5.062   4.958   3.181  0.2910  0.2847 -0.3240
 3459TIP3    H131792   5.100   4.922   3.101 -0.3205 -1.5642  0.1613
 3459TIP3    H231793   5.120   4.927   3.251  0.1469  0.8553  0.0509
 3460TIP3   OH231794   3.901   5.139   5.539 -0.0058 -0.3675  0.6441
 3460TIP3    H131795   3.854   5.105   5.615 -0.7900 -1.9678 -0.5079
 3460TIP3    H231796   3.993   5.138   5.565 -0.3538  0.3722  2.0096
 3461TIP3   OH231797   2.429   6.318  11.730 -0.0794 -0.3391  0.2051
 3461TIP3    H131798   2.387   6.297  11.813 -1.2627 -1.7882 -0.7156
 3461TIP3    H231799   2.436   6.414  11.731  1.1459 -0.3871  2.4982
 3462TIP3   OH231800   6.046   1.743   4.753 -0.3006 -0.1125  0.1456
 3462TIP3    H131801   5.958   1.745   4.716 -0.8472  0.4825  1.4072
 3462TIP3    H231802   6.104   1.732   4.678 -1.2896  1.8675 -0.9828
 3463TIP3   OH231803   3.276   4.731  12.462  0.0789  0.1587  0.3992
 3463TIP3    H131804   3.354   4.785  12.471  0.4662 -0.1771 -0.7425
 3463TIP3    H231805   3.203   4.793  12.463  0.4288  0.5747  0.4070
 3464TIP3   OH231806   3.368   6.410  10.483  0.0205  0.5842 -0.1162
 3464TIP3    H131807   3.390   6.338  10.425 -0.5802 -1.4069  1.9732
 3464TIP3    H231808   3.280   6.437  10.456 -0.2133 -0.2436 -0.2138
 3465TIP3   OH231809   0.488   6.234   2.216  0.5198 -0.7623  0.3273
 3465TIP3    H131810   0.477   6.190   2.300  0.0751  0.3890  0.8815
 3465TIP3    H231811   0.581   6.224   2.196  0.7907 -0.3560  1.3447
 3466TIP3   OH231812   4.463   0.692  11.576  0.9354  0.0911 -0.5535
 3466TIP3    H131813   4.399   0.760  11.555  1.3461  0.2003 -1.5112
 3466TIP3    H231814   4.545   0.739  11.593  0.8367 -0.0635  0.4232
 3467TIP3   OH231815   0.357   1.989  13.918  0.2475  0.1273  0.7762
 3467TIP3    H131816   0.325   1.943  13.996  0.3009 -0.7551  0.2962
 3467TIP3    H231817   0.399   1.921  13.866 -0.0333  0.6452 -0.1556
 3468TIP3   OH231818   5.642   5.034  11.732 -0.5278  0.2253 -0.0506
 3468TIP3    H131819   5.636   5.107  11.794 -3.3383  0.0394 -0.0015
 3468TIP3    H231820   5.634   5.076  11.646 -1.1822  0.0782 -0.0651
 3469TIP3   OH231821   5.221   6.660  15.740 -0.6890  0.7030  0.0199
 3469TIP3    H131822   5.219   6.739  15.794 -0.4645 -0.1071  1.2518
 3469TIP3    H231823   5.228   6.588  15.802  2.7200 -0.1585 -1.1401
 3470TIP3   OH231824   4.051   3.967  12.575 -0.4427  0.9396  0.1768
 3470TIP3    H131825   4.055   3.875  12.601 -0.8882  1.2793  1.4950
 3470TIP3    H231826   3.994   3.967  12.497 -0.1443  0.0686 -0.0528
 3471TIP3   OH231827   2.115   1.174   5.786 -0.2671  0.4091 -0.3898
 3471TIP3    H131828   2.046   1.110   5.804 -1.4091  1.5868 -0.4475
 3471TIP3    H231829   2.116   1.231   5.863  1.6877 -0.4481  0.2872
 3472TIP3   OH231830   4.006   4.930   5.094 -0.6115  0.2449 -0.0461
 3472TIP3    H131831   3.999   4.874   5.172 -1.2173  0.9130  0.3960
 3472TIP3    H231832   3.994   5.019   5.128  0.8746  0.7159 -0.6465
 3473TIP3   OH231833   5.843   3.647  17.080 -0.1108  0.0775  0.1882
 3473TIP3    H131834   5.876   3.566  17.118 -1.2862 -0.2202  0.6218
 3473TIP3    H231835   5.748   3.634  17.075 -0.1756  0.8618 -1.0762
 3474TIP3   OH231836   3.391   0.707  11.461  0.7551  0.5684  0.5455
 3474TIP3    H131837   3.472   0.663  11.435  0.6091  0.1197  0.8349
 3474TIP3    H231838   3.400   0.796  11.427  0.0313 -0.2953 -2.1007
 3475TIP3   OH231839   2.195   0.685   5.981  0.2932  0.5542  1.0197
 3475TIP3    H131840   2.163   0.648   5.899  2.8727  0.7136 -0.1560
 3475TIP3    H231841   2.116   0.711   6.028 -1.4164 -2.2903 -0.0380
 3476TIP3   OH231842   2.087   3.679   1.020  0.2333  0.5903  0.0794
 3476TIP3    H131843   2.169   3.655   1.063  0.7622  2.0072 -0.0584
 3476TIP3    H231844   2.018   3.657   1.083  0.7819  0.1920  0.5475
 3477TIP3   OH231845   3.544   4.420  14.412 -0.8329 -0.0536 -0.1234
 3477TIP3    H131846   3.506   4.338  14.382 -1.4645  0.7546 -1.6093
 3477TIP3    H231847   3.598   4.450  14.339  0.5186  0.1782  0.9291
 3478TIP3   OH231848   2.620   1.011   4.179  0.0156  0.2749  0.0732
 3478TIP3    H131849   2.699   1.018   4.233 -0.6120  1.0408  0.9212
 3478TIP3    H231850   2.601   0.917   4.177  0.8195  0.1042  0.0382
 3479TIP3   OH231851   2.430   1.513   6.033  0.5150 -0.3949  0.2074
 3479TIP3    H131852   2.387   1.438   6.076 -0.3088  0.1342  0.3390
 3479TIP3    H231853   2.394   1.589   6.078  1.0644  0.0969 -0.1775
 3480TIP3   OH231854   2.569   2.379  10.650 -0.4228 -0.6265  0.7601
 3480TIP3    H131855   2.631   2.325  10.602  1.3307  3.6044 -2.4030
 3480TIP3    H231856   2.483   2.349  10.620  0.3630 -2.3502  0.1142
 3481TIP3   OH231857   4.967   0.331  14.961  0.2374 -0.6252 -0.0997
 3481TIP3    H131858   4.874   0.307  14.962  0.0771 -0.0145 -0.4691
 3481TIP3    H231859   5.001   0.294  14.880  0.5114 -1.5294  0.3996
 3482TIP3   OH231860   5.872   1.695   4.037  0.4198  0.2071  0.1295
 3482TIP3    H131861   5.945   1.682   3.977  1.1005 -1.1952  1.2041
 3482TIP3    H231862   5.908   1.749   4.107  0.6453 -1.0289  0.9905
 3483TIP3   OH231863   3.805   2.522  14.756 -0.4921  0.1191 -0.5133
 3483TIP3    H131864   3.855   2.587  14.707 -1.5721  0.7533 -0.8228
 3483TIP3    H231865   3.714   2.538  14.731 -0.8712 -0.9018  0.1329
 3484TIP3   OH231866   5.729   6.113  11.276 -0.4129  0.7042  0.6537
 3484TIP3    H131867   5.747   6.042  11.337 -2.8262  0.0653  0.7155
 3484TIP3    H231868   5.679   6.177  11.327 -0.0678  1.4599  0.0634
 3485TIP3   OH231869   6.100   6.232   5.451  0.3755 -0.6510 -0.2656
 3485TIP3    H131870   6.130   6.197   5.367 -0.5295  0.1736 -0.9679
 3485TIP3    H231871   6.009   6.202   5.457  0.5347 -0.9639  0.5698
 3486TIP3   OH231872   6.138   0.589  15.211 -0.0247 -0.0257 -0.2788
 3486TIP3    H131873   6.083   0.545  15.276  0.0023 -1.2732 -1.0713
 3486TIP3    H231874   6.078   0.647  15.164 -0.0440  0.8921  0.8345
 3487TIP3   OH231875   1.274   5.508  16.890  0.5520 -0.3283 -0.4377
 3487TIP3    H131876   1.339   5.558  16.940 -0.4439  0.4122  0.1563
 3487TIP3    H231877   1.265   5.557  16.808 -0.2268  0.3434  0.0331
 3488TIP3   OH231878   4.813   3.354   4.561  0.5669  0.5095  0.6076
 3488TIP3    H131879   4.863   3.307   4.494 -0.6916 -1.5548  1.0042
 3488TIP3    H231880   4.760   3.286   4.602 -2.4312  2.4854  0.3210
 3489TIP3   OH231881   0.133   2.290   4.475  0.0821  0.0770 -0.3751
 3489TIP3    H131882   0.228   2.278   4.475  0.0378 -0.5586  0.9453
 3489TIP3    H231883   0.099   2.211   4.432  0.1624  0.7260 -1.6729
 3490TIP3   OH231884   2.817   2.429   1.981  0.3612 -0.0894 -0.2782
 3490TIP3    H131885   2.843   2.521   1.994 -2.4864  0.5944  1.4425
 3490TIP3    H231886   2.860   2.382   2.053 -3.4046  1.2083  3.2316
 3491TIP3   OH231887   3.845   1.629  15.959  0.2046 -0.4211  0.2510
 3491TIP3    H131888   3.833   1.553  15.902  1.9880 -0.6501  0.1090
 3491TIP3    H231889   3.796   1.699  15.917 -0.8620 -1.3018 -0.0157
 3492TIP3   OH231890   0.974   4.675   0.357  0.0106 -0.2669  0.1381
 3492TIP3    H131891   0.883   4.669   0.386  0.2938 -2.2856  0.8306
 3492TIP3    H231892   0.968   4.702   0.266 -1.3881 -1.5490 -0.2036
 3493TIP3   OH231893   4.047   0.063  16.113  0.3663 -0.7665  0.0087
 3493TIP3    H131894   3.955   0.034  16.114 -0.3233  1.2494  0.4260
 3493TIP3    H231895   4.097  -0.017  16.100 -1.4770 -1.8668 -0.7590
 3494TIP3   OH231896   0.958   5.119   4.274  0.1287 -0.0645 -0.6948
 3494TIP3    H131897   0.968   5.150   4.364  0.8153  1.3323 -1.2146
 3494TIP3    H231898   0.939   5.025   4.282  1.4349 -0.2364  0.8640
 3495TIP3   OH231899   3.968   0.001  13.177  0.2715 -0.2661  0.3132
 3495TIP3    H131900   4.014   0.058  13.115  2.5166 -2.2770 -0.0214
 3495TIP3    H231901   4.033  -0.066  13.200 -1.6501 -1.6291  2.1065
 3496TIP3   OH231902   1.086   1.119   0.588  0.4576  0.1635 -0.3022
 3496TIP3    H131903   1.095   1.066   0.667 -0.3802 -2.3727 -1.8084
 3496TIP3    H231904   1.175   1.140   0.562  0.7428  1.1680  1.3367
 3497TIP3   OH231905   2.448   1.525  17.366  0.3297  0.3003  0.0893
 3497TIP3    H131906   2.408   1.439  17.354 -0.6537  0.6700  0.6254
 3497TIP3    H231907   2.374   1.584  17.378  0.9278  1.4620 -1.6513
 3498TIP3   OH231908   5.555   2.512   3.724 -0.6777 -0.6982 -0.0873
 3498TIP3    H131909   5.601   2.429   3.737 -0.4977 -0.5377  0.3443
 3498TIP3    H231910   5.614   2.566   3.672 -1.1340 -1.1214 -1.0638
 3499TIP3   OH231911   6.157   1.255  17.147  0.4166 -0.9882  0.5115
 3499TIP3    H131912   6.159   1.175  17.199  0.4321 -0.2618  1.6763
 3499TIP3    H231913   6.199   1.320  17.203  0.4282 -0.1701 -0.4239
 3500TIP3   OH231914   5.095   5.332  17.309 -0.5414  0.5947 -0.3509
 3500TIP3    H131915   5.070   5.242  17.287  1.1233  0.1280 -0.4758
 3500TIP3    H231916   5.088   5.380  17.226 -1.0789  0.5015 -0.3629
 3501TIP3   OH231917   1.148   0.748   3.792 -0.2641 -0.4010  0.1883
 3501TIP3    H131918   1.192   0.751   3.877 -0.1024  0.2201  0.0884
 3501TIP3    H231919   1.214   0.778   3.730 -0.5048 -0.4702 -0.1041
 3502TIP3   OH231920   3.289   6.553  17.183  0.2382  0.5205 -0.1074
 3502TIP3    H131921   3.264   6.644  17.166 -0.0423  0.4391 -0.1261
 3502TIP3    H231922   3.385   6.556  17.188  0.2707  0.7093 -0.7473
 3503TIP3   OH231923   2.141   0.753   2.942  0.1117  0.7179  0.1722
 3503TIP3    H131924   2.222   0.738   2.991  0.5773  0.1604 -0.7442
 3503TIP3    H231925   2.119   0.845   2.958 -0.3545  0.2772  2.2976
 3504TIP3   OH231926   1.291   0.393  13.010 -0.4877  0.1498 -0.3125
 3504TIP3    H131927   1.333   0.372  12.927 -1.1823 -0.3329 -0.5568
 3504TIP3    H231928   1.352   0.361  13.077 -0.4984 -0.6130 -0.6568
 3505TIP3   OH231929   2.652   5.634  15.466 -0.0553 -0.3136 -0.4647
 3505TIP3    H131930   2.564   5.669  15.479 -0.0603 -0.6983  0.6944
 3505TIP3    H231931   2.692   5.638  15.553  1.4202  0.7617 -1.1434
 3506TIP3   OH231932   4.109   3.471  14.617 -0.3117  0.6771 -0.3754
 3506TIP3    H131933   4.076   3.553  14.653 -0.0883  0.9535 -0.7828
 3506TIP3    H231934   4.031   3.425  14.586 -0.2576  2.2228 -3.1985
 3507TIP3   OH231935   6.201   4.433  12.970  0.3299  0.1455  0.7202
 3507TIP3    H131936   6.275   4.412  12.912  1.6016 -0.6797  2.5423
 3507TIP3    H231937   6.193   4.529  12.965  0.9500  0.1626 -0.1662
 3508TIP3   OH231938   4.662   1.157  11.622  0.1619  0.6118  0.5432
 3508TIP3    H131939   4.574   1.155  11.659 -0.3872 -0.4273 -0.7458
 3508TIP3    H231940   4.649   1.184  11.531  1.3788  2.2186  0.8032
 3509TIP3   OH231941   5.405   1.744  16.296 -0.6188  0.3645  0.2124
 3509TIP3    H131942   5.366   1.748  16.209  0.5063  0.4271 -0.3085
 3509TIP3    H231943   5.439   1.654  16.303  0.2094  0.6642  0.1600
 3510TIP3   OH231944   3.439   2.310   2.631 -0.0318  0.7331  0.2999
 3510TIP3    H131945   3.457   2.217   2.637  0.9256  0.9782  1.6007
 3510TIP3    H231946   3.348   2.319   2.662  0.1426  0.3227  0.9435
 3511TIP3   OH231947   0.633   1.050   5.328 -0.2778  0.4358 -0.0601
 3511TIP3    H131948   0.694   0.999   5.381  0.5044 -0.4528 -1.7289
 3511TIP3    H231949   0.685   1.079   5.253 -1.9065 -0.5849 -1.6865
 3512TIP3   OH231950   4.608   5.254   2.324  0.2886  0.2893  0.0943
 3512TIP3    H131951   4.580   5.337   2.285 -0.2334  1.5413  2.8608
 3512TIP3    H231952   4.646   5.279   2.408  2.3380 -2.1164  0.0079
 3513TIP3   OH231953   1.656   2.937  16.099 -0.6174  0.6546 -0.1744
 3513TIP3    H131954   1.682   2.902  16.014  1.6418 -0.0709  0.7246
 3513TIP3    H231955   1.739   2.959  16.142 -1.6943  1.1729  1.7613
 3514TIP3   OH231956   0.348   5.348   3.149 -0.2103 -0.1428 -0.0077
 3514TIP3    H131957   0.386   5.277   3.200  0.2185  1.0506  1.4271
 3514TIP3    H231958   0.402   5.424   3.171 -1.5021  0.9235 -0.3938
 3515TIP3   OH231959   4.568   0.284  17.406 -0.3634  0.1160  0.8402
 3515TIP3    H131960   4.530   0.296  17.319 -0.9088 -3.3835  0.4554
 3515TIP3    H231961   4.650   0.333  17.404  0.4458 -1.1277 -2.2564
 3516TIP3   OH231962   1.054   1.234  11.212  0.1860  0.0782 -0.2364
 3516TIP3    H131963   1.051   1.182  11.131  0.9549 -0.1551 -0.1249
 3516TIP3    H231964   1.097   1.315  11.187  3.0232 -1.0943  0.4834
 3517TIP3   OH231965   3.914   2.003  14.005  0.5084 -0.1342  0.0266
 3517TIP3    H131966   3.982   2.064  13.974  1.7682 -0.8921  1.1658
 3517TIP3    H231967   3.907   2.022  14.098 -0.3608 -0.5522  0.0506
 3518TIP3   OH231968   0.497   2.870   4.301 -0.2876 -1.0126  0.3894
 3518TIP3    H131969   0.505   2.800   4.366 -0.4644  0.8695  2.5787
 3518TIP3    H231970   0.585   2.906   4.292 -0.4368 -0.6545  0.3179
 3519TIP3   OH231971   1.777   0.716  11.200  0.5547  0.3134  0.2758
 3519TIP3    H131972   1.739   0.802  11.184  1.3273  0.7278  0.6045
 3519TIP3    H231973   1.852   0.712  11.140 -0.2324 -0.6555 -0.6664
 3520TIP3   OH231974   2.292   5.614   3.247  0.1520  0.2355 -0.4967
 3520TIP3    H131975   2.221   5.672   3.220 -0.2012 -0.3391 -0.8212
 3520TIP3    H231976   2.310   5.561   3.170  0.0246 -0.5323 -0.0107
 3521TIP3   OH231977   5.523   4.252   1.442 -0.2997 -0.1710 -0.1301
 3521TIP3    H131978   5.543   4.321   1.505  0.9998 -0.8301  0.2223
 3521TIP3    H231979   5.442   4.280   1.399 -0.0788  1.2990  0.3739
 3522TIP3   OH231980   5.036   3.375  15.736  0.1173 -0.4931  0.2129
 3522TIP3    H131981   5.113   3.328  15.768  0.1951 -0.1705  0.5043
 3522TIP3    H231982   5.029   3.452  15.792 -0.7723 -0.8247  0.5841
 3523TIP3   OH231983   0.396   1.003   5.133  0.0455  0.3427  0.2356
 3523TIP3    H131984   0.354   0.979   5.216  0.4581  0.6470  0.5362
 3523TIP3    H231985   0.485   1.028   5.158  0.3153 -0.0160 -0.3627
 3524TIP3   OH231986   0.706   5.163  13.962 -0.0519 -0.3309 -0.5607
 3524TIP3    H131987   0.694   5.227  14.032  0.7874 -0.9950  0.2224
 3524TIP3    H231988   0.640   5.185  13.897 -0.6281  0.5165  0.2902
 3525TIP3   OH231989   3.019   4.792  15.176 -0.4605 -0.0278  0.4185
 3525TIP3    H131990   2.966   4.851  15.122  0.3177 -2.6741 -3.7104
 3525TIP3    H231991   2.957   4.725  15.204 -0.2746 -0.4064 -0.0611
 3526TIP3   OH231992   6.607   4.642  16.088 -0.3644  0.5345 -0.4726
 3526TIP3    H131993   6.643   4.685  16.165  1.4672 -1.4599 -0.1226
 3526TIP3    H231994   6.664   4.670  16.016 -0.2091  0.0251 -0.5475
 3527TIP3   OH231995   5.647   5.761  17.209 -0.2597 -0.1505 -0.0872
 3527TIP3    H131996   5.714   5.727  17.149 -2.1605 -1.9100 -1.3622
 3527TIP3    H231997   5.627   5.688  17.267 -0.2590  0.7317  1.0504
 3528TIP3   OH231998   6.641   1.481   3.316  0.2145  0.1378 -0.4990
 3528TIP3    H131999   6.604   1.529   3.242  2.1394 -0.7975 -2.1557
 3528TIP3    H232000   6.658   1.393   3.282  0.4810 -0.5446  1.2895
 3529TIP3   OH232001   1.602   3.186   1.471 -0.7289  0.5110  0.2071
 3529TIP3    H132002   1.604   3.281   1.469  0.0761  0.5675  1.8087
 3529TIP3    H232003   1.565   3.164   1.557 -0.9178 -0.6142 -0.1457
 3530TIP3   OH232004   2.421   1.600   1.826  0.2516  0.2035  0.2002
 3530TIP3    H132005   2.398   1.569   1.913  3.5505 -0.2775  1.0316
 3530TIP3    H232006   2.416   1.695   1.832  2.8180  0.3132  1.7563
 3531TIP3   OH232007   4.804   3.156  15.348 -0.4484  0.2601  0.2026
 3531TIP3    H132008   4.872   3.104  15.307  1.2610  2.8841 -0.5669
 3531TIP3    H232009   4.740   3.092  15.379  1.5776 -2.2360 -0.4200
 3532TIP3   OH232010   6.136   5.749   2.185  0.1705 -0.0176  0.1203
 3532TIP3    H132011   6.135   5.657   2.211  0.3843 -0.6303 -1.8482
 3532TIP3    H232012   6.227   5.776   2.195  0.1923 -0.1575  0.2965
 3533TIP3   OH232013   1.171   5.754  15.234  0.1509  0.2173  0.3097
 3533TIP3    H132014   1.080   5.732  15.212  0.3080 -2.6025  2.0346
 3533TIP3    H232015   1.192   5.699  15.309  2.2623  3.2267  2.1598
 3534TIP3   OH232016   5.579   2.003   3.191 -0.4084  0.4587  0.0379
 3534TIP3    H132017   5.487   2.002   3.164 -0.4703 -0.5675  0.2414
 3534TIP3    H232018   5.620   1.937   3.136  0.6014  2.1452 -1.3181
 3535TIP3   OH232019   1.925   1.407  12.315 -0.1358  0.1334 -0.0196
 3535TIP3    H132020   1.906   1.450  12.232 -0.6994 -0.6054 -0.2852
 3535TIP3    H232021   1.843   1.365  12.340  0.3520 -0.6661  0.2943
 3536TIP3   OH232022   6.091   1.833  15.929  0.3461 -0.0516 -0.0929
 3536TIP3    H132023   6.103   1.927  15.938 -1.1132  0.2897 -1.3392
 3536TIP3    H232024   6.157   1.806  15.865 -0.2306  0.4191 -0.9054
 3537TIP3   OH232025   1.566   4.356   5.074 -0.2439  0.6062 -0.2297
 3537TIP3    H132026   1.625   4.374   5.147  0.1911 -1.2151 -0.0903
 3537TIP3    H232027   1.617   4.301   5.014 -1.9354 -1.6615  0.2451
 3538TIP3   OH232028   0.950   0.591   1.492  0.4230 -0.1749  0.3375
 3538TIP3    H132029   0.933   0.685   1.505  0.8996  0.0979 -0.8618
 3538TIP3    H232030   0.869   0.548   1.519  0.4528  0.5083  1.6169
 3539TIP3   OH232031   5.298   0.171  16.862 -0.2508  0.4168 -0.2095
 3539TIP3    H132032   5.233   0.147  16.796  0.9293 -0.1615 -1.2081
 3539TIP3    H232033   5.336   0.087  16.890  0.2595  0.7606  0.1527
 3540TIP3   OH232034   2.794   1.695  16.724 -0.7551 -0.1207  0.5678
 3540TIP3    H132035   2.879   1.662  16.695 -1.8297 -0.5921 -2.3632
 3540TIP3    H232036   2.731   1.630  16.693 -2.4361  1.7313 -0.0896
 3541TIP3   OH232037   0.807   6.251   6.083  0.3078  0.1478 -0.2184
 3541TIP3    H132038   0.843   6.338   6.067  0.6926  0.2144  0.9695
 3541TIP3    H232039   0.871   6.191   6.046  1.4483  0.2833  1.4519
 3542TIP3   OH232040   1.802   3.064  16.612  0.0939 -0.2660 -0.3734
 3542TIP3    H132041   1.821   3.126  16.541  0.8946  0.2261  0.2556
 3542TIP3    H232042   1.887   3.042  16.649 -0.3535 -0.0252  0.8449
 3543TIP3   OH232043   4.907   5.560   2.552  0.3844 -0.2093 -0.1427
 3543TIP3    H132044   4.955   5.488   2.510 -0.1992 -1.4792  1.2893
 3543TIP3    H232045   4.968   5.634   2.550  1.9600 -1.4282  0.5314
 3544TIP3   OH232046   6.588   2.902  17.424  0.1067  0.4830  0.1098
 3544TIP3    H132047   6.590   2.989  17.463  0.3091  1.5377 -2.0932
 3544TIP3    H232048   6.677   2.867  17.438  0.3835  1.1231 -0.0219
 3545TIP3   OH232049   3.047   4.260  12.770 -1.1369  0.2823 -0.0053
 3545TIP3    H132050   3.045   4.209  12.690 -0.9319 -0.6394  0.5601
 3545TIP3    H232051   2.976   4.324  12.760 -3.2353 -1.8355  0.3583
 3546TIP3   OH232052   6.574   4.219   0.717  0.4196  0.4759 -0.3013
 3546TIP3    H132053   6.618   4.177   0.790  1.3798 -0.1801 -1.2203
 3546TIP3    H232054   6.618   4.185   0.639 -1.2101  0.3878 -1.2474
 3547TIP3   OH232055   5.219   4.428   4.033  0.4624  0.1003  0.2492
 3547TIP3    H132056   5.220   4.496   3.966  2.0476  1.1366  1.2601
 3547TIP3    H232057   5.168   4.466   4.105  0.6294 -0.1136  0.4846
 3548TIP3   OH232058   2.059   1.073   6.859  0.0241 -0.1240 -0.2064
 3548TIP3    H132059   1.978   1.121   6.844  0.2567  0.4731  0.3613
 3548TIP3    H232060   2.059   1.004   6.793 -0.9423 -0.1346 -0.2160
 3549TIP3   OH232061   5.291   5.110   0.791 -0.1884 -0.5247  0.0070
 3549TIP3    H132062   5.245   5.193   0.805  0.9210  0.3584 -1.3387
 3549TIP3    H232063   5.241   5.065   0.724 -1.5330 -1.5891  1.6452
 3550TIP3   OH232064   1.121   4.755   2.116 -0.0176 -0.3629  0.0116
 3550TIP3    H132065   1.170   4.733   2.037  0.7715  2.5515 -0.4410
 3550TIP3    H232066   1.039   4.793   2.085 -0.6981 -1.2434  0.6770
 3551TIP3   OH232067   5.544   4.991   3.309 -0.6563 -0.5416  0.2233
 3551TIP3    H132068   5.624   5.042   3.323 -0.0950 -1.5815  0.9332
 3551TIP3    H232069   5.505   4.983   3.396 -1.1271 -0.7166  0.0027
 3552TIP3   OH232070   3.454   4.458  13.515 -0.0565 -0.7901 -0.5808
 3552TIP3    H132071   3.387   4.524  13.497  1.2522  1.3961  1.9324
 3552TIP3    H232072   3.529   4.485  13.461  0.1117 -0.9057 -0.4059
 3553TIP3   OH232073   5.954   1.908  15.553  0.5222 -0.8270  0.8022
 3553TIP3    H132074   5.945   1.834  15.612 -0.6756 -1.3369  0.0129
 3553TIP3    H232075   5.896   1.975  15.589 -1.3178 -1.6301 -0.4765
 3554TIP3   OH232076   4.458   5.891   1.505  0.4059  0.4032 -0.0700
 3554TIP3    H132077   4.550   5.883   1.478  0.6650  2.4660  0.0329
 3554TIP3    H232078   4.461   5.881   1.600  0.5578  0.6292 -0.0489
 3555TIP3   OH232079   4.172   1.561   0.472 -0.1656 -0.2872  0.1647
 3555TIP3    H132080   4.222   1.530   0.548  1.1666 -0.4710 -0.7433
 3555TIP3    H232081   4.087   1.517   0.479  0.5031 -1.5473  0.7124
 3556TIP3   OH232082   2.010   2.023  16.180  0.1728  0.1405  0.0027
 3556TIP3    H132083   1.925   2.008  16.222 -0.4374  0.5597 -1.0401
 3556TIP3    H232084   2.070   1.965  16.227  0.0186  2.1087  2.9235
 3557TIP3   OH232085   0.875   0.758  16.194  0.1629  0.0728 -0.2324
 3557TIP3    H132086   0.814   0.694  16.156 -1.1004  0.2243  1.4046
 3557TIP3    H232087   0.828   0.792  16.271  1.2116  2.2423 -0.4942
 3558TIP3   OH232088   5.132   0.975   3.828 -0.2841 -0.0475 -0.0088
 3558TIP3    H132089   5.209   1.005   3.876 -0.9481 -0.9734  1.6952
 3558TIP3    H232090   5.095   1.055   3.790 -0.1886  0.8494  1.7079
 3559TIP3   OH232091   3.589   5.517   0.508 -0.5014 -0.4710 -0.2269
 3559TIP3    H132092   3.503   5.554   0.486  0.0762  1.0668 -0.0127
 3559TIP3    H232093   3.569   5.436   0.553 -1.8729  0.1483  0.3405
 3560TIP3   OH232094   2.566   1.160   3.484 -0.3263  0.2187  0.9470
 3560TIP3    H132095   2.524   1.246   3.481  1.8371  1.3081 -1.3976
 3560TIP3    H232096   2.597   1.145   3.395  1.3293 -1.9838  1.7961
 3561TIP3   OH232097   6.265   5.575   0.425 -0.5367 -0.5158 -0.1218
 3561TIP3    H132098   6.264   5.659   0.470  0.1000 -0.7447  0.3270
 3561TIP3    H232099   6.284   5.510   0.493  0.2241 -0.8842 -0.6693
 3562TIP3   OH232100   2.209   2.533   3.936 -0.3940  0.2343 -0.1739
 3562TIP3    H132101   2.127   2.547   3.888 -0.9555 -1.8381  0.0640
 3562TIP3    H232102   2.237   2.620   3.963 -0.4131  1.4472 -3.6364
 3563TIP3   OH232103   4.412   1.151   3.868  0.0872  0.6262 -0.1325
 3563TIP3    H132104   4.438   1.233   3.826 -2.5092  2.0041  0.6902
 3563TIP3    H232105   4.322   1.137   3.838  0.0355 -1.2482  0.7625
 3564TIP3   OH232106   4.237   0.601  14.592 -0.5234 -0.0620  0.2103
 3564TIP3    H132107   4.157   0.574  14.546 -0.3612  0.6071 -0.4812
 3564TIP3    H232108   4.308   0.565  14.540 -0.3537 -0.4204  0.6750
 3565TIP3   OH232109   6.148   2.104  16.642  0.0287  0.0673 -0.4184
 3565TIP3    H132110   6.112   2.138  16.724 -0.3301 -0.6859 -0.2566
 3565TIP3    H232111   6.126   2.011  16.642  1.0080 -0.1807 -0.8512
 3566TIP3   OH232112   5.981   2.900  16.060  0.4045 -0.4151  0.3205
 3566TIP3    H132113   6.028   2.820  16.036 -0.1534 -0.9993  1.1158
 3566TIP3    H232114   6.043   2.971  16.042  0.3426 -0.8490 -1.9748
 3567TIP3   OH232115   5.662   4.026   2.318 -0.7216  0.3970  0.6565
 3567TIP3    H132116   5.673   4.070   2.403 -2.0846  1.2642  0.4072
 3567TIP3    H232117   5.568   4.007   2.313 -1.0656  2.2466 -1.5446
 3568TIP3   OH232118   0.668   0.920  14.177 -0.1163  0.2594  0.3905
 3568TIP3    H132119   0.613   0.929  14.099  2.3342  0.4916 -1.4294
 3568TIP3    H232120   0.731   0.851  14.154  0.5005  0.1338  2.2936
 3569TIP3   OH232121   1.704   5.254   3.188 -0.0337 -0.6994 -0.6227
 3569TIP3    H132122   1.691   5.215   3.102  0.8503 -1.3109 -0.4884
 3569TIP3    H232123   1.688   5.183   3.250  1.4141 -0.8233 -0.3706
 3570TIP3   OH232124   0.517   2.303  16.341 -0.3298 -0.1945  0.2194
 3570TIP3    H132125   0.453   2.232  16.335  1.2889 -1.7470  0.5117
 3570TIP3    H232126   0.595   2.268  16.299  0.8935  0.9637  1.4275
 3571TIP3   OH232127   6.528   5.116   5.675  0.0741  0.1904  0.2529
 3571TIP3    H132128   6.449   5.084   5.719  0.2087  0.6879  0.8799
 3571TIP3    H232129   6.574   5.037   5.648 -0.6128 -0.1049 -0.0689
 3572TIP3   OH232130   1.475   3.207   2.045 -0.0253  0.1152 -0.3833
 3572TIP3    H132131   1.493   3.273   2.111 -2.9950  1.1425 -0.4245
 3572TIP3    H232132   1.413   3.148   2.087  0.3474 -0.9576 -1.3057
 3573TIP3   OH232133   3.763   2.573  12.063 -0.3153 -0.3508  0.0185
 3573TIP3    H132134   3.755   2.623  12.144  1.4416 -0.2556  0.1793
 3573TIP3    H232135   3.722   2.627  11.996 -0.4718  0.2444  0.5932
 3574TIP3   OH232136   1.187   3.637   2.208 -0.1828  0.5283 -0.3514
 3574TIP3    H132137   1.195   3.550   2.167  0.1248  0.8282 -0.9473
 3574TIP3    H232138   1.164   3.695   2.135 -1.4279  0.7806  0.2299
 3575TIP3   OH232139   2.118   4.524  15.120  0.3559  0.3623 -0.9770
 3575TIP3    H132140   2.134   4.509  15.214  0.2043 -0.0044 -1.0066
 3575TIP3    H232141   2.025   4.508  15.109  0.4048  0.2389 -1.2196
 3576TIP3   OH232142   5.164   0.855  14.987  0.1892 -0.0066  0.5068
 3576TIP3    H132143   5.165   0.887  14.897 -0.8924 -0.9115  0.1519
 3576TIP3    H232144   5.121   0.925  15.036 -1.3818 -0.4749 -0.1167
 3577TIP3   OH232145   1.839   2.414   2.352  0.2886 -0.1593  0.1847
 3577TIP3    H132146   1.876   2.473   2.288 -0.7280 -0.1131 -0.3842
 3577TIP3    H232147   1.745   2.412   2.331  0.0177 -0.5152  1.3593
 3578TIP3   OH232148   6.544   1.541  12.675  0.0821  0.1335  0.2381
 3578TIP3    H132149   6.496   1.459  12.689 -1.5639  1.1709  0.9360
 3578TIP3    H232150   6.534   1.589  12.757  1.1738  0.9820 -0.0983
 3579TIP3   OH232151   4.623   0.909   1.668  1.1247 -0.6607  0.0739
 3579TIP3    H132152   4.650   0.959   1.744  1.2488 -1.0030  0.2568
 3579TIP3    H232153   4.633   0.970   1.594  0.6667 -0.2212  0.3729
 3580TIP3   OH232154   2.097   0.862  17.000 -0.0848  0.1693 -0.3573
 3580TIP3    H132155   2.032   0.814  16.948 -1.1332 -0.3261  1.3313
 3580TIP3    H232156   2.128   0.931  16.941 -1.3540 -0.2408 -1.5722
 3581TIP3   OH232157   6.067   2.299  13.587 -0.3347 -0.0227 -0.3319
 3581TIP3    H132158   6.124   2.354  13.534  0.8402 -2.0290 -1.2807
 3581TIP3    H232159   6.126   2.254  13.647 -1.1144 -0.9045 -0.2045
 3582TIP3   OH232160   6.206   2.040  11.793 -0.5528  0.5205 -0.5471
 3582TIP3    H132161   6.257   2.118  11.772  1.0181  0.0657  1.2648
 3582TIP3    H232162   6.138   2.036  11.725 -0.0795  2.8851 -1.2438
 3583TIP3   OH232163   0.756   6.685   4.640  0.1762 -0.2112 -0.6017
 3583TIP3    H132164   0.792   6.766   4.604 -0.3526  0.6308  0.6735
 3583TIP3    H232165   0.827   6.622   4.634  1.5044  1.0752  0.7360
 3584TIP3   OH232166   5.362   6.183   2.753  0.7565  0.5344 -0.0933
 3584TIP3    H132167   5.329   6.144   2.834 -0.5516 -0.2116 -0.9441
 3584TIP3    H232168   5.308   6.261   2.741 -2.3751 -1.7346 -2.5333
 3585TIP3   OH232169   2.985   0.835  13.126  0.3691  0.6455  0.4348
 3585TIP3    H132170   3.079   0.833  13.145  0.6391 -1.2734 -0.8527
 3585TIP3    H232171   2.943   0.844  13.212  1.6430 -2.5496  1.5495
 3586TIP3   OH232172   2.743   5.773  11.526  0.0161 -0.0466  0.0333
 3586TIP3    H132173   2.690   5.778  11.446 -0.8554 -1.1191  0.5139
 3586TIP3    H232174   2.789   5.690  11.520  1.3171  0.6675 -0.1547
 3587TIP3   OH232175   1.970   0.818   6.059 -0.6586  0.6118 -0.0872
 3587TIP3    H132176   1.892   0.763   6.072 -1.5405  1.4831 -1.4727
 3587TIP3    H232177   1.948   0.901   6.102  0.2237  0.2865  1.0283
 3588TIP3   OH232178   0.353   6.555  17.298 -0.2380  0.0902  0.2016
 3588TIP3    H132179   0.306   6.588  17.222  1.1572  2.1757  0.1605
 3588TIP3    H232180   0.323   6.609  17.371 -0.7494 -1.1572  0.9430
 3589TIP3   OH232181   0.512   1.217   1.281 -0.0588 -0.2145 -0.2005
 3589TIP3    H132182   0.451   1.276   1.239  0.7169  0.0255 -1.0273
 3589TIP3    H232183   0.467   1.186   1.359 -1.9109 -1.3892 -1.6542
 3590TIP3   OH232184   5.776   0.793  12.016 -0.3832  0.2360 -0.0910
 3590TIP3    H132185   5.787   0.783  11.921 -0.0346 -0.0074 -0.0256
 3590TIP3    H232186   5.705   0.857  12.025 -2.6144 -2.0090 -0.5333
 3591TIP3   OH232187   6.086   4.438  15.421  0.1297  0.3684  0.3610
 3591TIP3    H132188   6.129   4.523  15.410  2.3850 -0.2184  3.3395
 3591TIP3    H232189   6.095   4.419  15.514 -0.7433 -2.9487 -0.1124
 3592TIP3   OH232190   1.210   2.509   0.648 -0.5632 -0.4880  0.8572
 3592TIP3    H132191   1.173   2.456   0.719  0.7633 -3.3462 -0.4764
 3592TIP3    H232192   1.134   2.536   0.596 -1.2963 -0.6183  1.8345
 3593TIP3   OH232193   5.421   1.025  15.398  0.1324 -0.3413 -0.0000
 3593TIP3    H132194   5.475   0.984  15.331  0.1702  0.5371 -0.5310
 3593TIP3    H232195   5.355   0.959  15.420  1.2428 -1.3263  0.4585
 3594TIP3   OH232196   5.861   5.341  11.830  0.1376 -0.2187 -0.1769
 3594TIP3    H132197   5.895   5.339  11.919  1.1029 -2.1349 -0.5270
 3594TIP3    H232198   5.939   5.336  11.775 -0.4740  0.5049 -1.1345
 3595TIP3   OH232199   4.622   5.883   0.896  0.6335  0.1531  0.1263
 3595TIP3    H132200   4.589   5.973   0.891  0.6683  0.1307 -0.5341
 3595TIP3    H232201   4.543   5.829   0.897  0.4915  0.2375  2.7400
 3596TIP3   OH232202   4.491   0.416   4.957 -0.1690  0.3851  0.5828
 3596TIP3    H132203   4.583   0.417   4.930 -0.0752  0.4252  0.8911
 3596TIP3    H232204   4.464   0.508   4.954 -1.1444  0.0934 -2.5791
 3597TIP3   OH232205   5.258   4.483  11.589  0.0135 -0.2521  0.4107
 3597TIP3    H132206   5.314   4.431  11.647  0.1555 -0.6570 -0.0910
 3597TIP3    H232207   5.215   4.545  11.648 -0.7200 -1.4076  1.1390
 3598TIP3   OH232208   5.899   0.440  12.002 -0.6707  0.5430  0.9615
 3598TIP3    H132209   5.855   0.430  11.918 -0.5297 -0.2670  0.9764
 3598TIP3    H232210   5.977   0.385  11.995 -1.6362 -1.0700  2.3048
 3599TIP3   OH232211   2.719   6.152   1.853 -0.4396  0.1252  1.1848
 3599TIP3    H132212   2.757   6.237   1.873 -0.4847 -0.1070  2.3376
 3599TIP3    H232213   2.635   6.172   1.814 -0.9042  0.6224  2.3858
 3600TIP3   OH232214   0.545   4.210   0.082 -0.0186  0.3584 -0.0501
 3600TIP3    H132215   0.553   4.116   0.094  0.2905  0.3078 -0.6165
 3600TIP3    H232216   0.595   4.248   0.155  1.0456  0.0705 -0.6141
 3601TIP3   OH232217   3.902   6.094   4.715  0.2497  0.2886  0.0162
 3601TIP3    H132218   3.848   6.167   4.685 -1.3615 -0.4954  0.9092
 3601TIP3    H232219   3.958   6.132   4.783  0.7192  1.0699 -0.7880
 3602TIP3   OH232220   1.528   1.694   3.454 -0.3224 -0.2006 -0.5561
 3602TIP3    H132221   1.553   1.675   3.364 -0.3760  1.3040 -0.9148
 3602TIP3    H232222   1.601   1.662   3.507  0.5877  0.6007 -1.2914
 3603TIP3   OH232223   0.180   5.223   4.028 -0.5585  0.0367  0.0170
 3603TIP3    H132224   0.129   5.238   3.948  0.2713  2.1639 -0.1733
 3603TIP3    H232225   0.271   5.238   4.002 -0.1762 -0.1890  1.1452
 3604TIP3   OH232226   4.806   3.969  13.196  0.6591  0.4438  0.6988
 3604TIP3    H132227   4.734   3.998  13.140  0.8402 -0.1712  0.1295
 3604TIP3    H232228   4.800   4.024  13.274 -0.6488  0.1636  0.8153
 3605TIP3   OH232229   4.631   4.203  15.808 -0.4148 -0.1153  0.7686
 3605TIP3    H132230   4.666   4.212  15.719 -0.6148 -2.2989  0.4023
 3605TIP3    H232231   4.703   4.230  15.865  0.0368  0.4231 -0.0371
 3606TIP3   OH232232   3.253   5.174   1.724 -0.3361  0.0268 -0.5925
 3606TIP3    H132233   3.179   5.118   1.747 -2.0814  2.4973  0.2734
 3606TIP3    H232234   3.282   5.211   1.807 -0.4346  1.7432 -1.2805
 3607TIP3   OH232235   5.734   3.628  10.331 -0.7754  0.2464  0.5312
 3607TIP3    H132236   5.654   3.590  10.368 -1.4890 -0.2786 -1.4301
 3607TIP3    H232237   5.709   3.656  10.243  1.2719 -0.2454 -0.2635
 3608TIP3   OH232238   1.414   2.986  12.365 -0.3237 -0.0096  0.0139
 3608TIP3    H132239   1.466   2.915  12.401 -1.0796  0.2865  1.7971
 3608TIP3    H232240   1.463   3.016  12.289  1.2106 -0.8586  0.6310
 3609TIP3   OH232241   6.321   4.476   6.128 -0.4236  0.5701  0.1052
 3609TIP3    H132242   6.245   4.534   6.120 -1.0848 -0.2970 -0.0024
 3609TIP3    H232243   6.288   4.400   6.175  0.1555 -0.2083 -0.7213
 3610TIP3   OH232244   1.651   4.801   3.278  0.2185 -0.0329  0.0783
 3610TIP3    H132245   1.731   4.854   3.276  0.6813 -0.7027  0.1638
 3610TIP3    H232246   1.666   4.733   3.212  0.3597 -1.0359  1.1075
 3611TIP3   OH232247   6.004   3.784  12.375 -0.1629  0.4802 -0.3581
 3611TIP3    H132248   6.073   3.771  12.310  0.8672 -0.7061  0.9113
 3611TIP3    H232249   6.041   3.849  12.436  0.3070 -0.9074  0.8941
 3612TIP3   OH232250   6.630   3.133   1.353 -0.0317  0.4233  0.0913
 3612TIP3    H132251   6.605   3.134   1.261 -0.4118 -1.2860  0.1404
 3612TIP3    H232252   6.639   3.225   1.377  0.8565  0.8808 -1.8471
 3613TIP3   OH232253   2.455   5.945   3.677  0.1773  0.3535 -0.0635
 3613TIP3    H132254   2.544   5.914   3.695  0.1554  0.7942  0.8901
 3613TIP3    H232255   2.398   5.884   3.724  0.1120  1.4796  1.3953
 3614TIP3   OH232256   4.583   0.799   3.942 -0.0390 -0.2438 -0.0912
 3614TIP3    H132257   4.660   0.789   3.886  0.8714 -0.5799  1.1854
 3614TIP3    H232258   4.545   0.882   3.914  1.8042  0.8353  0.4206
 3615TIP3   OH232259   3.725   0.740  11.811 -0.0703 -0.8766  0.4315
 3615TIP3    H132260   3.713   0.672  11.744  0.0422  0.4568 -0.9871
 3615TIP3    H232261   3.679   0.816  11.777  1.5625  0.4202  0.9891
 3616TIP3   OH232262   2.945   5.760   5.422 -0.0655 -0.5930 -0.5170
 3616TIP3    H132263   2.969   5.755   5.514 -1.9093 -0.0706  0.0478
 3616TIP3    H232264   2.885   5.835   5.417  0.5122 -0.1997 -2.2686
 3617TIP3   OH232265   5.184   5.050   5.132 -0.0355  0.3111  0.3398
 3617TIP3    H132266   5.090   5.036   5.146 -0.0237 -0.3125 -0.1751
 3617TIP3    H232267   5.226   4.976   5.177  0.1480 -0.0057 -0.3336
 3618TIP3   OH232268   2.973   5.533   3.729 -0.0706  0.7976 -0.2746
 3618TIP3    H132269   2.957   5.468   3.797 -0.5464 -0.3911 -1.4799
 3618TIP3    H232270   3.039   5.494   3.673  1.1522  2.2380  0.0843
 3619TIP3   OH232271   2.822   1.183   0.628  0.1389 -0.0121  0.1832
 3619TIP3    H132272   2.764   1.131   0.573 -0.3721 -0.7144  1.3423
 3619TIP3    H232273   2.910   1.163   0.597 -0.0913 -1.1387  0.2389
 3620TIP3   OH232274   6.271   4.699  11.567  0.7385  0.5615  0.5030
 3620TIP3    H132275   6.313   4.749  11.637 -1.2155  2.5988  0.3666
 3620TIP3    H232276   6.179   4.695  11.593 -0.0007  1.1940 -1.7882
 3621TIP3   OH232277   4.194   5.319  12.817  0.2797 -0.1428 -0.9228
 3621TIP3    H132278   4.224   5.410  12.823  0.5369 -0.1324 -2.1108
 3621TIP3    H232279   4.245   5.272  12.882  1.1743  0.3155 -1.2804
 3622TIP3   OH232280   1.889   6.693   5.595  0.0921  0.5872  0.2540
 3622TIP3    H132281   1.878   6.659   5.683 -0.2727 -0.1889 -0.0870
 3622TIP3    H232282   1.921   6.619   5.544  0.5892  1.1069 -0.2060
 3623TIP3   OH232283   5.336   3.255  16.340 -0.2766 -0.1704  0.8889
 3623TIP3    H132284   5.388   3.268  16.419  0.5291 -0.3056  0.3900
 3623TIP3    H232285   5.383   3.304  16.272 -0.4846 -0.7667  0.3052
 3624TIP3   OH232286   1.012   4.557  11.837 -0.5941 -0.3933 -0.5337
 3624TIP3    H132287   1.076   4.615  11.878 -0.9859 -0.6128  0.4097
 3624TIP3    H232288   0.944   4.544  11.904 -1.2747 -0.7186 -1.2681
 3625TIP3   OH232289   5.835   2.451   2.715  0.6517 -0.2923 -0.0507
 3625TIP3    H132290   5.804   2.388   2.779  0.6788  0.7733  1.0469
 3625TIP3    H232291   5.770   2.522   2.717  0.4519 -0.3954 -1.4836
 3626TIP3   OH232292   0.874   5.069  12.630  0.1290 -0.0817 -0.5167
 3626TIP3    H132293   0.966   5.047  12.618  0.1781  0.0791 -0.4254
 3626TIP3    H232294   0.873   5.163  12.646 -0.1600  0.1673 -1.8712
 3627TIP3   OH232295   3.385   1.622  15.787 -0.2319 -0.4997 -0.0701
 3627TIP3    H132296   3.352   1.700  15.742 -1.3971 -0.9974 -0.1053
 3627TIP3    H232297   3.400   1.559  15.717  3.0365  0.3972 -0.3676
 3628TIP3   OH232298   1.799   0.518  13.999  0.2134  0.1331 -0.4530
 3628TIP3    H132299   1.772   0.563  14.079 -0.5835  0.8224 -1.0860
 3628TIP3    H232300   1.822   0.430  14.027 -2.0039 -0.2854  0.2611
 3629TIP3   OH232301   1.959   5.431  13.300  0.3109 -0.7285  0.1972
 3629TIP3    H132302   2.038   5.421  13.248  0.1908  0.9815 -0.3635
 3629TIP3    H232303   1.990   5.438  13.390  0.7640 -0.4058  0.0165
 3630TIP3   OH232304   2.464   3.148   0.026 -0.1904 -0.3915 -0.0104
 3630TIP3    H132305   2.474   3.198   0.107  0.0509  1.5440 -1.1724
 3630TIP3    H232306   2.382   3.100   0.038 -0.2565  0.0046  1.3020
 3631TIP3   OH232307   0.106   6.397   3.939  0.1675  0.8833  0.0131
 3631TIP3    H132308   0.165   6.407   4.014 -0.2300  1.7298  0.2295
 3631TIP3    H232309   0.142   6.456   3.873 -0.8917  2.0751  0.4514
 3632TIP3   OH232310   3.348   2.856   1.833 -0.0182 -0.3157  0.0626
 3632TIP3    H132311   3.308   2.889   1.753  0.2858 -0.1410 -0.0214
 3632TIP3    H232312   3.373   2.766   1.813 -2.8416 -1.4271  0.9819
 3633TIP3   OH232313   3.524   0.604  13.323  0.2565  0.6812  0.1965
 3633TIP3    H132314   3.610   0.564  13.307 -0.5803 -0.5696 -1.4919
 3633TIP3    H232315   3.522   0.682  13.268 -0.4190 -0.4383 -1.4566
 3634TIP3   OH232316   2.288   2.890  12.933 -0.3494  0.1148  0.2856
 3634TIP3    H132317   2.374   2.926  12.912 -1.5439  1.4665 -2.9259
 3634TIP3    H232318   2.226   2.956  12.902 -2.5849 -1.2711  1.5194
 3635TIP3   OH232319   1.781   1.717  15.501 -0.1094  0.0125  0.9756
 3635TIP3    H132320   1.814   1.778  15.568  0.9233 -0.4422  0.9069
 3635TIP3    H232321   1.750   1.774  15.431  1.2047  0.4819  0.7497
 3636TIP3   OH232322   4.608   6.623   5.086  0.3045 -0.4813 -0.6428
 3636TIP3    H132323   4.514   6.609   5.090  0.1656  0.5656  0.3398
 3636TIP3    H232324   4.628   6.632   4.993 -0.6319 -0.3024 -0.8305
 3637TIP3   OH232325   4.384   2.557   3.092 -0.1986 -0.1011 -0.4711
 3637TIP3    H132326   4.367   2.607   3.172  1.7664  0.3721 -0.2967
 3637TIP3    H232327   4.463   2.597   3.055  0.5459 -2.0809 -1.1646
 3638TIP3   OH232328   0.959   3.940   3.665  0.3602 -0.0771  0.4957
 3638TIP3    H132329   0.896   3.892   3.613  0.7270 -0.9659  0.8384
 3638TIP3    H232330   0.957   3.897   3.751  1.0269  0.2290  0.6748
 3639TIP3   OH232331   2.124   6.634  16.118  0.1134 -0.0231 -0.0435
 3639TIP3    H132332   2.193   6.640  16.185 -0.5329  3.3451  0.5109
 3639TIP3    H232333   2.101   6.541  16.117  3.8319 -1.1506  0.5175
 3640TIP3   OH232334   5.655   0.082   0.156 -1.0152 -0.3392  0.7722
 3640TIP3    H132335   5.596   0.150   0.122  1.0443  1.4941  0.6223
 3640TIP3    H232336   5.656   0.014   0.089 -1.4936  0.4818 -0.0882
 3641TIP3   OH232337   4.069   6.047  14.099 -0.4320  0.3428 -0.1056
 3641TIP3    H132338   4.117   5.975  14.139 -0.8153 -0.3501 -0.8542
 3641TIP3    H232339   4.059   6.111  14.169  0.4075 -0.0830  0.4209
 3642TIP3   OH232340   4.788   5.595  14.673 -0.1290 -0.5305 -0.3786
 3642TIP3    H132341   4.746   5.649  14.739  1.3704  1.7164 -1.1392
 3642TIP3    H232342   4.872   5.638  14.656  0.8378 -2.7003 -1.6141
 3643TIP3   OH232343   5.099   4.079  12.105  0.0914  0.5329  0.7671
 3643TIP3    H132344   5.108   3.984  12.105  1.4824  0.5603 -2.1363
 3643TIP3    H232345   5.004   4.094  12.104 -0.2040 -0.6778  2.9277
 3644TIP3   OH232346   0.215   1.406   0.015  0.1061 -0.3159 -0.1398
 3644TIP3    H132347   0.254   1.490  -0.008 -0.4320  0.1918  0.7230
 3644TIP3    H232348   0.204   1.411   0.110 -1.0390 -0.8728 -0.2333
 3645TIP3   OH232349   4.674   0.281   6.074 -0.0069  0.3193 -0.2126
 3645TIP3    H132350   4.590   0.244   6.104  0.4668 -1.2259 -0.6953
 3645TIP3    H232351   4.731   0.275   6.151  0.7810 -2.2998 -0.9153
 3646TIP3   OH232352   4.797   2.667  15.243  0.9190 -0.1855  0.0902
 3646TIP3    H132353   4.805   2.581  15.285  0.8916  0.7644  2.2103
 3646TIP3    H232354   4.703   2.677  15.229  1.0416 -1.0799 -1.5566
 3647TIP3   OH232355   3.957   0.242  14.945 -0.1517  0.1218 -0.0977
 3647TIP3    H132356   3.989   0.289  14.868 -0.2505 -3.0469 -2.2388
 3647TIP3    H232357   4.016   0.270  15.016  2.4731  0.2941 -2.1714
 3648TIP3   OH232358   5.587   6.498   2.480 -0.2359 -0.4767  0.3425
 3648TIP3    H132359   5.596   6.583   2.523  2.8411 -0.6696  0.3009
 3648TIP3    H232360   5.602   6.434   2.550  0.7640 -0.8741 -0.2077
 3649TIP3   OH232361   2.430   6.741  15.068  0.0466 -0.3642 -0.3187
 3649TIP3    H132362   2.368   6.761  15.137  0.8716  0.2182  0.2702
 3649TIP3    H232363   2.494   6.683  15.109 -0.8465 -2.1310 -1.2955
 3650TIP3   OH232364   1.327   2.317  16.162 -0.2406  0.3011  0.2740
 3650TIP3    H132365   1.315   2.341  16.254 -0.7295  0.1498  0.2523
 3650TIP3    H232366   1.266   2.373  16.114 -1.7773 -1.2775  0.2692
 3651TIP3   OH232367   0.425   4.756   5.774 -0.1504  0.0618  0.8608
 3651TIP3    H132368   0.428   4.844   5.811  1.3612  1.1803 -1.5921
 3651TIP3    H232369   0.346   4.756   5.719 -0.7964 -0.5531  1.7731
 3652TIP3   OH232370   6.619   3.996   1.153 -0.1081  0.4586 -0.4427
 3652TIP3    H132371   6.595   4.070   1.210 -0.7701  0.8169 -1.1694
 3652TIP3    H232372   6.647   3.928   1.214  0.4313  1.2744  0.2530
 3653TIP3   OH232373   4.534   2.702  15.491 -0.2614 -0.2105 -0.2195
 3653TIP3    H132374   4.572   2.616  15.475  1.2659  0.3680  0.0437
 3653TIP3    H232375   4.584   2.761  15.434 -3.0798  0.2029 -2.4996
 3654TIP3   OH232376   6.461   4.572   2.664  0.2806 -0.5155 -0.5374
 3654TIP3    H132377   6.458   4.544   2.573  0.3294  0.2911 -0.7882
 3654TIP3    H232378   6.370   4.568   2.694  0.2612 -0.7481 -0.6258
 3655TIP3   OH232379   4.429   6.411  15.141  0.0639 -0.0592  0.2812
 3655TIP3    H132380   4.398   6.467  15.213  0.2188  0.2346  0.1212
 3655TIP3    H232381   4.509   6.453  15.110 -0.6230  0.4662 -0.8372
 3656TIP3   OH232382   2.692   5.536   1.819  0.4855  0.1922 -0.3505
 3656TIP3    H132383   2.684   5.445   1.846 -0.9910 -0.5332 -2.8365
 3656TIP3    H232384   2.786   5.554   1.821  0.7185 -1.0502  1.1123
 3657TIP3   OH232385   1.049   2.518  15.719  0.3357 -0.0254 -0.0369
 3657TIP3    H132386   1.141   2.514  15.695  0.1029  0.3460 -1.0669
 3657TIP3    H232387   1.025   2.610  15.711 -0.3743 -0.2613 -0.8229
 3658TIP3   OH232388   6.514   2.951   3.614 -0.0216 -0.2480 -0.1434
 3658TIP3    H132389   6.428   2.993   3.618  0.3783  0.5106  0.6949
 3658TIP3    H232390   6.575   3.018   3.645  0.9817 -0.5163 -1.4319
 3659TIP3   OH232391   2.642   1.175   4.504  0.0879  0.0665 -0.5151
 3659TIP3    H132392   2.584   1.213   4.571 -0.6259  1.5558 -1.9128
 3659TIP3    H232393   2.609   1.086   4.492  0.6277 -0.4633  1.5315
 3660TIP3   OH232394   4.859   1.605  17.199  0.1880  0.7112 -0.1860
 3660TIP3    H132395   4.770   1.640  17.211 -0.1569  0.8612 -2.6112
 3660TIP3    H232396   4.847   1.529  17.142  1.4992 -0.2134  0.7089
 3661TIP3   OH232397   4.314   3.561   6.257 -0.8285  0.3788  0.1843
 3661TIP3    H132398   4.245   3.613   6.215  0.1878 -0.0780 -2.2167
 3661TIP3    H232399   4.268   3.495   6.308 -2.2659 -0.5174 -2.1167
 3662TIP3   OH232400   1.135   1.099   4.543 -0.7948  0.3780  0.1297
 3662TIP3    H132401   1.220   1.107   4.500 -1.7248 -1.4373 -2.2657
 3662TIP3    H232402   1.086   1.177   4.514 -0.5971  0.4096 -0.1208
 3663TIP3   OH232403   6.360   6.540  12.108  0.0830 -0.0836  0.1903
 3663TIP3    H132404   6.427   6.503  12.166 -0.9677 -2.6795 -0.1361
 3663TIP3    H232405   6.397   6.530  12.020 -0.2455 -0.4626  0.0940
 3664TIP3   OH232406   3.763   2.890  11.583  0.3743 -0.3483  0.3818
 3664TIP3    H132407   3.720   2.936  11.511 -0.5607  0.1355  1.2351
 3664TIP3    H232408   3.855   2.916  11.576  0.3551 -0.5184 -0.7842
 3665TIP3   OH232409   2.565   1.447  14.035  0.8701  0.2216  0.0607
 3665TIP3    H132410   2.631   1.511  14.062 -0.0055  0.6498  1.2559
 3665TIP3    H232411   2.549   1.468  13.942  2.8667 -0.3302 -0.4668
 3666TIP3   OH232412   5.686   2.203  14.163  0.2746 -0.1797  0.7528
 3666TIP3    H132413   5.751   2.248  14.109 -0.3548 -0.0839  0.0711
 3666TIP3    H232414   5.611   2.191  14.106 -0.5870  0.3581  1.7565
 3667TIP3   OH232415   0.844   0.574  16.715  0.2988  0.2779 -0.0176
 3667TIP3    H132416   0.908   0.595  16.647 -0.6146  0.1777 -0.9290
 3667TIP3    H232417   0.888   0.509  16.770  0.9191  0.0902 -0.7217
 3668TIP3   OH232418   2.553   2.541  15.704 -0.9426 -0.0695  0.0598
 3668TIP3    H132419   2.543   2.582  15.790 -1.0675 -0.2511  0.1326
 3668TIP3    H232420   2.476   2.485  15.695 -1.4293  0.6736 -0.5799
 3669TIP3   OH232421   3.870   3.359  14.424 -0.3469 -0.2973 -0.1198
 3669TIP3    H132422   3.830   3.272  14.427 -0.5259 -0.2534 -0.9336
 3669TIP3    H232423   3.954   3.345  14.381  0.5875 -0.4013  1.6487
 3670TIP3   OH232424   5.102   4.718  16.684  0.2708  0.4593 -0.4873
 3670TIP3    H132425   5.172   4.669  16.640  0.5111  0.4476 -0.0886
 3670TIP3    H232426   5.073   4.660  16.754  0.7564  1.0078  0.1742
 3671TIP3   OH232427   6.267   5.927  14.746 -0.5923  0.4271 -0.5838
 3671TIP3    H132428   6.296   5.915  14.836  0.0504  0.3189 -0.7985
 3671TIP3    H232429   6.231   6.015  14.743 -1.1843  0.2106 -0.0787
 3672TIP3   OH232430   4.459   0.813  14.894  0.2061  0.7028 -0.6893
 3672TIP3    H132431   4.508   0.875  14.947 -0.2026  0.5787 -0.1636
 3672TIP3    H232432   4.408   0.868  14.834 -4.4307  1.3454  3.2777
 3673TIP3   OH232433   2.087   3.010   6.487  0.1164 -0.3749  0.5024
 3673TIP3    H132434   2.182   3.015   6.485  0.1552 -1.0044  0.4193
 3673TIP3    H232435   2.066   2.929   6.440 -0.5156  0.3370 -0.4826
 3674TIP3   OH232436   5.987   0.567  12.413  0.0856 -0.1686  0.1404
 3674TIP3    H132437   6.035   0.528  12.339  2.4386  0.1823  1.3684
 3674TIP3    H232438   5.961   0.653  12.382  1.8156  0.3269 -0.0727
 3675TIP3   OH232439   3.795   3.789  16.511 -0.2441 -0.0605  0.1539
 3675TIP3    H132440   3.747   3.725  16.562  0.4053 -0.0220  0.8214
 3675TIP3    H232441   3.776   3.767  16.420 -0.1929 -1.0703  0.3830
 3676TIP3   OH232442   1.536   5.949  13.596  0.0151 -0.0525 -0.5537
 3676TIP3    H132443   1.600   5.975  13.530 -1.4301  0.0296 -1.9936
 3676TIP3    H232444   1.576   5.874  13.639  1.4696  0.5713 -0.7629
 3677TIP3   OH232445   6.143   1.506   2.294 -0.4799 -0.2293  0.0951
 3677TIP3    H132446   6.162   1.457   2.214  0.4190  0.4356 -0.1201
 3677TIP3    H232447   6.226   1.507   2.342 -1.2718 -1.5125  1.5519
 3678TIP3   OH232448   1.581   3.056   0.188  0.2492  0.0923 -0.8390
 3678TIP3    H132449   1.638   3.049   0.111  0.5705  0.5730 -0.6465
 3678TIP3    H232450   1.525   3.132   0.170  0.9738  0.7989 -0.1816
 3679TIP3   OH232451   1.496   3.752  16.172 -0.1109 -0.0802  0.5806
 3679TIP3    H132452   1.566   3.780  16.113 -0.0425  1.3224  1.2971
 3679TIP3    H232453   1.511   3.658  16.184  1.5873  0.1639  0.6139
 3680TIP3   OH232454   5.865   5.120  15.327  0.8139 -0.2637  0.2400
 3680TIP3    H132455   5.812   5.176  15.270  1.2772 -0.1751 -0.1076
 3680TIP3    H232456   5.947   5.168  15.338  0.8077 -0.3793  0.8176
 3681TIP3   OH232457   6.080   0.500  12.661 -0.1434 -0.5696 -0.0063
 3681TIP3    H132458   6.172   0.512  12.640 -0.2461 -0.3525 -0.3422
 3681TIP3    H232459   6.033   0.530  12.583 -0.5306  0.1116  0.4763
 3682TIP3   OH232460   4.317   3.748   2.302 -0.6771 -0.2291  0.4044
 3682TIP3    H132461   4.353   3.680   2.359 -0.4378  0.0717  0.6125
 3682TIP3    H232462   4.244   3.786   2.352  0.1994  0.7575  0.9618
 3683TIP3   OH232463   3.210   4.463  14.946  0.8500  0.4335 -0.1044
 3683TIP3    H132464   3.158   4.526  14.896  0.1785  1.1320  1.4092
 3683TIP3    H232465   3.209   4.496  15.035 -1.1701 -2.6559  1.2128
 3684TIP3   OH232466   6.418   3.201  16.495 -0.4449  0.4819 -0.1424
 3684TIP3    H132467   6.341   3.158  16.532 -1.5985  1.4024 -1.3738
 3684TIP3    H232468   6.420   3.287  16.537  2.0725 -0.7393  2.6026
 3685TIP3   OH232469   5.876   4.208  14.803  0.1330  0.0636  0.3351
 3685TIP3    H132470   5.835   4.265  14.737  0.0479 -0.0938  0.2512
 3685TIP3    H232471   5.946   4.262  14.841  0.8657 -0.1827 -0.6054
 3686TIP3   OH232472   3.137   5.089   4.509 -0.3314 -0.4683 -0.1935
 3686TIP3    H132473   3.085   5.013   4.533  0.3700 -0.3266  2.0829
 3686TIP3    H232474   3.095   5.162   4.555  0.6322 -0.0045 -0.0206
 3687TIP3   OH232475   5.960   2.581   5.368 -0.6133 -0.2958 -0.2603
 3687TIP3    H132476   5.913   2.562   5.449  0.3467  0.6029  0.5248
 3687TIP3    H232477   6.039   2.627   5.395 -0.7513  0.9122 -1.7702
 3688TIP3   OH232478   0.519   3.933   2.864  0.2101  0.4260 -0.0307
 3688TIP3    H132479   0.596   3.974   2.902 -0.6892 -0.4171  2.9945
 3688TIP3    H232480   0.449   3.998   2.875 -0.5000 -0.5790  1.7447
 3689TIP3   OH232481   4.275   1.608  12.621 -0.3677 -0.0390 -0.2234
 3689TIP3    H132482   4.309   1.547  12.687  1.9012  2.2790  0.9089
 3689TIP3    H232483   4.198   1.647  12.663 -2.0362 -2.1915 -1.0814
 3690TIP3   OH232484   6.648   4.041  12.675  0.2949  0.1273 -0.2854
 3690TIP3    H132485   6.678   3.950  12.673 -2.2697 -0.7961 -0.0498
 3690TIP3    H232486   6.650   4.064  12.768 -1.0228 -0.4287 -0.1033
 3691TIP3   OH232487   6.625   3.886  16.696  0.0562 -1.0110  0.3183
 3691TIP3    H132488   6.642   3.874  16.790 -0.0444  2.7891  0.9577
 3691TIP3    H232489   6.533   3.863  16.686  0.0956 -1.5744  1.0961
 3692TIP3   OH232490   1.160   1.231  12.241  0.0837  0.0805  0.1958
 3692TIP3    H132491   1.245   1.187  12.241  0.1226  0.1362 -0.7785
 3692TIP3    H232492   1.163   1.288  12.163 -0.0579  1.6259  1.2754
 3693TIP3   OH232493   0.743   1.981   3.110  0.0352  0.7558 -0.8634
 3693TIP3    H132494   0.702   2.050   3.162  0.1410  0.0743  0.1528
 3693TIP3    H232495   0.783   2.027   3.037 -0.5112  1.6910 -0.5933
 3694TIP3   OH232496   0.852   3.126   1.793 -0.0014 -0.1076 -0.2525
 3694TIP3    H132497   0.776   3.069   1.795  0.3311 -0.5320  0.6269
 3694TIP3    H232498   0.873   3.135   1.700 -0.3731 -1.0026 -0.4264
 3695TIP3   OH232499   3.777   5.328  16.367 -0.3258  0.5598  0.8391
 3695TIP3    H132500   3.802   5.318  16.275 -0.3192  0.3013  0.8685
 3695TIP3    H232501   3.844   5.280  16.415  0.1407  1.3926  1.0343
 3696TIP3   OH232502   2.502   0.978  13.998  0.2927 -0.4740 -0.5562
 3696TIP3    H132503   2.571   1.044  13.992  0.6890 -0.8909 -0.6788
 3696TIP3    H232504   2.424   1.027  14.022  0.5624  0.0496 -0.7258
 3697TIP3   OH232505   4.841   1.723  13.777  0.5980 -0.0148  0.3845
 3697TIP3    H132506   4.881   1.718  13.863  0.2191 -1.2944  0.5091
 3697TIP3    H232507   4.905   1.684  13.718  1.3003  1.7976 -0.1065
 3698TIP3   OH232508   3.324   1.804   2.696 -0.3714  0.0886 -0.4028
 3698TIP3    H132509   3.295   1.895   2.689 -0.1131  0.3389  1.2943
 3698TIP3    H232510   3.385   1.793   2.623 -0.1740  1.3820 -0.4652
 3699TIP3   OH232511   2.487   4.080   3.812  0.0743  0.2700 -0.2026
 3699TIP3    H132512   2.459   4.073   3.903 -0.7075  0.2230 -0.4368
 3699TIP3    H232513   2.577   4.048   3.812  0.6957  1.8730  0.8456
 3700TIP3   OH232514   4.117   5.091   2.576  0.2135  0.4492  0.5642
 3700TIP3    H132515   4.208   5.105   2.599  0.0368  1.8103  0.4998
 3700TIP3    H232516   4.120   5.021   2.510  1.1695  0.2755  0.7738
 3701TIP3   OH232517   3.631   1.339   2.035  0.1498 -0.1538  0.4774
 3701TIP3    H132518   3.622   1.347   2.130 -0.6127  1.3638  0.3050
 3701TIP3    H232519   3.726   1.342   2.020  0.2214  1.8638  1.0511
 3702TIP3   OH232520   6.320   2.801   1.207  0.1269 -0.1518 -0.2234
 3702TIP3    H132521   6.224   2.802   1.207  0.1161 -0.6739  0.8751
 3702TIP3    H232522   6.345   2.891   1.226 -0.0935  0.5859 -2.9486
 3703TIP3   OH232523   6.646   1.727  14.322  0.7566  0.7102 -0.2571
 3703TIP3    H132524   6.688   1.764  14.245  0.0808  2.5748  0.2097
 3703TIP3    H232525   6.554   1.752  14.314 -0.1699 -2.3268 -0.7048
 3704TIP3   OH232526   5.475   2.075   4.465  0.0232 -0.6893 -0.3587
 3704TIP3    H132527   5.514   2.056   4.551  0.2316 -0.5172 -0.4150
 3704TIP3    H232528   5.438   1.992   4.437  2.1581 -1.3895 -1.2493
 3705TIP3   OH232529   5.164   5.388   2.679  0.0138 -0.3034 -0.2336
 3705TIP3    H132530   5.136   5.306   2.719  0.0328 -0.3321 -0.2793
 3705TIP3    H232531   5.123   5.456   2.733 -1.2573 -0.3552 -1.0798
 3706TIP3   OH232532   6.529   1.898   3.652  0.0735 -0.0674 -0.4413
 3706TIP3    H132533   6.622   1.919   3.660  0.8586 -2.6690 -1.7016
 3706TIP3    H232534   6.486   1.983   3.637  2.4267  1.0514 -1.3172
 3707TIP3   OH232535   1.880   0.881  14.047  0.0527 -0.3296 -0.4176
 3707TIP3    H132536   1.856   0.959  14.097 -0.9993 -1.0711  0.2632
 3707TIP3    H232537   1.976   0.877  14.052  0.2390  1.5241 -1.4095
 3708TIP3   OH232538   0.266   1.800  13.014 -0.0765 -0.1665  0.4223
 3708TIP3    H132539   0.334   1.794  12.947 -0.7839  0.9649 -0.4407
 3708TIP3    H232540   0.207   1.727  12.995  0.4912 -0.7144  0.7251
 3709TIP3   OH232541   2.374   6.117   5.827  0.6610 -0.4998  0.4419
 3709TIP3    H132542   2.294   6.134   5.778  0.5801  0.0006  0.7359
 3709TIP3    H232543   2.368   6.025   5.851 -0.3744 -0.2135  1.4001
 3710TIP3   OH232544   1.579   1.315  14.535  0.5382  0.4895  0.4584
 3710TIP3    H132545   1.590   1.220  14.533  1.7289  0.5265 -3.1904
 3710TIP3    H232546   1.658   1.347  14.578 -0.6193 -0.0745  3.2572
 3711TIP3   OH232547   1.803   1.462  14.662 -0.7125 -0.4823 -0.0523
 3711TIP3    H132548   1.787   1.556  14.664 -0.5832 -0.4644  0.2751
 3711TIP3    H232549   1.875   1.451  14.600 -0.4575 -0.3217  0.2124
 3712TIP3   OH232550   4.495   4.660   0.367 -0.5327 -0.3774  0.0426
 3712TIP3    H132551   4.532   4.571   0.364  0.6061  0.0840 -0.5863
 3712TIP3    H232552   4.507   4.688   0.458 -0.9750 -0.8922  0.2636
 3713TIP3   OH232553   3.617   3.450   5.172  0.2338  0.4814  0.1158
 3713TIP3    H132554   3.680   3.426   5.105  0.2754  1.8204 -0.3595
 3713TIP3    H232555   3.593   3.368   5.214  2.0919 -0.0736  0.1405
 3714TIP3   OH232556   1.492   4.281  15.859 -0.2872 -0.0166  0.1339
 3714TIP3    H132557   1.512   4.221  15.931 -0.0580 -0.4176 -0.2572
 3714TIP3    H232558   1.500   4.368  15.897 -2.6358 -0.2187  1.2571
 3715TIP3   OH232559   5.587   2.256   3.875  0.3446  0.1804  0.1838
 3715TIP3    H132560   5.503   2.273   3.917 -0.8248  0.6899 -2.1628
 3715TIP3    H232561   5.645   2.229   3.946 -1.4407  1.0589  2.0664
 3716TIP3   OH232562   3.920   5.130   0.422  0.1472 -0.3004  0.1586
 3716TIP3    H132563   3.946   5.045   0.457  0.0148 -0.6252 -0.5053
 3716TIP3    H232564   4.003   5.177   0.410  0.3869 -0.9342 -0.9467
 3717TIP3   OH232565   0.798   5.027   0.236 -0.2419  0.0146  0.0018
 3717TIP3    H132566   0.825   5.119   0.239  0.8110 -0.2812  0.0114
 3717TIP3    H232567   0.819   4.992   0.322  1.4153 -0.7632 -0.6667
 3718TIP3   OH232568   2.766   2.337  15.234 -0.2074 -0.3774 -0.9626
 3718TIP3    H132569   2.738   2.399  15.167  0.9623  1.8000  0.4611
 3718TIP3    H232570   2.759   2.385  15.316  2.0240 -1.6644  0.0842
 3719TIP3   OH232571   0.931   1.500  15.856  0.3430  0.2884 -0.1144
 3719TIP3    H132572   0.900   1.501  15.947  0.6569 -1.7079  0.0499
 3719TIP3    H232573   0.884   1.427  15.815 -0.2668  1.5364 -1.7683
 3720TIP3   OH232574   2.406   4.093   3.047 -0.0688 -0.1744 -0.0195
 3720TIP3    H132575   2.474   4.057   2.990 -0.4428 -0.8373 -0.0503
 3720TIP3    H232576   2.369   4.165   2.997 -0.0158 -0.4001 -0.3883
 3721TIP3   OH232577   6.315   1.618   0.744 -0.0624 -0.0702 -0.0116
 3721TIP3    H132578   6.240   1.664   0.781 -1.3179 -1.4291 -0.7517
 3721TIP3    H232579   6.279   1.570   0.669  1.4738 -1.0394 -0.1798
 3722TIP3   OH232580   1.092   2.238   5.072 -0.2045 -0.0491  0.1174
 3722TIP3    H132581   1.058   2.217   5.159  1.5166 -4.0702  0.0311
 3722TIP3    H232582   1.067   2.163   5.018  3.4248 -0.3436 -1.4090
 3723TIP3   OH232583   5.120   6.632  13.936 -0.0984 -0.2637  0.4378
 3723TIP3    H132584   5.149   6.567  13.871  0.4779  0.0873  0.3459
 3723TIP3    H232585   5.124   6.716  13.890 -0.4490 -0.1034  0.6875
 3724TIP3   OH232586   4.118   4.514   0.123 -0.5929 -0.6585 -0.5187
 3724TIP3    H132587   4.071   4.560   0.192 -0.3330 -0.4864 -0.4524
 3724TIP3    H232588   4.067   4.530   0.043 -0.9430 -0.9370 -0.3515
 3725TIP3   OH232589   1.699   6.500   5.130 -0.0970  0.5669  0.0402
 3725TIP3    H132590   1.691   6.495   5.225  2.5291  0.5046  0.3424
 3725TIP3    H232591   1.691   6.593   5.110  0.4332  0.7178  0.4885
 3726TIP3   OH232592   3.888   2.052  11.800  0.4610 -0.3000 -0.2792
 3726TIP3    H132593   3.820   1.986  11.789  0.9656 -0.6043 -1.8335
 3726TIP3    H232594   3.864   2.122  11.739  0.8175  0.2008  0.1456
 3727TIP3   OH232595   2.940   2.039  11.403 -0.4891 -0.5543  0.5381
 3727TIP3    H132596   2.985   1.990  11.472  0.7865 -0.6929 -0.3611
 3727TIP3    H232597   2.876   1.978  11.367  1.3717 -1.7561 -0.8573
 3728TIP3   OH232598   1.402   6.089  14.438 -0.1936  0.5279 -0.0558
 3728TIP3    H132599   1.333   6.025  14.453  2.4013 -2.7361 -0.9038
 3728TIP3    H232600   1.412   6.093  14.343  0.4753  1.2978  0.0278
 3729TIP3   OH232601   3.728   0.666   3.026 -0.1084 -0.2805 -0.9042
 3729TIP3    H132602   3.788   0.715   3.082 -2.6641 -1.1779  3.0628
 3729TIP3    H232603   3.661   0.729   3.001  0.9969  0.1016 -3.0705
 3730TIP3   OH232604   4.325   1.950   2.288 -0.0175 -0.4506 -0.6014
 3730TIP3    H132605   4.363   2.015   2.229 -0.9270  1.7461  1.0861
 3730TIP3    H232606   4.248   1.918   2.241  0.9255 -1.0155 -1.8284
 3731TIP3   OH232607   1.747   2.600  11.555 -0.3571  0.0381 -0.0466
 3731TIP3    H132608   1.818   2.660  11.576  0.5518 -0.8266 -0.5980
 3731TIP3    H232609   1.681   2.656  11.513 -0.0827  0.8736  0.6032
 3732TIP3   OH232610   4.365   2.339  12.434  0.1711 -1.0078 -0.3518
 3732TIP3    H132611   4.390   2.431  12.430 -0.7548 -0.7802 -2.9547
 3732TIP3    H232612   4.289   2.337  12.493  0.8023 -0.3088  0.5139
 3733TIP3   OH232613   1.880   3.613   1.989  0.2028 -0.1909  0.2168
 3733TIP3    H132614   1.791   3.579   1.979  0.4169 -0.3842 -1.3367
 3733TIP3    H232615   1.923   3.590   1.907  1.7989 -0.4143  1.0814
 3734TIP3   OH232616   3.234   5.244  11.585 -0.0446  0.2177 -0.2071
 3734TIP3    H132617   3.193   5.244  11.498  0.4527  1.5209 -0.4694
 3734TIP3    H232618   3.234   5.336  11.611 -2.5234 -0.3803  2.3342
 3735TIP3   OH232619   3.114   6.051  16.391  0.0731 -0.0385  0.2371
 3735TIP3    H132620   3.098   5.961  16.363  0.1146  0.0465 -0.0602
 3735TIP3    H232621   3.186   6.081  16.335 -1.4058  0.9189 -1.2148
 3736TIP3   OH232622   3.810   2.362   5.888  0.3463 -0.6628  0.6538
 3736TIP3    H132623   3.900   2.346   5.861  0.3794 -0.9061  0.9015
 3736TIP3    H232624   3.803   2.322   5.975  0.5904  1.1464  1.5425
 3737TIP3   OH232625   6.313   4.863  14.618 -0.1348  0.0040  0.4397
 3737TIP3    H132626   6.358   4.780  14.632 -1.7996 -0.9089  0.5875
 3737TIP3    H232627   6.261   4.850  14.539 -0.8743  0.6778  0.7915
 3738TIP3   OH232628   2.842   5.132  17.003 -0.3663 -0.3973  0.0056
 3738TIP3    H132629   2.887   5.200  17.052  0.6433 -2.2662  1.8320
 3738TIP3    H232630   2.801   5.178  16.930  3.4251  1.6413 -1.1070
 3739TIP3   OH232631   0.257   2.522   2.617 -0.1976  0.1145  0.9357
 3739TIP3    H132632   0.174   2.567   2.626 -0.5974 -0.2031 -0.7800
 3739TIP3    H232633   0.280   2.495   2.706 -1.2602  1.3536  1.6061
 3740TIP3   OH232634   6.054   0.652  17.347  0.5651  0.0005  0.0920
 3740TIP3    H132635   6.082   0.663  17.256 -0.9079  1.6537 -0.2075
 3740TIP3    H232636   5.977   0.595  17.341  0.0440  0.6791  0.2038
 3741TIP3   OH232637   5.908   2.674  11.941 -0.0424  0.6460  0.5900
 3741TIP3    H132638   5.980   2.722  11.899 -1.3330  0.6178 -1.8233
 3741TIP3    H232639   5.891   2.722  12.021  1.8581  1.3666  0.6232
 3742TIP3   OH232640   4.783   1.675  14.288  0.4407 -0.1293  0.2939
 3742TIP3    H132641   4.707   1.723  14.254  0.7381  0.0509 -0.1297
 3742TIP3    H232642   4.852   1.693  14.225  1.0080  0.2099  0.9980
 3743TIP3   OH232643   0.030   4.302   6.146 -0.1171 -0.0467 -0.7142
 3743TIP3    H132644   0.039   4.397   6.149  0.8487 -0.1413 -0.0942
 3743TIP3    H232645  -0.058   4.285   6.181  0.6860  0.5005  1.7818
 3744TIP3   OH232646   4.161   1.698   5.407 -0.0570 -0.1979 -0.3683
 3744TIP3    H132647   4.214   1.735   5.478  0.5573 -0.8447 -0.4765
 3744TIP3    H232648   4.137   1.611   5.438 -1.6243  0.3268 -0.0463
 3745TIP3   OH232649   1.843   6.026   1.453 -0.5381 -0.2272  0.3951
 3745TIP3    H132650   1.934   6.054   1.460 -0.8082  0.7865  0.0267
 3745TIP3    H232651   1.849   5.935   1.424  0.3597 -0.0749  0.0545
 3746TIP3   OH232652   4.473   2.742   2.160  0.0911  0.1463 -0.1769
 3746TIP3    H132653   4.422   2.771   2.084 -0.6434 -0.7529 -0.0574
 3746TIP3    H232654   4.469   2.816   2.221 -0.6683  0.2838 -0.3751
 3747TIP3   OH232655   2.126   6.313  13.598  0.0723  0.1984  0.7703
 3747TIP3    H132656   2.126   6.366  13.678  0.1283  2.9887 -0.9279
 3747TIP3    H232657   2.200   6.345  13.548 -0.9505 -0.2571 -1.1303
 3748TIP3   OH232658   2.505   2.427   0.465  0.0684 -0.6427  0.1045
 3748TIP3    H132659   2.514   2.481   0.387  1.1614 -3.4985 -1.9182
 3748TIP3    H232660   2.589   2.435   0.510  0.3193 -0.7991 -0.3240
 3749TIP3   OH232661   5.623   1.449   1.671 -0.3827 -0.1836  0.3431
 3749TIP3    H132662   5.547   1.506   1.684  0.1154  1.2136 -2.1868
 3749TIP3    H232663   5.698   1.506   1.689  0.2385  1.0142 -4.5235
 3750TIP3   OH232664   4.502   0.634   1.027  0.2738 -0.5421  0.2014
 3750TIP3    H132665   4.505   0.545   0.993 -1.4328 -0.1000 -1.2069
 3750TIP3    H232666   4.545   0.688   0.960 -3.7080  0.4304 -1.8558
 3751TIP3   OH232667   0.970   4.894   3.105  0.0024 -0.3745 -0.3771
 3751TIP3    H132668   0.939   4.865   3.020 -1.5898  0.1285  0.0030
 3751TIP3    H232669   0.893   4.891   3.162  0.7185  0.5959  0.7066
 3752TIP3   OH232670   1.474   5.984   5.024 -0.3331 -0.6211  0.4991
 3752TIP3    H132671   1.504   5.996   4.934 -0.3777  2.2612  0.7830
 3752TIP3    H232672   1.405   5.918   5.017  0.3319 -1.1845 -1.4092
 3753TIP3   OH232673   6.168   6.223   2.466  0.0181  0.1175 -0.1229
 3753TIP3    H132674   6.223   6.219   2.545  2.4870 -0.1757 -1.7338
 3753TIP3    H232675   6.164   6.133   2.436 -0.0925  0.3548 -0.8299
 3754TIP3   OH232676   0.597   3.166   2.272 -1.0265 -0.2495  0.1609
 3754TIP3    H132677   0.564   3.255   2.260 -1.0028 -0.0431  1.5116
 3754TIP3    H232678   0.536   3.111   2.223 -0.5000  0.5743 -1.4996
 3755TIP3   OH232679   1.773   3.406  13.236 -0.4680 -0.3835 -0.2992
 3755TIP3    H132680   1.714   3.429  13.308 -0.0162 -1.0233  0.2891
 3755TIP3    H232681   1.798   3.490  13.197 -1.8746 -0.1116 -0.6575
 3756TIP3   OH232682   1.143   1.424  12.668  0.0989  0.5658 -0.5345
 3756TIP3    H132683   1.066   1.481  12.668  1.0509  1.9747  1.3963
 3756TIP3    H232684   1.198   1.458  12.739  2.4932 -0.4246 -1.8014
 3757TIP3   OH232685   0.285   5.926  14.905 -0.1444 -0.7524  0.2694
 3757TIP3    H132686   0.232   5.857  14.866 -0.2226 -0.8187  0.4884
 3757TIP3    H232687   0.230   5.961  14.975 -0.8562  0.7843 -1.0171
 3758TIP3   OH232688   2.048   4.755  12.632  0.0673 -0.1876 -0.7488
 3758TIP3    H132689   2.040   4.811  12.554 -1.1475  0.5422 -0.1391
 3758TIP3    H232690   2.056   4.817  12.704  3.0772 -0.8506 -0.3868
 3759TIP3   OH232691   4.162   2.516  14.286 -0.6723 -0.3031 -0.1558
 3759TIP3    H132692   4.215   2.508  14.366  1.0893  0.5355 -1.1760
 3759TIP3    H232693   4.072   2.518  14.318 -0.0063  0.8186  1.8999
 3760TIP3   OH232694   1.293   4.659  16.284 -0.0667  0.2355 -0.1565
 3760TIP3    H132695   1.336   4.725  16.230  0.9799  0.0648  0.4171
 3760TIP3    H232696   1.318   4.576  16.245  0.8885  0.1012  0.6716
 3761TIP3   OH232697   2.383   5.768  15.466  0.0397 -0.2659  0.1688
 3761TIP3    H132698   2.342   5.732  15.387 -0.9185  0.9674  0.0739
 3761TIP3    H232699   2.323   5.745  15.537 -0.7567  1.3710  0.0598
 3762TIP3   OH232700   3.296   0.863  13.157  0.1031 -0.7191 -0.6575
 3762TIP3    H132701   3.361   0.927  13.127  1.1433 -1.5791 -0.3063
 3762TIP3    H232702   3.296   0.873  13.252  0.4478 -1.3939 -0.5815
 3763TIP3   OH232703   1.083   1.676   3.070 -0.0357  0.3877 -0.0638
 3763TIP3    H132704   1.035   1.750   3.107  0.9407  1.0116 -0.0331
 3763TIP3    H232705   1.168   1.678   3.112 -0.2354 -1.2042  0.4784
 3764TIP3   OH232706   4.843   6.235   1.688  0.0329  0.1738  0.5818
 3764TIP3    H132707   4.863   6.222   1.780  3.1124  0.8398  0.1105
 3764TIP3    H232708   4.895   6.170   1.642 -0.5802  0.5843 -0.7570
 3765TIP3   OH232709   5.774   1.391  15.898  0.1856 -0.1187 -0.1125
 3765TIP3    H132710   5.769   1.485  15.880 -4.4876 -0.6033 -2.9186
 3765TIP3    H232711   5.711   1.376  15.968  1.4013 -1.1576  0.7998
 3766TIP3   OH232712   1.511   2.428  10.916 -0.0707  0.4058 -0.6207
 3766TIP3    H132713   1.575   2.375  10.869  0.3929  0.4211 -0.0061
 3766TIP3    H232714   1.562   2.495  10.961 -0.3343 -0.5008  1.1167
 3767TIP3   OH232715   0.561   3.818  14.192 -0.1417  0.1426 -0.8551
 3767TIP3    H132716   0.553   3.875  14.269 -0.3064 -0.4905 -0.3918
 3767TIP3    H232717   0.617   3.866  14.132 -0.0401  0.6658 -0.3512
 3768TIP3   OH232718   4.418   4.524   2.183  0.6059  0.2806 -0.0919
 3768TIP3    H132719   4.326   4.503   2.195  0.6218  0.0610 -0.3432
 3768TIP3    H232720   4.451   4.457   2.123  1.4267 -0.9153  1.5978
 3769TIP3   OH232721   3.156   3.892  14.892 -0.2079  0.5091  0.0344
 3769TIP3    H132722   3.116   3.977  14.875 -0.7355 -0.0866 -1.9572
 3769TIP3    H232723   3.120   3.835  14.825  1.3197 -0.9257  0.3728
 3770TIP3   OH232724   4.094   6.374   5.509 -0.0931 -0.8145  0.1266
 3770TIP3    H132725   4.103   6.416   5.423 -0.5622 -2.1293 -0.5951
 3770TIP3    H232726   4.163   6.413   5.562  0.2495 -0.0194 -0.8636
 3771TIP3   OH232727   3.559   1.533  11.556 -0.2628 -0.1861  0.1383
 3771TIP3    H132728   3.519   1.620  11.560 -0.0364 -0.1173  0.9609
 3771TIP3    H232729   3.500   1.483  11.499 -0.0483  0.6715 -0.8802
 3772TIP3   OH232730   5.057   3.155  14.915  0.1385 -0.2937  0.5005
 3772TIP3    H132731   4.983   3.203  14.952  0.5146  0.4229  0.3586
 3772TIP3    H232732   5.023   3.115  14.835 -0.3923 -0.9422  1.0466
 3773TIP3   OH232733   0.676   1.949  10.393 -0.0230  0.3291 -0.0645
 3773TIP3    H132734   0.644   1.871  10.346  1.4146  0.0311 -0.5865
 3773TIP3    H232735   0.735   1.914  10.460 -0.3665  0.8998  0.5459
 3774TIP3   OH232736   5.455   0.905   6.400 -0.0177  0.1245  0.1081
 3774TIP3    H132737   5.533   0.849   6.404  0.0843  0.1111 -1.4353
 3774TIP3    H232738   5.382   0.843   6.393 -0.1444  0.1471  1.1120
 3775TIP3   OH232739   2.252   6.569  11.611 -0.1702  0.1193 -0.7777
 3775TIP3    H132740   2.254   6.522  11.528  0.7436 -0.1081 -0.6413
 3775TIP3    H232741   2.338   6.610  11.617  1.2331 -2.7699  1.6660
 3776TIP3   OH232742   5.660   0.692   3.956 -0.0779  0.7188 -0.4403
 3776TIP3    H132743   5.693   0.705   3.867  1.4993 -3.2126 -0.6086
 3776TIP3    H232744   5.564   0.693   3.946  0.0721  0.5457 -2.1358
 3777TIP3   OH232745   4.806   4.858   4.599 -0.2768 -0.2893  0.2664
 3777TIP3    H132746   4.745   4.787   4.622 -0.0075 -0.4069  0.6451
 3777TIP3    H232747   4.752   4.923   4.556 -0.1476 -1.7127 -2.2225
 3778TIP3   OH232748   4.867   4.138   0.271  0.0005 -0.4149  0.3419
 3778TIP3    H132749   4.805   4.145   0.198  0.1808 -0.2810  0.1980
 3778TIP3    H232750   4.952   4.123   0.229  0.1441 -0.0887  0.5110
 3779TIP3   OH232751   1.793   3.268  15.510  0.2331  0.0166  0.1118
 3779TIP3    H132752   1.826   3.339  15.455  0.1089  0.6954  0.8961
 3779TIP3    H232753   1.865   3.205  15.512 -0.3537 -0.8549 -2.1840
 3780TIP3   OH232754   5.115   3.443   3.814  0.3684  0.3148  0.5913
 3780TIP3    H132755   5.022   3.442   3.789  0.5155 -1.1171  0.0007
 3780TIP3    H232756   5.118   3.499   3.892 -0.8214  1.1995  0.0407
 3781TIP3   OH232757   5.464   0.449  12.367  0.1565  0.2238  0.1626
 3781TIP3    H132758   5.449   0.467  12.274 -0.6438 -2.1971 -0.2792
 3781TIP3    H232759   5.546   0.399  12.369  0.7278  1.1721  0.8991
 3782TIP3   OH232760   5.444   3.160   2.888  0.2744 -0.4755 -0.4960
 3782TIP3    H132761   5.412   3.096   2.952  1.3401 -2.5909 -1.9587
 3782TIP3    H232762   5.531   3.129   2.865  0.0498  0.4011 -2.7343
 3783TIP3   OH232763   6.223   3.802   2.866  0.3288  0.1799  0.2352
 3783TIP3    H132764   6.144   3.815   2.919 -1.0880 -0.7925 -1.4974
 3783TIP3    H232765   6.294   3.796   2.929 -1.3426 -1.6775  2.1091
 3784TIP3   OH232766   2.364   4.611  17.383 -0.2990  0.0892 -0.2967
 3784TIP3    H132767   2.353   4.533  17.329 -0.2796  0.5658 -0.9919
 3784TIP3    H232768   2.332   4.585  17.469  0.6616 -1.0069 -0.2478
 3785TIP3   OH232769   3.801   4.812   4.553 -0.1609  0.6809  0.1179
 3785TIP3    H132770   3.872   4.758   4.587  1.0497 -0.3061 -3.4992
 3785TIP3    H232771   3.739   4.750   4.516 -1.1260  1.6614  0.0274
 3786TIP3   OH232772   0.738   4.707  11.852  0.3145 -0.2469 -0.1853
 3786TIP3    H132773   0.654   4.732  11.814  1.0709  0.1922 -1.6495
 3786TIP3    H232774   0.720   4.698  11.946 -1.2239  0.3953 -0.3804
 3787TIP3   OH232775   3.531   3.409  14.370 -0.3053 -0.1671  0.1586
 3787TIP3    H132776   3.535   3.339  14.436  1.6634 -0.5658 -0.3299
 3787TIP3    H232777   3.618   3.411  14.331 -0.8075  1.4779 -1.0001
 3788TIP3   OH232778   0.883   4.968  12.270 -0.0859  0.2602 -0.3849
 3788TIP3    H132779   0.805   4.944  12.320 -1.6276  1.6685 -1.9933
 3788TIP3    H232780   0.956   4.949  12.329 -1.7673  1.5552  2.2856
 3789TIP3   OH232781   6.320   0.175  14.178 -0.0971  0.7371 -0.2681
 3789TIP3    H132782   6.404   0.170  14.133  0.7985  2.0729  1.1678
 3789TIP3    H232783   6.342   0.167  14.271 -1.8258 -1.3301  0.0422
 3790TIP3   OH232784   2.407   4.757  14.347 -0.5070 -0.4251  0.0925
 3790TIP3    H132785   2.438   4.669  14.368  0.6128 -0.1001 -0.1305
 3790TIP3    H232786   2.433   4.771  14.256  0.0674  0.4406  0.3722
 3791TIP3   OH232787   0.459   3.413   2.289 -0.6557  0.3407 -0.6785
 3791TIP3    H132788   0.530   3.473   2.313 -0.5473 -0.1044  0.1282
 3791TIP3    H232789   0.428   3.445   2.204 -0.2606  1.2345 -0.4922
 3792TIP3   OH232790   3.803   2.868   1.175  0.2362  0.6950 -0.4573
 3792TIP3    H132791   3.881   2.922   1.161 -0.0481  0.7836 -1.7745
 3792TIP3    H232792   3.833   2.778   1.163  0.3777  0.6457  0.2157
 3793TIP3   OH232793   4.413   0.386  13.312 -0.2595 -0.1958  0.4987
 3793TIP3    H132794   4.338   0.402  13.255 -0.5834 -1.1245  0.6459
 3793TIP3    H232795   4.427   0.291  13.307 -0.5040 -0.3592  2.2196
 3794TIP3   OH232796   5.399   4.441   5.758 -0.4950  0.5334  0.8416
 3794TIP3    H132797   5.427   4.405   5.842 -0.2167 -3.0693 -0.5988
 3794TIP3    H232798   5.304   4.437   5.761 -0.4716 -0.4217  0.7210
 3795TIP3   OH232799   4.256   1.827  17.290  0.0580  0.5519  0.3842
 3795TIP3    H132800   4.331   1.865  17.336  0.8037 -0.3522 -0.0535
 3795TIP3    H232801   4.200   1.793  17.360 -0.0913  1.4841  0.7275
 3796TIP3   OH232802   6.359   0.804  13.171  0.2226 -0.2437 -0.5730
 3796TIP3    H132803   6.451   0.828  13.155  0.1092  1.1410  0.6869
 3796TIP3    H232804   6.309   0.866  13.118 -0.0052 -0.5968 -0.7738
 3797TIP3   OH232805   4.257   6.598   2.907 -0.2082 -0.3712  0.3570
 3797TIP3    H132806   4.184   6.538   2.923  0.3242 -1.7075 -1.7668
 3797TIP3    H232807   4.277   6.587   2.814 -0.1939  3.2963 -0.2254
 3798TIP3   OH232808   4.741   3.565   6.320 -0.0679  0.2332  0.1055
 3798TIP3    H132809   4.781   3.570   6.407 -0.9532  1.5343  0.4516
 3798TIP3    H232810   4.811   3.591   6.260  0.8123 -1.4799  0.2998
 3799TIP3   OH232811   2.205   5.405  11.956 -0.0292 -0.0401  0.2581
 3799TIP3    H132812   2.287   5.453  11.972 -0.4952  0.6818  0.5675
 3799TIP3    H232813   2.226   5.314  11.979  0.1166  0.4755  2.4390
 3800TIP3   OH232814   0.160   2.108  13.569 -0.2228 -0.0197 -0.2196
 3800TIP3    H132815   0.213   2.154  13.505 -0.3428  0.8899  0.3188
 3800TIP3    H232816   0.070   2.130  13.546 -0.2372  2.3602  1.6589
 3801TIP3   OH232817   2.021   6.556   2.253  0.3550 -0.0183 -0.0001
 3801TIP3    H132818   2.075   6.488   2.213  1.3157  0.5189  0.3434
 3801TIP3    H232819   2.085   6.618   2.291 -0.4825 -0.4070  2.2184
 3802TIP3   OH232820   6.359   1.545   2.921  0.4363 -0.4244 -0.2420
 3802TIP3    H132821   6.323   1.488   2.988  1.0056  0.7221  1.0978
 3802TIP3    H232822   6.284   1.595   2.889  0.2864 -0.4188  0.1176
 3803TIP3   OH232823   1.901   1.141   6.544 -0.1958 -0.3401  0.0806
 3803TIP3    H132824   1.916   1.148   6.450 -0.3472 -0.0211  0.0756
 3803TIP3    H232825   1.950   1.064   6.572  2.1638  1.1415  0.2291
 3804TIP3   OH232826   0.142   1.769   1.750 -0.0357 -0.2926  0.1979
 3804TIP3    H132827   0.179   1.847   1.791 -0.8348  0.2462 -0.0855
 3804TIP3    H232828   0.199   1.751   1.676 -0.2675  0.4781 -0.1803
 3805TIP3   OH232829   1.534   5.414  11.874 -0.0213 -0.2860 -0.4529
 3805TIP3    H132830   1.465   5.373  11.821 -1.0206 -0.1915  0.7401
 3805TIP3    H232831   1.613   5.365  11.851 -1.0283 -2.4108  0.3528
 3806TIP3   OH232832   2.679   5.188   1.064 -0.0847  0.3960  0.3473
 3806TIP3    H132833   2.739   5.261   1.078 -0.5844  0.9494 -0.3374
 3806TIP3    H232834   2.737   5.111   1.055  0.4391  0.6826  1.0903
 3807TIP3   OH232835   1.795   3.245  13.001  0.3312 -0.1396 -0.3167
 3807TIP3    H132836   1.850   3.168  13.014  2.2691  1.2950  0.6994
 3807TIP3    H232837   1.772   3.273  13.090 -0.4774  0.3587 -0.6761
 3808TIP3   OH232838   2.732   4.997  14.549 -0.0727  0.2876  0.2621
 3808TIP3    H132839   2.706   4.965  14.636  0.0377  1.8684  0.9122
 3808TIP3    H232840   2.803   5.058  14.567 -0.1872  0.7871 -0.9355
 3809TIP3   OH232841   3.832   3.534  16.816  0.1038  0.5327  0.0659
 3809TIP3    H132842   3.913   3.585  16.823  0.5823 -0.3210  1.0503
 3809TIP3    H232843   3.777   3.584  16.756  0.4000  2.4044  1.2719
 3810TIP3   OH232844   0.789   1.739  16.292  0.4513  0.2087 -0.0106
 3810TIP3    H132845   0.872   1.744  16.339  0.1585 -2.2714  0.9578
 3810TIP3    H232846   0.722   1.752  16.359  0.0424  0.9368 -0.5496
 3811TIP3   OH232847   2.418   0.940  11.609  0.0988  0.3823  0.5584
 3811TIP3    H132848   2.480   0.974  11.544 -0.9945  0.7493 -0.3149
 3811TIP3    H232849   2.334   0.978  11.584 -0.6864 -0.9481  1.0992
 3812TIP3   OH232850   4.025   1.298  10.967 -0.3399 -0.0595  0.3883
 3812TIP3    H132851   4.075   1.218  10.988  0.2627 -0.1838 -1.3962
 3812TIP3    H232852   3.992   1.283  10.879 -0.4629  1.5528  0.1377
 3813TIP3   OH232853   1.944   6.129   2.299  0.0611 -0.4374  0.3884
 3813TIP3    H132854   1.882   6.058   2.285 -0.9782  0.3416  0.8921
 3813TIP3    H232855   1.894   6.195   2.347  1.8826 -0.6795  2.7632
 3814TIP3   OH232856   5.869   6.707  16.085 -0.4493 -0.1544  0.1738
 3814TIP3    H132857   5.836   6.617  16.077 -0.2929 -0.0962 -1.5808
 3814TIP3    H232858   5.794   6.757  16.117 -0.9317 -0.6898 -0.0904
 3815TIP3   OH232859   4.647   1.084  14.561 -0.5234  0.0311 -0.6210
 3815TIP3    H132860   4.675   0.993  14.573  0.9844  0.6871  1.2645
 3815TIP3    H232861   4.576   1.096  14.624  0.2800  0.5513  0.2011
 3816TIP3   OH232862   5.859   6.485  11.263  0.4481  0.1348 -0.0542
 3816TIP3    H132863   5.940   6.535  11.275  0.2651  0.3048  0.4933
 3816TIP3    H232864   5.834   6.502  11.173  0.6957  0.5716 -0.0448
 3817TIP3   OH232865   5.647   2.615  11.159 -0.7245 -0.0098 -0.0369
 3817TIP3    H132866   5.734   2.645  11.185 -0.8498 -0.8888  1.5168
 3817TIP3    H232867   5.602   2.694  11.129  0.8135  0.3450 -1.5495
 3818TIP3   OH232868   5.727   0.672  12.746 -0.4824 -0.7524 -0.4324
 3818TIP3    H132869   5.669   0.709  12.812 -0.9535 -2.2370  0.0391
 3818TIP3    H232870   5.671   0.657  12.670  0.1891  1.5214 -1.4461
 3819TIP3   OH232871   0.615   4.096   5.029 -0.1525  0.2069 -0.1743
 3819TIP3    H132872   0.570   4.087   5.113 -0.6289 -3.0893 -0.6417
 3819TIP3    H232873   0.554   4.145   4.974 -0.8964  0.2875  0.7086
 3820TIP3   OH232874   3.369   5.201   3.246 -0.0340 -0.0609  0.0571
 3820TIP3    H132875   3.421   5.122   3.263  0.6374  0.2803 -0.3438
 3820TIP3    H232876   3.419   5.272   3.287 -1.1338  0.0389  1.2855
 3821TIP3   OH232877   1.502   5.268  15.978  0.4865  0.4622 -0.1926
 3821TIP3    H132878   1.464   5.329  15.915 -0.2235  0.3978  0.1667
 3821TIP3    H232879   1.493   5.183  15.936 -0.3039  0.3762  0.1296
 3822TIP3   OH232880   3.176   2.686  12.291 -0.9247 -0.2156  0.1122
 3822TIP3    H132881   3.091   2.667  12.250 -0.8104 -0.7946  0.1355
 3822TIP3    H232882   3.240   2.667  12.222 -0.8450  0.8840 -0.1278
 3823TIP3   OH232883   2.474   2.302  13.688 -0.2386  0.5286 -0.5811
 3823TIP3    H132884   2.554   2.259  13.716 -0.6499  0.3887  0.4165
 3823TIP3    H232885   2.412   2.231  13.672 -0.6724  0.6917  0.2995
 3824TIP3   OH232886   2.452   4.661   6.166  0.3630 -0.6982  0.2984
 3824TIP3    H132887   2.500   4.712   6.232 -2.8445 -0.2386  2.5505
 3824TIP3    H232888   2.423   4.726   6.102  1.5293 -0.7630 -0.3125
 3825TIP3   OH232889   1.021   4.864  11.393  0.3056 -0.5717  0.3725
 3825TIP3    H132890   0.997   4.945  11.439  0.9913  0.6823 -1.3623
 3825TIP3    H232891   0.979   4.872  11.308 -0.7330 -2.7161  0.6162
 3826TIP3   OH232892   2.754   3.463   1.233  0.5239  0.0209 -0.1989
 3826TIP3    H132893   2.705   3.455   1.151  1.4925  1.1455 -0.9235
 3826TIP3    H232894   2.835   3.508   1.209  1.2848 -0.5054  1.2157
 3827TIP3   OH232895   0.406   2.613   4.062 -0.3802  0.0860 -0.1128
 3827TIP3    H132896   0.332   2.670   4.039 -0.3552  0.8230  1.4693
 3827TIP3    H232897   0.365   2.533   4.095 -0.4533  0.0140 -0.3790
 3828TIP3   OH232898   0.670   0.686  12.670 -0.4031  0.0942 -0.4005
 3828TIP3    H132899   0.604   0.750  12.643 -1.2483  0.0301  1.4208
 3828TIP3    H232900   0.674   0.624  12.596  0.4232  2.1710 -2.1915
 3829TIP3   OH232901   1.645   1.855  11.296 -0.2246 -0.3369  0.4977
 3829TIP3    H132902   1.632   1.766  11.328  1.3819 -1.6188 -2.0410
 3829TIP3    H232903   1.739   1.872  11.309 -0.4109  0.8062  0.4815
 3830TIP3   OH232904   5.910   0.936   1.135  0.2972  0.0066 -0.7677
 3830TIP3    H132905   5.902   0.914   1.043  1.0225  0.1611 -0.8745
 3830TIP3    H232906   5.863   1.019   1.144 -1.0387 -0.7294 -0.6896
 3831TIP3   OH232907   4.712   2.497  15.516  0.2487  0.5579  0.3815
 3831TIP3    H132908   4.787   2.438  15.508  0.0505  0.2962  0.4310
 3831TIP3    H232909   4.748   2.578  15.552  0.4679  0.3485  0.6367
 3832TIP3   OH232910   2.963   0.895  12.470 -0.1743  0.1735  0.1930
 3832TIP3    H132911   2.911   0.893  12.389  0.5546 -3.5306 -0.3253
 3832TIP3    H232912   3.012   0.978  12.464  0.5130 -0.3264 -3.6515
 3833TIP3   OH232913   1.413   3.942  16.316  0.6787  0.6357 -0.1418
 3833TIP3    H132914   1.334   3.919  16.365  1.1285 -1.7775 -0.4631
 3833TIP3    H232915   1.436   3.864  16.267  4.7182  0.2533  1.8610
 3834TIP3   OH232916   5.570   2.204  11.662 -0.5722  0.4209 -0.1388
 3834TIP3    H132917   5.582   2.120  11.708  2.6534  2.2697  2.8803
 3834TIP3    H232918   5.495   2.244  11.706 -0.0488  0.4458  0.7731
 3835TIP3   OH232919   6.581   5.299   0.310 -0.1298 -0.6898 -0.3936
 3835TIP3    H132920   6.663   5.265   0.272  1.0909  0.8787  0.6887
 3835TIP3    H232921   6.541   5.349   0.239  0.8219  0.0645 -0.4273
 3836TIP3   OH232922   2.494   5.555   2.844 -0.5177  0.4226 -0.2290
 3836TIP3    H132923   2.571   5.601   2.808 -0.5388  1.2558  0.7546
 3836TIP3    H232924   2.420   5.611   2.820 -0.4067  1.7673  2.2434
 3837TIP3   OH232925   0.614   3.055   3.872  0.2056  0.1103  0.4448
 3837TIP3    H132926   0.632   2.961   3.876  1.6242  0.3777  0.7914
 3837TIP3    H232927   0.551   3.070   3.942 -0.3327 -0.6422  0.1337
 3838TIP3   OH232928   0.361   1.562   3.061 -0.1582  0.3746  0.0829
 3838TIP3    H132929   0.312   1.582   3.141  0.2229 -1.2736  0.7668
 3838TIP3    H232930   0.449   1.597   3.078  0.6092 -1.9805  1.4170
 3839TIP3   OH232931   4.791   0.140  12.439 -0.0668  0.0910 -0.2621
 3839TIP3    H132932   4.875   0.173  12.407 -0.0796  0.7889  0.3920
 3839TIP3    H232933   4.798   0.045  12.431  0.2071  0.2061 -1.6095
 3840TIP3   OH232934   5.150   0.759   2.190  0.3373  0.5329  0.3020
 3840TIP3    H132935   5.122   0.826   2.252  2.7559  1.1165  0.8501
 3840TIP3    H232936   5.161   0.806   2.107  0.0425  0.3778  0.1738
 3841TIP3   OH232937   1.711   0.994   0.229 -0.3474 -0.1686 -0.2875
 3841TIP3    H132938   1.636   1.010   0.171  0.7012 -2.1438 -2.3653
 3841TIP3    H232939   1.761   1.076   0.226 -1.7910  0.7704  0.2030
 3842TIP3   OH232940   5.169   1.210  11.071 -0.3211 -0.1776  0.3814
 3842TIP3    H132941   5.161   1.198  10.976  2.0345  2.4187 -0.2700
 3842TIP3    H232942   5.218   1.134  11.100 -0.4409 -0.6480 -0.5838
 3843TIP3   OH232943   5.386   1.781  16.767 -0.2798  0.2545 -0.7910
 3843TIP3    H132944   5.438   1.713  16.724 -1.3871 -2.3866  1.6906
 3843TIP3    H232945   5.336   1.821  16.697 -0.9465 -2.8094 -2.2365
 3844TIP3   OH232946   5.342   5.259  17.147 -0.0230 -0.2026  0.1932
 3844TIP3    H132947   5.349   5.311  17.067 -0.8079  0.8241  0.7728
 3844TIP3    H232948   5.316   5.321  17.214 -1.9199 -1.4870  0.7325
 3845TIP3   OH232949   5.052   1.680   5.391 -0.3753 -0.3246  0.6677
 3845TIP3    H132950   5.098   1.623   5.329  1.0853  0.6998  0.7746
 3845TIP3    H232951   5.091   1.766   5.378 -2.7591  0.7895  0.2574
 3846TIP3   OH232952   4.067   3.278  17.209 -0.4331 -0.4530 -0.0893
 3846TIP3    H132953   4.032   3.206  17.262 -0.1982 -0.6616 -0.2155
 3846TIP3    H232954   4.081   3.349  17.271 -0.5218 -0.5671  0.0625
 3847TIP3   OH232955   4.432   4.094   1.338 -0.8450  0.2812 -0.2642
 3847TIP3    H132956   4.494   4.022   1.323 -0.5399  0.3167  0.7432
 3847TIP3    H232957   4.370   4.087   1.266 -0.2789 -0.4156 -0.7032
 3848TIP3   OH232958   6.507   6.001  13.698 -0.5598  0.1687  0.5928
 3848TIP3    H132959   6.548   6.033  13.778  0.1449 -1.9253  1.1505
 3848TIP3    H232960   6.415   5.991  13.721 -0.6832  1.1764  0.5797
 3849TIP3   OH232961   4.077   3.729   5.515  0.6051  0.2294  0.3828
 3849TIP3    H132962   4.080   3.644   5.472  0.8587  1.0701 -1.3603
 3849TIP3    H232963   4.137   3.784   5.465 -0.5315  1.7922  0.6258
 3850TIP3   OH232964   5.995   2.459  14.713  0.4925 -0.1664 -0.0760
 3850TIP3    H132965   6.017   2.486  14.802 -0.0233 -2.4044  0.8233
 3850TIP3    H232966   5.904   2.487  14.701  0.1753 -0.8577  0.5855
 3851TIP3   OH232967   1.637   3.662  13.207  0.3427  0.1039 -0.0750
 3851TIP3    H132968   1.695   3.735  13.184  2.7198 -1.5841  0.1953
 3851TIP3    H232969   1.580   3.698  13.275 -1.2551  2.7611 -2.5399
 3852TIP3   OH232970   4.944   4.928  12.300 -0.2722  0.1982  0.0594
 3852TIP3    H132971   4.878   4.864  12.325 -0.2375  0.1843  0.1152
 3852TIP3    H232972   4.939   4.931  12.205 -0.4497  0.2981  0.0698
 3853TIP3   OH232973   5.860   0.827   1.890  0.3107 -0.2708  0.5078
 3853TIP3    H132974   5.863   0.808   1.796  1.2060 -1.5169  0.7584
 3853TIP3    H232975   5.862   0.741   1.932 -0.2304  0.2679  1.6733
 3854TIP3   OH232976   5.590   4.523   1.547  0.2063  0.3424  0.3566
 3854TIP3    H132977   5.622   4.590   1.487  0.5986  0.1590  0.3604
 3854TIP3    H232978   5.628   4.546   1.632 -0.4190  0.6530  0.5586
 3855TIP3   OH232979   1.198   4.735  13.396 -0.0031  0.1705  0.2358
 3855TIP3    H132980   1.202   4.823  13.431  0.5724 -0.5899  2.2270
 3855TIP3    H232981   1.273   4.729  13.337 -0.1397  1.0415 -0.0384
 3856TIP3   OH232982   5.261   2.038  13.231  0.6204 -0.3799 -0.4690
 3856TIP3    H132983   5.231   2.012  13.144 -0.3552 -0.7759 -0.0203
 3856TIP3    H232984   5.336   2.096  13.214  1.2983 -1.5281 -1.5418
 3857TIP3   OH232985   5.341   6.588  17.420 -0.2710  0.3376 -0.3542
 3857TIP3    H132986   5.308   6.658  17.364  1.6057  1.3620 -0.2652
 3857TIP3    H232987   5.306   6.608  17.506 -0.1017  0.9406 -0.4163
 3858TIP3   OH232988   1.515   2.497   5.854  0.4072  0.7207  0.0098
 3858TIP3    H132989   1.522   2.409   5.817 -0.8465  1.2714 -1.6657
 3858TIP3    H232990   1.603   2.533   5.848  0.9894 -0.4905  0.9643
 3859TIP3   OH232991   0.294   5.636  15.500  0.2379  0.0072  0.5114
 3859TIP3    H132992   0.356   5.573  15.464  0.1483  0.1107  0.1658
 3859TIP3    H232993   0.345   5.686  15.564  0.0600 -1.0565  1.5154
 3860TIP3   OH232994   6.209   1.653   4.530  0.2277 -0.5072  0.0944
 3860TIP3    H132995   6.220   1.647   4.435  1.7293 -1.2916  0.2736
 3860TIP3    H232996   6.251   1.573   4.563  0.7909  0.3280  1.4703
 3861TIP3   OH232997   1.683   3.656   0.965 -0.1972 -0.2614  0.5627
 3861TIP3    H132998   1.747   3.650   0.893 -0.8904 -1.2606  0.0011
 3861TIP3    H232999   1.675   3.750   0.982  1.6115 -0.1176  0.8426
 3862TIP3   OH233000   1.555   4.712  15.540  0.3154 -0.1488 -0.1267
 3862TIP3    H133001   1.584   4.791  15.585 -0.0717 -0.5085  0.7603
 3862TIP3    H233002   1.630   4.685  15.488  0.8284  0.1668  0.4459
 3863TIP3   OH233003   4.846   3.172   5.353  0.2495  0.8287  0.2215
 3863TIP3    H133004   4.771   3.189   5.296 -1.2454  0.4822  1.9628
 3863TIP3    H233005   4.879   3.259   5.375  0.0062  1.0087 -0.1172
 3864TIP3   OH233006   4.413   3.744  12.400 -0.3281  0.3999 -0.1093
 3864TIP3    H133007   4.384   3.668  12.450 -0.5493  1.1528  0.9511
 3864TIP3    H233008   4.507   3.732  12.390 -0.0713  0.7506  1.4881
 3865TIP3   OH233009   2.374   1.765   2.383  0.2310  0.3599 -0.2871
 3865TIP3    H133010   2.390   1.845   2.332 -0.8197  1.4264  0.9886
 3865TIP3    H233011   2.364   1.796   2.473 -0.8063 -1.1569  0.1485
 3866TIP3   OH233012   5.546   1.935   1.636 -0.5233  0.2892  0.1791
 3866TIP3    H133013   5.462   1.927   1.681 -1.1985  2.5079 -0.5868
 3866TIP3    H233014   5.580   2.020   1.664  0.2603  0.5585 -1.4659
 3867TIP3   OH233015   5.147   1.636   3.801 -0.0455 -0.3314  0.5101
 3867TIP3    H133016   5.167   1.573   3.870  0.3102  0.2520  0.9455
 3867TIP3    H233017   5.054   1.624   3.784  0.2082 -1.6341 -0.0804
 3868TIP3   OH233018   2.895   5.967  11.729  0.7332 -0.4477 -0.1476
 3868TIP3    H133019   2.848   6.049  11.744  1.0561 -0.3419  0.3148
 3868TIP3    H233020   2.837   5.916  11.673 -0.6601 -0.9953  1.7161
 3869TIP3   OH233021   6.121   0.843  14.493 -0.2124  0.2857 -0.1582
 3869TIP3    H133022   6.071   0.822  14.572  0.0613  0.3196  0.0255
 3869TIP3    H233023   6.055   0.860  14.427 -0.4591  1.4438  0.3668
 3870TIP3   OH233024   1.709   0.569  12.272 -0.3864  0.2056  0.2069
 3870TIP3    H133025   1.663   0.593  12.352  0.5029 -0.4188  0.9355
 3870TIP3    H233026   1.644   0.523  12.220 -0.5715 -0.7711  1.2629
 3871TIP3   OH233027   3.068   4.890  11.127 -0.0795 -0.3016 -0.0337
 3871TIP3    H133028   3.073   4.810  11.075  1.2223  0.1692 -0.6884
 3871TIP3    H233029   3.152   4.934  11.111  0.3387 -0.0876  2.3800
 3872TIP3   OH233030   3.275   4.189  11.901 -0.2131  0.2190  0.1655
 3872TIP3    H133031   3.223   4.239  11.838 -0.6369 -1.4876 -0.8998
 3872TIP3    H233032   3.365   4.200  11.872 -0.4860 -1.4914 -1.5262
 3873TIP3   OH233033   0.202   5.132   4.368 -0.5605  0.2094  0.2739
 3873TIP3    H133034   0.223   5.213   4.321  1.5746 -0.3520  0.1444
 3873TIP3    H233035   0.268   5.127   4.438 -0.9835 -1.1432  0.6101
 3874TIP3   OH233036   6.629   4.058   1.876 -0.4222 -0.2604  0.3996
 3874TIP3    H133037   6.621   4.089   1.966 -1.3097 -0.0109  0.2432
 3874TIP3    H233038   6.541   4.029   1.852 -0.5123  0.9187 -0.8297
 3875TIP3   OH233039   3.595   4.280   5.690 -0.2261 -0.1700  0.5383
 3875TIP3    H133040   3.650   4.253   5.763 -1.4217 -0.9889  1.1765
 3875TIP3    H233041   3.510   4.299   5.730 -0.4154  1.1191 -0.4013
 3876TIP3   OH233042   4.228   2.818   5.415 -0.2499  0.1626 -0.0968
 3876TIP3    H133043   4.311   2.846   5.454  0.2580 -0.7006 -0.5025
 3876TIP3    H233044   4.217   2.728   5.447 -0.0833 -0.3760 -1.4820
 3877TIP3   OH233045   3.833   5.489   1.993 -0.4059 -0.4804  0.1510
 3877TIP3    H133046   3.899   5.482   1.924 -1.4245  0.5863 -0.9914
 3877TIP3    H233047   3.751   5.465   1.951 -1.1144  0.5762  0.8668
 3878TIP3   OH233048   1.990   4.402  12.876 -0.8005 -0.0602  0.3204
 3878TIP3    H133049   1.962   4.369  12.791  0.7167  1.2978 -0.7801
 3878TIP3    H233050   2.059   4.341  12.904 -0.2213  0.3413 -0.1931
 3879TIP3   OH233051   1.773   0.668  14.215  0.3871 -0.9313  0.0625
 3879TIP3    H133052   1.776   0.632  14.303  0.9497 -1.5634 -0.1999
 3879TIP3    H233053   1.835   0.740  14.215  0.3856 -0.9308  0.1829
 3880TIP3   OH233054   4.296   0.183   1.275 -0.2184 -0.4263  0.2517
 3880TIP3    H133055   4.366   0.244   1.299  0.6107 -2.8151  5.1217
 3880TIP3    H233056   4.215   0.227   1.301  0.0260  0.0304  0.2392
 3881TIP3   OH233057   4.414   4.869   5.359  0.3192 -0.5187  0.1734
 3881TIP3    H133058   4.363   4.949   5.371 -1.9797 -1.9064  0.3484
 3881TIP3    H233059   4.468   4.862   5.438 -0.5481  0.1277  0.8399
 3882TIP3   OH233060   2.572   0.157  12.563  0.3321  0.7386 -0.1459
 3882TIP3    H133061   2.661   0.192  12.568  0.2517  0.7817  1.3693
 3882TIP3    H233062   2.568   0.115  12.477  2.0135  0.2104  0.0013
 3883TIP3   OH233063   1.705   1.799  16.676 -0.1363  0.0223 -0.4084
 3883TIP3    H133064   1.760   1.735  16.721 -1.6143 -0.4187  0.8942
 3883TIP3    H233065   1.649   1.835  16.745 -0.5429  1.4583 -1.4309
 3884TIP3   OH233066   1.784   1.949  17.154  0.0072  0.0858 -0.1360
 3884TIP3    H133067   1.816   1.959  17.244  0.4180 -0.7562 -0.1734
 3884TIP3    H233068   1.742   2.032  17.133  2.4779  1.3929 -0.2085
 3885TIP3   OH233069   5.634   5.320  13.741 -0.5728 -0.3569  0.7331
 3885TIP3    H133070   5.569   5.337  13.673 -0.4645  1.0796  0.9589
 3885TIP3    H233071   5.615   5.384  13.809 -0.3469 -1.4346  1.8341
 3886TIP3   OH233072   1.513   5.945  11.513  0.1683 -0.2064 -0.1886
 3886TIP3    H133073   1.474   5.971  11.597  1.0400  1.3006 -0.2147
 3886TIP3    H233074   1.605   5.925  11.534  0.8366  1.7673 -0.9952
 3887TIP3   OH233075   0.278   3.906   6.133  0.2136 -0.5056 -0.0691
 3887TIP3    H133076   0.284   3.924   6.039  1.3631 -0.6512 -0.0436
 3887TIP3    H233077   0.200   3.852   6.142 -2.7758  3.3777 -0.2894
 3888TIP3   OH233078   1.039   2.351  15.204  0.4793 -0.0543 -0.2523
 3888TIP3    H133079   1.134   2.345  15.210  0.4868  0.0843 -0.2428
 3888TIP3    H233080   1.009   2.260  15.214  0.5581  0.0205  0.7638
 3889TIP3   OH233081   3.075   4.910  11.924  0.4692  0.0815  0.5357
 3889TIP3    H133082   3.106   4.837  11.870 -2.6901 -1.2991  0.3432
 3889TIP3    H233083   3.114   4.988  11.886  1.1735 -1.1947 -1.4892
 3890TIP3   OH233084   1.563   0.354   4.516  0.5670  0.0321  0.8056
 3890TIP3    H133085   1.513   0.435   4.509  0.5327  0.0257  0.9903
 3890TIP3    H233086   1.654   0.382   4.506  0.4920 -0.0367 -0.2095
 3891TIP3   OH233087   3.187   1.415   2.281  0.4068 -0.5677 -0.2144
 3891TIP3    H133088   3.223   1.502   2.267 -0.2571  0.0280  1.5343
 3891TIP3    H233089   3.245   1.375   2.346  0.6011 -1.3953 -0.8641
 3892TIP3   OH233090   0.924   0.605   5.870  0.2756 -0.8910 -0.0829
 3892TIP3    H133091   0.975   0.566   5.799  0.0952 -3.3536  1.0349
 3892TIP3    H233092   0.871   0.673   5.827  1.6139 -0.9216 -1.9122
 3893TIP3   OH233093   3.398   3.981  10.227 -0.3274 -0.1957 -0.2110
 3893TIP3    H133094   3.465   4.047  10.240  0.6428 -1.2150  0.1259
 3893TIP3    H233095   3.315   4.027  10.242  0.2205  1.2950 -1.5291
 3894TIP3   OH233096   0.788   0.954  10.372  0.1003  0.0419  0.2784
 3894TIP3    H133097   0.727   0.935  10.443 -0.7181 -0.8628 -0.6419
 3894TIP3    H233098   0.832   0.871  10.355 -1.2905 -0.3509 -1.7160
 3895TIP3   OH233099   0.575   5.076   4.353  0.1341  0.0470 -0.1219
 3895TIP3    H133100   0.623   5.148   4.393 -1.5370  0.1661  1.8136
 3895TIP3    H233101   0.483   5.099   4.364 -0.4342 -2.0678 -0.0218
 3896TIP3   OH233102   6.217   2.286   3.398  0.1264  1.0405 -0.0575
 3896TIP3    H133103   6.175   2.372   3.392  1.2491  1.4835 -2.7019
 3896TIP3    H233104   6.176   2.234   3.329 -0.7139 -0.7064  1.6657
 3897TIP3   OH233105   0.292   2.529   2.269  0.4914 -0.0027  0.4757
 3897TIP3    H133106   0.215   2.509   2.217  1.7480  0.5520 -1.7128
 3897TIP3    H233107   0.296   2.625   2.270  2.0251 -0.0113 -0.8836
 3898TIP3   OH233108   0.976   3.343   6.170 -0.6742 -0.2918 -0.4535
 3898TIP3    H133109   1.050   3.288   6.198 -1.4224 -0.6410  0.9537
 3898TIP3    H233110   0.998   3.431   6.201  0.1346  0.0795 -1.9717
 3899TIP3   OH233111   2.929   3.464   3.093  0.0166 -0.0746 -0.2077
 3899TIP3    H133112   2.872   3.539   3.074 -0.2684 -0.0008  0.8810
 3899TIP3    H233113   3.004   3.503   3.138 -0.7216 -0.5570  1.5243
 3900TIP3   OH233114   2.870   6.039   0.722  0.0428 -0.1258 -0.1927
 3900TIP3    H133115   2.902   6.061   0.809 -1.9367 -0.3809  0.6639
 3900TIP3    H233116   2.869   5.943   0.721 -0.0366 -0.1224 -0.4532
 3901TIP3   OH233117   4.296   3.064   3.007  0.0043  0.2483 -0.0906
 3901TIP3    H133118   4.306   3.032   2.917 -0.9707 -0.4630  0.0328
 3901TIP3    H233119   4.220   3.017   3.041  0.4813  0.3522  1.1839
 3902TIP3   OH233120   4.373   4.299   0.228 -0.1229  0.5059  0.1078
 3902TIP3    H133121   4.412   4.295   0.140  0.7186  0.2882  0.4768
 3902TIP3    H233122   4.351   4.208   0.248  0.3772  0.4512  0.4186
 3903TIP3   OH233123   2.658   0.633  15.701  0.3427 -0.0655 -0.0463
 3903TIP3    H133124   2.640   0.608  15.610 -1.3164  1.6518 -0.2552
 3903TIP3    H233125   2.648   0.552  15.750 -0.4939 -0.6918 -1.1958
 3904TIP3   OH233126   6.135   6.366  15.114  0.1592  0.1880 -0.5724
 3904TIP3    H133127   6.187   6.295  15.151 -0.5599  0.1566  0.4255
 3904TIP3    H233128   6.062   6.323  15.071 -0.3050  0.2993  0.0759
 3905TIP3   OH233129   4.412   4.019   0.790  0.1919  0.3762 -0.1658
 3905TIP3    H133130   4.478   3.949   0.797  0.8442  0.8795 -1.0720
 3905TIP3    H233131   4.446   4.089   0.845 -1.1138 -0.4491  1.8284
 3906TIP3   OH233132   1.054   5.483   0.841 -0.4648  0.1017 -0.0167
 3906TIP3    H133133   1.052   5.456   0.933  0.1875  1.9518  0.5814
 3906TIP3    H233134   1.133   5.441   0.806 -0.5134 -0.3173  0.3658
 3907TIP3   OH233135   1.983   0.832  12.377  0.1064 -0.3798 -0.1445
 3907TIP3    H133136   1.996   0.901  12.312  3.4763 -0.8584 -0.1132
 3907TIP3    H233137   1.962   0.754  12.325 -1.4406  0.1023 -0.3081
 3908TIP3   OH233138   0.355   6.213  16.955 -0.5638  0.7401  0.5017
 3908TIP3    H133139   0.385   6.174  16.873 -2.0602  2.3269 -0.8654
 3908TIP3    H233140   0.332   6.303  16.932 -1.8850  0.9667  2.4834
 3909TIP3   OH233141   6.597   1.039  12.224  0.5448 -0.1883 -1.1004
 3909TIP3    H133142   6.511   1.026  12.264  0.4581 -1.7221 -1.6903
 3909TIP3    H233143   6.578   1.074  12.137  0.5704  0.3513 -0.8896
 3910TIP3   OH233144   2.746   3.002   3.549  0.4014 -0.1821 -0.0829
 3910TIP3    H133145   2.710   2.949   3.620  0.6457  1.3709  1.2462
 3910TIP3    H233146   2.674   3.011   3.487 -0.1863 -0.5543  0.5351
 3911TIP3   OH233147   4.246   2.690  15.543  0.2043  0.2118 -0.3738
 3911TIP3    H133148   4.334   2.703  15.509 -0.0411  0.1404 -1.0541
 3911TIP3    H233149   4.194   2.663  15.467  0.0240 -1.7396  0.3666
 3912TIP3   OH233150   6.082   4.193   3.388 -0.8034 -0.6922 -0.2787
 3912TIP3    H133151   6.006   4.220   3.338  0.7353  0.9855 -1.8403
 3912TIP3    H233152   6.120   4.121   3.338  0.5605  0.7827 -1.4731
 3913TIP3   OH233153   2.438   6.612   1.943  0.1633  1.1303 -0.0392
 3913TIP3    H133154   2.394   6.696   1.936 -2.1215  0.0666  0.5241
 3913TIP3    H233155   2.369   6.551   1.969  1.7196 -0.9423 -0.5105
 3914TIP3   OH233156   5.215   3.248  14.063  0.1085  0.4480  0.8591
 3914TIP3    H133157   5.230   3.188  13.990  1.1548 -0.1374  1.5478
 3914TIP3    H233158   5.293   3.241  14.118 -0.7010  0.8115  2.1042
 3915TIP3   OH233159   1.546   6.377  11.943  0.9151 -0.0409 -0.1144
 3915TIP3    H133160   1.588   6.456  11.976  0.8379  0.4757 -1.2276
 3915TIP3    H233161   1.460   6.406  11.913  0.5608 -0.7038  0.2266
 3916TIP3   OH233162   5.374   4.456   2.297 -0.4095 -0.1295  0.3222
 3916TIP3    H133163   5.436   4.454   2.370 -1.5227 -0.6120  1.2809
 3916TIP3    H233164   5.334   4.543   2.301  0.5718  0.3899 -0.6397
 3917TIP3   OH233165   2.271   4.473  12.451  0.2997  0.8543  0.3802
 3917TIP3    H133166   2.183   4.494  12.418  0.9389 -0.3698 -2.3903
 3917TIP3    H233167   2.303   4.555  12.488 -0.9302  2.1359 -1.2479
 3918TIP3   OH233168   6.710   2.583   3.683  0.1715  0.7200 -0.7326
 3918TIP3    H133169   6.726   2.613   3.593 -0.0329 -0.2994 -1.1212
 3918TIP3    H233170   6.649   2.647   3.719 -0.7246  0.4733 -1.7397
 3919TIP3   OH233171   2.957   2.165   3.607  0.4179 -0.6492 -0.0285
 3919TIP3    H133172   3.018   2.092   3.591  0.5093 -0.5263 -0.2502
 3919TIP3    H233173   3.000   2.218   3.673  0.9299 -0.1291 -0.7624
 3920TIP3   OH233174   6.584   6.684  10.838  0.2033 -1.0382 -0.9180
 3920TIP3    H133175   6.496   6.648  10.829 -0.0686 -0.3577 -1.0603
 3920TIP3    H233176   6.595   6.698  10.932 -0.7032  0.9242 -1.0541
 3921TIP3   OH233177   1.652   5.610   2.048  0.2058 -0.3238 -0.3991
 3921TIP3    H133178   1.728   5.580   1.998  0.1383  0.9224 -1.2722
 3921TIP3    H233179   1.686   5.678   2.106  0.2348 -1.5688  1.1360
 3922TIP3   OH233180   3.546   0.881   2.963 -0.1871 -0.7497 -0.2037
 3922TIP3    H133181   3.562   0.946   2.895  1.3281 -0.0115  0.8167
 3922TIP3    H233182   3.480   0.920   3.020  0.0445 -0.4986 -0.1085
 3923TIP3   OH233183   4.678   2.522   3.185  0.4712  0.2094  0.3285
 3923TIP3    H133184   4.704   2.550   3.273 -2.6672  1.3398  1.0373
 3923TIP3    H233185   4.668   2.603   3.136  2.0692 -0.4119 -1.1094
 3924TIP3   OH233186   5.795   1.903   2.802  0.1297 -0.3136  0.1286
 3924TIP3    H133187   5.800   1.873   2.893  1.4923 -0.0881  0.1515
 3924TIP3    H233188   5.859   1.973   2.797 -2.1239  1.8585 -0.2245
 3925TIP3   OH233189   3.831   5.171   3.760  0.7888 -0.5310 -0.2305
 3925TIP3    H133190   3.774   5.247   3.745  1.9275  0.5875  0.8694
 3925TIP3    H233191   3.849   5.138   3.672  0.3262  0.5205 -0.7426
 3926TIP3   OH233192   5.629   0.699   0.448  0.4247 -0.0690 -0.3555
 3926TIP3    H133193   5.680   0.619   0.443  0.3345 -0.1247 -0.3987
 3926TIP3    H233194   5.661   0.753   0.376  0.8098  0.1269 -0.0431
 3927TIP3   OH233195   1.297   2.830  17.201  0.4641 -0.2579  0.2354
 3927TIP3    H133196   1.382   2.873  17.194  0.1926  0.0760 -1.9418
 3927TIP3    H233197   1.249   2.860  17.123 -1.1010 -1.6010  0.6202
 3928TIP3   OH233198   4.554   5.516   4.324  0.3590 -0.3824 -0.3084
 3928TIP3    H133199   4.520   5.431   4.350  0.0105 -0.0523  0.3491
 3928TIP3    H233200   4.477   5.565   4.295  0.4481 -0.0370  0.0322
 3929TIP3   OH233201   0.711   5.261   6.692 -0.6260  0.0361  0.2359
 3929TIP3    H133202   0.646   5.193   6.675 -0.3859  0.3192 -2.1055
 3929TIP3    H233203   0.792   5.226   6.656  0.5982 -0.2985  3.0974
 3930TIP3   OH233204   4.616   1.104   2.454 -0.2706 -0.2049  0.0574
 3930TIP3    H133205   4.604   1.026   2.508 -0.4792 -1.3398 -1.5952
 3930TIP3    H233206   4.674   1.077   2.383 -1.6515  0.6497 -1.4649
 3931TIP3   OH233207   5.286   3.834   3.466  0.0940 -0.2890 -0.5834
 3931TIP3    H133208   5.252   3.826   3.555 -0.9583 -2.5097 -1.1101
 3931TIP3    H233209   5.346   3.760   3.456  0.6365  0.2627 -1.5516
 3932TIP3   OH233210   1.744   3.998  14.095 -0.3758  0.4395  0.4093
 3932TIP3    H133211   1.702   3.955  14.020  0.1119  1.5099 -0.5108
 3932TIP3    H233212   1.807   4.058  14.056 -0.8593  1.8149  1.6385
 3933TIP3   OH233213   4.728   4.372  14.865  0.5442 -0.3987 -0.5142
 3933TIP3    H133214   4.661   4.439  14.852  1.9328  1.6957  2.3315
 3933TIP3    H233215   4.679   4.290  14.864 -1.6925  0.8572 -0.8335
 3934TIP3   OH233216   1.830   5.800   1.300  0.3409 -0.2211 -0.3702
 3934TIP3    H133217   1.835   5.846   1.216 -0.0009  0.5510  0.0232
 3934TIP3    H233218   1.736   5.785   1.314  0.4740 -1.5074 -0.7342
 3935TIP3   OH233219   2.134   2.471  14.884 -0.2020 -0.3141 -0.1775
 3935TIP3    H133220   2.107   2.381  14.903 -1.3703 -0.1340 -0.8674
 3935TIP3    H233221   2.135   2.476  14.788 -0.3952  0.4656 -0.1508
 3936TIP3   OH233222   2.125   0.208   1.164  0.4978  0.6613 -0.4626
 3936TIP3    H133223   2.166   0.167   1.241  1.6003  0.4789 -1.1281
 3936TIP3    H233224   2.198   0.242   1.113 -0.1561  0.1589 -1.7917
 3937TIP3   OH233225   4.657   3.723  11.360 -0.2805  0.1702  0.2464
 3937TIP3    H133226   4.562   3.716  11.352 -0.3512  0.9095  0.3404
 3937TIP3    H233227   4.679   3.804  11.313 -0.1240  1.8591  2.9905
 3938TIP3   OH233228   1.299   0.091   0.755  0.1148 -0.1632 -0.1223
 3938TIP3    H133229   1.326   0.054   0.839 -0.0608 -4.4562 -1.6978
 3938TIP3    H233230   1.373   0.144   0.726  1.0239 -0.3462  1.7658
 3939TIP3   OH233231   6.694   2.963  12.375  0.3066 -0.6913 -0.0275
 3939TIP3    H133232   6.662   2.987  12.288  1.2180 -0.1018 -0.2208
 3939TIP3    H233233   6.657   3.028  12.434  1.3462  0.1807 -0.2955
 3940TIP3   OH233234   0.737   1.240  13.039 -0.1423  0.0797  0.1796
 3940TIP3    H133235   0.682   1.182  12.986  0.5248 -0.4850  0.1033
 3940TIP3    H233236   0.813   1.187  13.062  0.4775  0.9246  0.1131
 3941TIP3   OH233237   6.723   6.125   1.486  0.1419  0.0258 -0.2076
 3941TIP3    H133238   6.662   6.051   1.489  0.9921 -0.7062 -0.6654
 3941TIP3    H233239   6.666   6.202   1.481 -0.7569 -0.5849  0.2549
 3942TIP3   OH233240   2.673   0.768  12.920 -0.2343  0.7267  0.8338
 3942TIP3    H133241   2.702   0.809  12.839  1.1618 -0.4828  0.6671
 3942TIP3    H233242   2.672   0.839  12.984 -0.5992  1.5440 -0.0611
 3943TIP3   OH233243   1.383   4.531   3.042 -0.7173 -0.2911  0.0872
 3943TIP3    H133244   1.468   4.528   3.086  0.1267  1.1892 -1.3158
 3943TIP3    H233245   1.378   4.450   2.992  0.0405 -0.2342 -0.0845
 3944TIP3   OH233246   6.709   2.014   0.082 -0.3106  0.1624 -0.4148
 3944TIP3    H133247   6.673   2.099   0.057 -0.1673  0.2012 -0.4911
 3944TIP3    H233248   6.769   1.991   0.011 -0.0808  0.1633 -0.2226
 3945TIP3   OH233249   3.966   0.303   2.607  0.3347 -0.5445 -0.3280
 3945TIP3    H133250   3.946   0.241   2.537 -0.7319  0.0432 -0.5630
 3945TIP3    H233251   3.918   0.382   2.584  1.5770  0.3399  0.0427
 3946TIP3   OH233252   3.174   2.957   1.614  0.2465  0.0046  0.3259
 3946TIP3    H133253   3.100   2.903   1.585 -0.3421  0.0523  1.6708
 3946TIP3    H233254   3.144   3.047   1.605  0.0093  0.0178  1.1693
 3947TIP3   OH233255   2.510   1.501   0.795 -0.0598  0.2584 -0.5202
 3947TIP3    H133256   2.444   1.463   0.737  0.0953 -0.8471 -0.0056
 3947TIP3    H233257   2.468   1.501   0.881 -0.2165  1.6975 -0.5739
 3948TIP3   OH233258   4.810   6.015  17.216 -0.0362 -0.6185  0.2508
 3948TIP3    H133259   4.749   5.942  17.230  0.4516 -0.8210  1.3919
 3948TIP3    H233260   4.848   6.032  17.302  0.1430  0.7468 -0.0816
 3949TIP3   OH233261   6.075   4.918  14.028  0.4611 -0.2154 -0.5215
 3949TIP3    H133262   6.110   4.896  13.943 -0.4035 -0.8380 -0.7332
 3949TIP3    H233263   6.131   4.989  14.060 -0.5263  1.6008 -2.5640
 3950TIP3   OH233264   1.112   4.904  14.611 -0.0239  0.2490 -0.2798
 3950TIP3    H133265   1.193   4.854  14.599  2.0282  3.4242 -0.7095
 3950TIP3    H233266   1.099   4.949  14.528 -1.7693  0.5276  0.1037
 3951TIP3   OH233267   0.815   1.450   0.769 -0.1805  0.1414 -0.4137
 3951TIP3    H133268   0.851   1.423   0.684  0.4044 -0.8160  0.1290
 3951TIP3    H233269   0.866   1.402   0.834  0.4557  2.0629  0.5858
 3952TIP3   OH233270   5.183   0.755   3.254 -0.2075 -0.1332  0.1729
 3952TIP3    H133271   5.110   0.692   3.258 -1.0243  0.7840  0.2162
 3952TIP3    H233272   5.250   0.717   3.310 -0.6258 -1.0272  0.0992
 3953TIP3   OH233273   1.654   2.218  13.395  0.6549 -1.0351 -0.3858
 3953TIP3    H133274   1.691   2.142  13.350  0.1419 -1.7884  0.4352
 3953TIP3    H233275   1.563   2.194  13.410  0.3870 -0.0927 -0.4444
 3954TIP3   OH233276   2.496   3.067   1.235 -0.2681 -0.5258  0.1392
 3954TIP3    H133277   2.536   2.992   1.190 -1.0686 -0.3231 -0.9426
 3954TIP3    H233278   2.518   3.054   1.327 -0.2411 -1.9886 -0.0564
 3955TIP3   OH233279   5.249   4.053   2.973 -0.0982 -0.1726 -0.7120
 3955TIP3    H133280   5.237   4.051   2.878  1.0262  1.2169 -0.9123
 3955TIP3    H233281   5.202   4.131   3.002  1.6111  0.8039 -0.4764
 3956TIP3   OH233282   6.613   2.041  15.191  0.2179  0.2394  0.8414
 3956TIP3    H133283   6.617   2.101  15.117  0.5353 -0.2508  0.4571
 3956TIP3    H233284   6.543   2.076  15.246 -1.5981 -0.6327 -0.7914
 3957TIP3   OH233285   2.116   3.517  11.404 -0.1216 -0.5055 -0.3194
 3957TIP3    H133286   2.052   3.584  11.426  1.6330  1.2138 -0.1648
 3957TIP3    H233287   2.174   3.559  11.341  1.4384 -1.6384  0.2848
 3958TIP3   OH233288   3.249   0.389  12.695 -0.1778  0.6034 -0.4658
 3958TIP3    H133289   3.294   0.409  12.778  1.7944 -0.3043 -1.2535
 3958TIP3    H233290   3.184   0.323  12.718 -0.2322  0.9727  0.4962
 3959TIP3   OH233291   3.692   5.708   4.504 -0.1255 -0.0371 -0.0344
 3959TIP3    H133292   3.719   5.646   4.571 -0.4847  1.5682  1.6806
 3959TIP3    H233293   3.746   5.785   4.519 -1.4722  1.0188 -0.4053
 3960TIP3   OH233294   0.862   5.912  16.363  0.2311  0.2128  0.6117
 3960TIP3    H133295   0.933   5.972  16.340  1.9993 -2.9557 -3.2783
 3960TIP3    H233296   0.803   5.915  16.288  1.5811 -4.2547 -0.9184
 3961TIP3   OH233297   4.603   4.642   4.543 -0.1037  0.1033  0.4697
 3961TIP3    H133298   4.644   4.568   4.498  1.6652  1.4534 -0.2734
 3961TIP3    H233299   4.510   4.619   4.548 -0.1010 -0.9299 -2.2902
 3962TIP3   OH233300   3.202   5.838  11.484  0.4315 -0.3077  0.5138
 3962TIP3    H133301   3.210   5.783  11.406 -0.4562 -1.0376  0.9203
 3962TIP3    H233302   3.136   5.903  11.462  0.8328  0.0498  0.3487
 3963TIP3   OH233303   5.178   0.567  13.706  0.7636 -0.8439  0.2681
 3963TIP3    H133304   5.169   0.483  13.661 -0.2012 -1.5929  1.7628
 3963TIP3    H233305   5.231   0.621  13.647  0.3031 -2.0542 -1.3153
 3964TIP3   OH233306   0.874   4.964   2.766 -0.1354  0.1111 -0.0580
 3964TIP3    H133307   0.941   4.905   2.732  0.0048  0.4968 -0.4643
 3964TIP3    H233308   0.915   5.050   2.766  0.1755  0.0158  1.9462
 3965TIP3   OH233309   0.589   0.202   2.275 -0.0544 -0.1318 -0.1221
 3965TIP3    H133310   0.616   0.292   2.258  0.9367 -0.9450 -3.7176
 3965TIP3    H233311   0.499   0.209   2.307  0.2532  2.1223  0.4200
 3966TIP3   OH233312   2.637   4.288  11.028  0.0678 -0.0656  0.2205
 3966TIP3    H133313   2.611   4.240  10.950 -0.8364 -0.9999  1.0763
 3966TIP3    H233314   2.702   4.351  10.997  1.2885 -1.8241 -0.9228
 3967TIP3   OH233315   3.569   6.152   2.942  0.1491  0.3079  0.4957
 3967TIP3    H133316   3.591   6.212   3.013 -1.3559  1.4210  0.0671
 3967TIP3    H233317   3.495   6.193   2.897  0.0699 -1.1201 -0.7743
 3968TIP3   OH233318   1.978   6.270   1.576 -0.3918  0.0750  0.1635
 3968TIP3    H133319   1.959   6.344   1.519  1.0726 -0.7484 -1.5028
 3968TIP3    H233320   1.895   6.250   1.618 -1.6287  0.5861 -1.8983
 3969TIP3   OH233321   6.423   1.501  11.078 -0.5568  0.1069 -0.3223
 3969TIP3    H133322   6.427   1.590  11.043 -1.1376  0.1988 -0.1685
 3969TIP3    H233323   6.503   1.459  11.046  0.0703  0.8863  0.1652
 3970TIP3   OH233324   2.942   3.941   6.014  0.0993 -0.1259  0.0747
 3970TIP3    H133325   3.026   3.958   6.057  0.9018  1.5718 -1.9712
 3970TIP3    H233326   2.941   3.846   6.002  2.4604 -0.0813 -1.1415
 3971TIP3   OH233327   5.822   0.304  13.866 -0.1862 -0.0054 -0.0500
 3971TIP3    H133328   5.900   0.341  13.908  0.2575  0.5007 -1.2668
 3971TIP3    H233329   5.756   0.303  13.935 -0.0232  2.4898  0.2633
 3972TIP3   OH233330   3.027   1.558  17.324 -0.4498  0.0287 -0.0484
 3972TIP3    H133331   3.090   1.578  17.393 -0.7532 -1.5870  0.7298
 3972TIP3    H233332   2.971   1.636  17.319  2.0492  1.8867 -1.3632
 3973TIP3   OH233333   5.536   0.491  14.807  0.5412 -0.1778 -0.2900
 3973TIP3    H133334   5.457   0.524  14.763  0.8772  1.8955  0.5274
 3973TIP3    H233335   5.552   0.406  14.767 -0.3902  0.6727 -2.6436
 3974TIP3   OH233336   5.717   5.870  11.744 -0.0989  0.2962  0.2413
 3974TIP3    H133337   5.641   5.925  11.766 -1.2309 -0.7574 -0.8669
 3974TIP3    H233338   5.682   5.806  11.682  1.1277 -1.8308  1.6637
 3975TIP3   OH233339   4.329   3.481  13.170 -0.2462  0.0987  0.2291
 3975TIP3    H133340   4.325   3.557  13.112 -1.8844 -0.0294  0.1335
 3975TIP3    H233341   4.419   3.449  13.162  0.0126  1.0728 -0.9493
 3976TIP3   OH233342   5.975   3.262   1.456 -0.0318 -0.1834 -0.2870
 3976TIP3    H133343   5.885   3.295   1.460  0.1699  0.5144 -1.2351
 3976TIP3    H233344   6.029   3.340   1.443  0.6705 -0.6478 -0.2097
 3977TIP3   OH233345   1.291   2.713   5.492 -0.1419  0.0017 -0.5533
 3977TIP3    H133346   1.285   2.622   5.466  3.2661 -0.5354  0.1415
 3977TIP3    H233347   1.378   2.741   5.465  0.1984  2.0466  2.1852
 3978TIP3   OH233348   3.929   4.800   0.794  0.2682 -0.1788  0.1922
 3978TIP3    H133349   3.903   4.882   0.752  1.0942 -0.8656 -1.7534
 3978TIP3    H233350   3.996   4.763   0.736  0.7729 -1.6574  1.6410
 3979TIP3   OH233351   4.187   6.319   4.755 -0.1400 -0.5245 -0.0260
 3979TIP3    H133352   4.224   6.316   4.843 -1.2984  0.5757  0.5351
 3979TIP3    H233353   4.206   6.407   4.724 -1.1172 -0.3775 -0.2364
 3980TIP3   OH233354   6.661   0.158   0.824  0.0662 -0.0544  0.1188
 3980TIP3    H133355   6.755   0.147   0.806  0.1696 -1.7035  1.4374
 3980TIP3    H233356   6.653   0.249   0.851  1.0151  0.5334 -1.4277
 3981TIP3   OH233357   1.357   4.283   0.892 -0.5236  0.2297 -0.3275
 3981TIP3    H133358   1.267   4.252   0.906  0.1679 -0.9292  2.0111
 3981TIP3    H233359   1.390   4.302   0.980  1.8872 -0.4509 -1.0221
 3982TIP3   OH233360   2.839   0.431  16.930 -0.4576 -0.0724  0.3249
 3982TIP3    H133361   2.862   0.472  16.847  0.5783  1.8072  1.4513
 3982TIP3    H233362   2.770   0.369  16.908  0.5810 -0.4917 -2.0866
 3983TIP3   OH233363   1.141   3.235  10.448 -0.2638  0.2284 -0.3083
 3983TIP3    H133364   1.072   3.200  10.392  0.5778  0.6923 -1.6809
 3983TIP3    H233365   1.104   3.316  10.484 -0.6367  0.1719 -0.5576
 3984TIP3   OH233366   3.233   1.257  16.108 -0.4208 -0.3121 -0.4323
 3984TIP3    H133367   3.268   1.196  16.043 -0.4812  0.5062 -1.2495
 3984TIP3    H233368   3.287   1.336  16.098 -1.3759  0.3471 -0.5251
 3985TIP3   OH233369   4.141   4.799  14.109 -0.2377 -0.6517  0.0131
 3985TIP3    H133370   4.139   4.822  14.016  0.1175 -2.8763 -0.6216
 3985TIP3    H233371   4.171   4.878  14.153  1.2296 -0.0067 -1.9756
 3986TIP3   OH233372   0.396   2.585  12.687  0.7782  0.3156  0.2988
 3986TIP3    H133373   0.368   2.612  12.599 -0.3457 -1.5514  0.0448
 3986TIP3    H233374   0.491   2.602  12.687  1.1323 -1.1631 -1.9112
 3987TIP3   OH233375   2.678   3.818  16.612 -0.3557  0.3059  0.2944
 3987TIP3    H133376   2.711   3.901  16.577 -0.4119  1.1007  2.0206
 3987TIP3    H233377   2.751   3.782  16.662 -0.9786  0.3743  1.2867
 3988TIP3   OH233378   3.950   6.453   0.657 -0.1456 -0.7454  0.6688
 3988TIP3    H133379   3.925   6.525   0.716  2.1771  1.4408 -0.7690
 3988TIP3    H233380   4.000   6.393   0.712  0.6512  0.4481  1.2955
 3989TIP3   OH233381   6.658   4.551   5.081  0.0184  0.0859 -0.3291
 3989TIP3    H133382   6.697   4.583   5.162 -0.8549 -0.9044  0.5108
 3989TIP3    H233383   6.725   4.493   5.044 -0.0864 -0.4929  0.3684
 3990TIP3   OH233384   0.029   3.334  15.532  0.1201  0.4123  0.3364
 3990TIP3    H133385   0.119   3.304  15.526  0.6618  1.9550  0.2725
 3990TIP3    H233386   0.014   3.348  15.626  0.7275  2.2706  0.2040
 3991TIP3   OH233387   3.686   2.294   3.022 -1.1805  0.5564  0.4975
 3991TIP3    H133388   3.636   2.329   2.948  0.2938  1.6677 -0.0345
 3991TIP3    H233389   3.650   2.339   3.099 -0.5026  1.9871  0.0233
 3992TIP3   OH233390   6.496   4.954  12.343  0.3862  1.0540 -0.3672
 3992TIP3    H133391   6.562   4.902  12.298  0.4457  2.8825 -2.5978
 3992TIP3    H233392   6.430   4.971  12.276 -1.2273  1.1937  1.1805
 3993TIP3   OH233393   3.749   1.847  15.061 -0.4246 -0.1227  0.1895
 3993TIP3    H133394   3.753   1.770  15.118 -1.7943 -0.1243  0.3067
 3993TIP3    H233395   3.659   1.878  15.068 -1.0974 -0.9454 -3.0514
 3994TIP3   OH233396   3.527   6.181   4.823 -0.3893 -0.0150 -0.3370
 3994TIP3    H133397   3.546   6.248   4.889 -0.1811 -2.1090  1.8850
 3994TIP3    H233398   3.447   6.139   4.854 -0.6999 -0.5889 -1.8491
 3995TIP3   OH233399   5.910   3.317   5.548 -0.0179  0.1768 -0.3777
 3995TIP3    H133400   5.828   3.329   5.501 -0.6373 -0.3257  0.5471
 3995TIP3    H233401   5.908   3.382   5.619  0.0219 -0.3464  0.1123
 3996TIP3   OH233402   1.818   6.140  17.101  0.6804  0.4400  0.5574
 3996TIP3    H133403   1.889   6.168  17.043  0.7588  0.1335  0.5004
 3996TIP3    H233404   1.744   6.196  17.078  0.1496 -0.8598 -1.1429
 3997TIP3   OH233405   1.771   6.460   3.542  0.4328 -0.2890  0.0407
 3997TIP3    H133406   1.753   6.488   3.452 -1.1744 -1.3954 -0.0303
 3997TIP3    H233407   1.756   6.538   3.595 -0.7562 -0.1585 -0.4600
 3998TIP3   OH233408   6.251   6.209   1.875  0.0827  0.7964  0.5925
 3998TIP3    H133409   6.174   6.220   1.931 -0.1443  0.3572  0.3735
 3998TIP3    H233410   6.214   6.200   1.787  0.3293 -0.3451  0.5950
 3999TIP3   OH233411   3.571   6.559  12.740  0.4909  0.2292 -0.5519
 3999TIP3    H133412   3.524   6.503  12.678 -2.0695  0.9086  0.6330
 3999TIP3    H233413   3.505   6.581  12.806  2.5654  1.1880  1.2992
 4000TIP3   OH233414   2.484   0.157   5.113 -0.2803 -0.0751 -0.1524
 4000TIP3    H133415   2.479   0.062   5.107 -1.3367 -0.3024  2.7338
 4000TIP3    H233416   2.571   0.179   5.078 -0.7782 -1.7993 -2.7551
 4001TIP3   OH233417   6.184   4.635   5.131 -0.3792  0.5876 -0.2491
 4001TIP3    H133418   6.116   4.688   5.090 -1.1727  0.5326  0.9450
 4001TIP3    H233419   6.264   4.686   5.121 -0.8095  1.1886 -0.6578
 4002TIP3   OH233420   5.692   4.018  15.169 -0.0667 -0.1448 -0.1132
 4002TIP3    H133421   5.772   4.065  15.147 -1.2283  1.5353 -1.0054
 4002TIP3    H233422   5.712   3.926  15.153  0.9564  0.4525 -2.7041
 4003TIP3   OH233423   5.080   0.417  13.088 -0.2817  0.3505  0.6418
 4003TIP3    H133424   5.120   0.420  13.001 -0.7604  0.6683  0.4308
 4003TIP3    H233425   5.089   0.506  13.122 -0.2587  0.2715  0.8442
 4004TIP3   OH233426   5.654   1.696   1.522 -0.4585 -0.1555  0.2145
 4004TIP3    H133427   5.629   1.783   1.552 -0.5837 -0.1879  0.2048
 4004TIP3    H233428   5.571   1.651   1.505 -0.3941  0.0580 -0.7467
 4005TIP3   OH233429   1.750   2.481  13.436 -0.4332 -0.3337 -0.2544
 4005TIP3    H133430   1.721   2.390  13.433  0.7660 -0.8290  1.3451
 4005TIP3    H233431   1.835   2.481  13.391 -0.0528 -0.1867  0.4451
 4006TIP3   OH233432   6.586   6.303  17.185 -0.6752  0.3755  0.0310
 4006TIP3    H133433   6.640   6.372  17.223 -0.1559  0.1462 -0.2907
 4006TIP3    H233434   6.618   6.293  17.096 -0.7961 -0.2283  0.0486
 4007TIP3   OH233435   5.540   0.246  10.969 -0.2476 -0.7890  0.6918
 4007TIP3    H133436   5.531   0.297  10.888  1.0631 -0.3213  0.8003
 4007TIP3    H233437   5.582   0.165  10.941  1.1960 -0.1929  0.9926
 4008TIP3   OH233438   1.105   5.155   5.286  0.1995 -0.0772 -0.3254
 4008TIP3    H133439   1.126   5.189   5.374 -0.6874  1.7416 -0.7655
 4008TIP3    H233440   1.169   5.085   5.272  2.1617  1.4084  0.6891
 4009TIP3   OH233441   1.838   3.127  13.269 -0.0315 -0.0380 -0.5268
 4009TIP3    H133442   1.844   3.207  13.322  0.0872 -0.5757  0.2844
 4009TIP3    H233443   1.784   3.068  13.321  0.2861 -0.6644 -0.8993
 4010TIP3   OH233444   4.047   0.630  11.805 -0.0407 -0.1845  0.0307
 4010TIP3    H133445   4.133   0.589  11.813  0.4555  0.5745 -1.2379
 4010TIP3    H233446   4.051   0.705  11.864  0.1861 -0.1262 -0.0573
 4011TIP3   OH233447   1.678   3.916  11.875  0.1811  0.5745  0.5074
 4011TIP3    H133448   1.614   3.845  11.879  0.4389  0.3494  0.7063
 4011TIP3    H233449   1.651   3.969  11.800  0.5713 -0.3158 -0.2866
 4012TIP3   OH233450   5.583   0.969  12.089  0.3126  0.1079  0.0797
 4012TIP3    H133451   5.551   0.941  12.174  1.7674 -1.4000  0.1947
 4012TIP3    H233452   5.537   1.051  12.071 -1.2443 -0.3933  1.5441
 4013TIP3   OH233453   1.080   4.308   0.904  0.4912 -0.3092  0.0660
 4013TIP3    H133454   1.079   4.394   0.947  2.2389 -0.5795  0.7190
 4013TIP3    H233455   0.988   4.280   0.904  0.1721  0.6348  1.7458
 4014TIP3   OH233456   3.460   3.882   5.018  0.1041  0.1793 -0.1888
 4014TIP3    H133457   3.408   3.810   4.982  0.4763  0.0701 -0.5152
 4014TIP3    H233458   3.446   3.877   5.112 -1.1264  0.6521 -0.3323
 4015TIP3   OH233459   0.358   6.297   0.831  0.0871  0.2172  0.2681
 4015TIP3    H133460   0.441   6.260   0.802 -0.8151 -1.3788 -0.4158
 4015TIP3    H233461   0.331   6.356   0.761  0.6847  0.8393  0.5527
 4016TIP3   OH233462   3.282   6.365  11.228 -0.0893  0.3862  0.8856
 4016TIP3    H133463   3.214   6.344  11.164  2.0369 -3.3834 -0.4620
 4016TIP3    H233464   3.238   6.364  11.312 -1.7167 -2.2091  0.0979
 4017TIP3   OH233465   3.119   5.771   3.091  0.2511  0.5047  0.0062
 4017TIP3    H133466   3.080   5.858   3.086 -0.8945  0.0063 -0.0991
 4017TIP3    H233467   3.196   5.782   3.146 -0.5963  1.3433  1.0687
 4018TIP3   OH233468   1.471   3.614  17.032 -0.3306 -0.2211  0.3792
 4018TIP3    H133469   1.466   3.529  17.077 -0.5105  0.8224  2.4582
 4018TIP3    H233470   1.565   3.633  17.028 -0.3632  0.9955  3.1160
 4019TIP3   OH233471   0.621   3.008   0.063 -0.4300 -0.5538  0.1450
 4019TIP3    H133472   0.647   3.042   0.149 -0.9097  1.2880 -0.4034
 4019TIP3    H233473   0.560   3.073   0.028  0.5503 -0.7074 -2.0304
 4020TIP3   OH233474   2.009   1.509   5.225  0.4148 -0.2649 -0.2457
 4020TIP3    H133475   2.042   1.510   5.135  0.7328  1.2332 -0.1376
 4020TIP3    H233476   1.921   1.545   5.217  0.2073 -0.7141 -0.0226
 4021TIP3   OH233477   3.722   5.684   0.332 -0.4849 -0.1014  0.0908
 4021TIP3    H133478   3.682   5.639   0.406 -0.8147  0.7802  0.4587
 4021TIP3    H233479   3.693   5.775   0.340 -0.6353 -0.0204 -1.2045
 4022TIP3   OH233480   5.941   2.755   2.455 -0.3560 -0.1852  0.3283
 4022TIP3    H133481   5.937   2.820   2.525  0.1070  0.7538 -0.4906
 4022TIP3    H233482   6.005   2.691   2.485 -2.0066 -1.1964  1.8787
 4023TIP3   OH233483   0.630   2.032   2.758  0.0101 -0.1781  0.6107
 4023TIP3    H133484   0.716   2.046   2.798  1.2946 -2.4176 -1.1493
 4023TIP3    H233485   0.591   1.960   2.809 -1.2902  1.4022  1.9655
 4024TIP3   OH233486   3.779   5.540   1.402  0.3058  0.0031 -0.3221
 4024TIP3    H133487   3.715   5.518   1.334  0.6926 -2.4947  0.0380
 4024TIP3    H233488   3.864   5.528   1.360  0.5579 -2.1294  0.6738
 4025TIP3   OH233489   1.715   2.215  10.096 -0.0729 -0.1358  0.2139
 4025TIP3    H133490   1.780   2.275  10.132  0.9951 -0.4278 -1.1172
 4025TIP3    H233491   1.765   2.136  10.075 -0.1709  0.5492 -3.3230
 4026TIP3   OH233492   2.638   3.100  16.016  0.0038  0.0855 -0.2700
 4026TIP3    H133493   2.556   3.140  16.044 -0.0595  1.4752 -2.2430
 4026TIP3    H233494   2.649   3.129  15.925  1.3089 -2.2861 -0.9523
 4027TIP3   OH233495   2.437   0.668  14.376  0.6044  0.0324  0.2174
 4027TIP3    H133496   2.380   0.668  14.300  0.1487 -0.1551  0.5507
 4027TIP3    H233497   2.519   0.629  14.345  0.5097  0.1828 -0.2305
 4028TIP3   OH233498   4.179   3.838  16.149 -0.0938  0.4987 -0.2989
 4028TIP3    H133499   4.272   3.823  16.137  0.1282  2.3512 -1.2704
 4028TIP3    H233500   4.139   3.807  16.068 -0.4528 -0.9107  0.3738
 4029TIP3   OH233501   1.377   2.377   3.504 -0.5738 -0.1004  0.2526
 4029TIP3    H133502   1.461   2.337   3.527 -0.3847 -1.0895 -1.9245
 4029TIP3    H233503   1.333   2.390   3.588  1.7346  0.4595  1.4618
 4030TIP3   OH233504   4.039   3.942  10.966 -0.1861 -0.4605  0.4459
 4030TIP3    H133505   3.970   3.891  11.007 -1.0471 -0.9602 -1.5146
 4030TIP3    H233506   4.019   3.940  10.873  1.3723  1.0724  0.0134
 4031TIP3   OH233507   3.614   0.692   1.992  0.1165  0.2239  0.2995
 4031TIP3    H133508   3.624   0.722   2.082 -0.5755 -0.1285  0.5042
 4031TIP3    H233509   3.667   0.612   1.987 -1.8249 -1.2065  1.1528
 4032TIP3   OH233510   3.016   3.484  14.373  0.1075  0.2783 -0.0789
 4032TIP3    H133511   2.973   3.510  14.455  0.3978  0.3034  0.0675
 4032TIP3    H233512   3.034   3.391  14.384 -0.8080  0.0369 -0.5483
 4033TIP3   OH233513   6.016   1.715   3.798  0.5278  0.1110  0.3849
 4033TIP3    H133514   6.076   1.773   3.750  0.2080 -0.9707 -1.4155
 4033TIP3    H233515   5.949   1.692   3.734 -0.9207 -0.0164  1.8991
 4034TIP3   OH233516   0.276   1.154  15.857 -0.0232  0.0182 -0.8946
 4034TIP3    H133517   0.309   1.069  15.888  1.3313  0.6508 -0.5006
 4034TIP3    H233518   0.337   1.179  15.788  0.8246  1.5777  0.3588
 4035TIP3   OH233519   5.229   4.735  12.648  0.3979  0.8497  0.0045
 4035TIP3    H133520   5.187   4.755  12.564 -1.6414 -0.6406  0.5954
 4035TIP3    H233521   5.248   4.641  12.644 -0.5930  0.5396  1.5152
 4036TIP3   OH233522   0.782   5.470  11.919 -0.3331  0.4287  0.7734
 4036TIP3    H133523   0.792   5.495  11.826  1.3394  1.2576  1.1179
 4036TIP3    H233524   0.819   5.382  11.924 -1.6018 -0.1456  0.4526
 4037TIP3   OH233525   0.953   5.852  11.583  0.2970 -0.0948 -0.0250
 4037TIP3    H133526   0.882   5.866  11.646  0.6070 -0.4517  0.4147
 4037TIP3    H233527   0.908   5.827  11.502 -0.1485  1.2106 -0.2073
 4038TIP3   OH233528   3.409   4.911   3.782  0.3861  0.6924 -0.4799
 4038TIP3    H133529   3.323   4.885   3.749 -0.5755  0.8589  1.7261
 4038TIP3    H233530   3.465   4.836   3.762 -0.2317  0.5863 -1.9652
 4039TIP3   OH233531   0.425   5.736   2.570 -0.1203  0.5180  0.4260
 4039TIP3    H133532   0.483   5.784   2.511 -0.9886  0.2833 -0.6598
 4039TIP3    H233533   0.480   5.669   2.610  0.2573 -0.0600 -1.0029
 4040TIP3   OH233534   5.508   4.869   3.986  0.4974  0.1254 -0.0814
 4040TIP3    H133535   5.552   4.929   4.047 -0.4975  0.1700  0.6088
 4040TIP3    H233536   5.419   4.861   4.020  0.4860 -1.4225 -0.4044
 4041TIP3   OH233537   6.519   3.266   5.105 -0.4308 -0.3504  0.0949
 4041TIP3    H133538   6.539   3.182   5.063  0.6210  0.2086 -0.5493
 4041TIP3    H233539   6.555   3.332   5.046  0.4105  0.4914  1.4854
 4042TIP3   OH233540   0.050   0.473   5.689  0.0969  0.0984  0.9572
 4042TIP3    H133541  -0.019   0.407   5.692 -0.0038  0.1294 -0.3428
 4042TIP3    H233542   0.020   0.541   5.751 -0.5788 -0.3170  1.0985
 4043TIP3   OH233543   2.562   1.237  10.466  0.6861  1.0563  0.8427
 4043TIP3    H133544   2.617   1.315  10.473 -0.9921  2.2052  2.0441
 4043TIP3    H233545   2.491   1.263  10.406  0.0583  0.5106  1.3267
 4044TIP3   OH233546   1.358   2.498  12.943  0.4954  0.1266  0.5187
 4044TIP3    H133547   1.410   2.474  12.866 -1.1486  0.4916 -0.7648
 4044TIP3    H233548   1.298   2.566  12.911 -3.0391 -2.5022  0.9518
 4045TIP3   OH233549   6.316   0.635   2.793 -0.3234  0.2197 -0.4427
 4045TIP3    H133550   6.328   0.720   2.834 -1.7435  0.1483  0.1946
 4045TIP3    H233551   6.363   0.641   2.710 -0.7930  1.7878 -0.6233
 4046TIP3   OH233552   0.714   6.403  13.954 -0.1804  0.2283  0.5114
 4046TIP3    H133553   0.687   6.318  13.987  1.2271  0.0924  1.3908
 4046TIP3    H233554   0.768   6.384  13.878  0.1439  0.3229  0.7137
 4047TIP3   OH233555   3.342   3.449  13.931 -0.0982 -0.3950  0.4085
 4047TIP3    H133556   3.428   3.411  13.912 -0.8948 -2.5142  0.7225
 4047TIP3    H233557   3.361   3.537  13.962  1.6770  0.9090 -3.6586
 4048TIP3   OH233558   4.812   1.458   3.414  0.2662 -0.0587  0.0551
 4048TIP3    H133559   4.866   1.537   3.415 -0.0358  0.1533 -0.0225
 4048TIP3    H233560   4.728   1.488   3.380 -0.2468 -0.1618  1.1860
 4049TIP3   OH233561   2.996   3.806   3.376  0.0980 -0.0779 -0.4187
 4049TIP3    H133562   3.049   3.726   3.377  0.5854  0.2391  0.7780
 4049TIP3    H233563   3.054   3.872   3.337 -0.8254 -0.5992 -2.8740
 4050TIP3   OH233564   1.536   4.232  12.016  0.7790 -0.2010 -0.5819
 4050TIP3    H133565   1.584   4.167  12.066  2.8862  1.3471 -0.4558
 4050TIP3    H233566   1.603   4.294  11.987 -1.0235  1.5171 -1.2890
 4051TIP3   OH233567   6.309   3.460   4.868  0.4009  0.2439 -0.0401
 4051TIP3    H133568   6.403   3.465   4.888  0.4145 -1.4358  0.4507
 4051TIP3    H233569   6.266   3.503   4.942  0.7605  0.4957  0.0241
 4052TIP3   OH233570   0.413   0.291   5.130  0.1102 -0.4487  0.3233
 4052TIP3    H133571   0.496   0.274   5.176  1.2535  1.0696 -1.0829
 4052TIP3    H233572   0.421   0.380   5.098 -0.9280 -1.1828 -2.1998
 4053TIP3   OH233573   4.460   1.134   2.041 -0.1202 -0.3626  0.0079
 4053TIP3    H133574   4.474   1.082   2.120 -0.2408 -1.4717 -0.6671
 4053TIP3    H233575   4.369   1.164   2.047  0.2278  0.5578  0.8407
 4054TIP3   OH233576   0.870   1.241   4.438  0.5467  0.6947 -0.8002
 4054TIP3    H133577   0.778   1.217   4.445  0.5319  0.9755  0.1242
 4054TIP3    H233578   0.884   1.302   4.510  1.7755 -0.3764 -0.0826
 4055TIP3   OH233579   2.587   1.189   5.698 -0.3632  0.7616  0.0641
 4055TIP3    H133580   2.583   1.114   5.638  0.4155 -0.8168  1.8969
 4055TIP3    H233581   2.499   1.226   5.696 -1.4687 -1.6320  0.8287
 4056TIP3   OH233582   2.138   2.267   0.893 -0.2905  0.4224  0.1423
 4056TIP3    H133583   2.086   2.284   0.971 -1.6358  0.9971 -0.8528
 4056TIP3    H233584   2.172   2.178   0.906 -2.2509 -0.3404  0.4645
 4057TIP3   OH233585   3.568   4.380   1.163 -0.2367  0.3106  0.5446
 4057TIP3    H133586   3.617   4.461   1.173 -0.8175  0.4709  2.6241
 4057TIP3    H233587   3.477   4.404   1.181 -0.5311 -0.6508  0.4051
 4058TIP3   OH233588   2.403   1.103  17.148  0.3631  0.1705 -0.2106
 4058TIP3    H133589   2.393   1.012  17.175 -0.5276  0.0514 -0.9122
 4058TIP3    H233590   2.498   1.115  17.139  0.4385 -1.0410 -1.2821
 4059TIP3   OH233591   2.146   0.504   3.675 -0.2525  0.2485  0.1516
 4059TIP3    H133592   2.234   0.537   3.657 -0.1812  0.8692  1.5060
 4059TIP3    H233593   2.159   0.413   3.702 -0.2115 -0.1837 -1.2449
 4060TIP3   OH233594   4.997   4.579   1.299  0.6079  0.6175 -0.3210
 4060TIP3    H133595   4.991   4.612   1.388  1.6486 -0.9275  0.3757
 4060TIP3    H233596   4.991   4.484   1.308 -1.4583  0.4855 -2.1324
 4061TIP3   OH233597   3.802   2.419  16.676  0.1081 -0.2316  0.1230
 4061TIP3    H133598   3.839   2.337  16.643 -1.0289 -0.3450 -0.9437
 4061TIP3    H233599   3.813   2.481  16.604  1.5633  0.7610  1.1677
 4062TIP3   OH233600   5.196   4.932  13.496  0.1403 -0.5045 -0.1603
 4062TIP3    H133601   5.104   4.911  13.505  0.0230  0.4157  1.0840
 4062TIP3    H233602   5.240   4.879  13.563  0.3940 -0.2610 -0.1281
 4063TIP3   OH233603   1.230   5.611  15.478  0.5906 -0.7274  0.3636
 4063TIP3    H133604   1.189   5.525  15.486  1.3535 -1.1537 -0.1414
 4063TIP3    H233605   1.285   5.620  15.556  0.1310 -0.4852  0.6603
 4064TIP3   OH233606   1.334   4.747  12.347  0.7233 -0.1846  0.2152
 4064TIP3    H133607   1.329   4.707  12.260 -0.7343 -0.7211  0.5203
 4064TIP3    H233608   1.317   4.840  12.332  2.2076  0.0328 -0.2640
 4065TIP3   OH233609   6.645   0.242   0.539  0.2320  0.0642 -0.1105
 4065TIP3    H133610   6.643   0.210   0.629  0.2740  0.1275 -0.0875
 4065TIP3    H233611   6.601   0.173   0.489  0.3060 -0.0229 -0.0578
 4066TIP3   OH233612   4.958   6.356   2.616 -0.6067 -0.6969  0.2259
 4066TIP3    H133613   5.045   6.389   2.641 -1.3210 -0.3245  2.3984
 4066TIP3    H233614   4.900   6.387   2.685 -2.4188 -1.3130 -0.9585
 4067TIP3   OH233615   3.670   0.310   0.901  0.1142 -0.1415  0.1639
 4067TIP3    H133616   3.693   0.286   0.991 -0.5136 -0.5679  0.2140
 4067TIP3    H233617   3.583   0.351   0.909 -0.4987 -1.2781 -0.3860
 4068TIP3   OH233618   5.128   5.814   0.624  0.0871  0.1239  0.2255
 4068TIP3    H133619   5.143   5.751   0.553  2.5582  1.4558 -0.5723
 4068TIP3    H233620   5.076   5.884   0.583 -0.8810 -0.4062  0.5328
 4069TIP3   OH233621   1.423   5.405   2.645 -0.6156 -0.2763 -0.4183
 4069TIP3    H133622   1.425   5.324   2.696 -1.1343 -0.3346 -0.4839
 4069TIP3    H233623   1.363   5.386   2.573 -0.8416  0.2076 -0.3620
 4070TIP3   OH233624   2.230   4.492   5.083  0.1577  0.4161 -0.1890
 4070TIP3    H133625   2.142   4.526   5.099 -0.1738 -0.8064  0.6795
 4070TIP3    H233626   2.238   4.493   4.987 -0.4430  1.3946 -0.2423
 4071TIP3   OH233627   4.946   6.416  16.335  0.5447 -0.2482 -0.1780
 4071TIP3    H133628   4.920   6.426  16.427  0.0565 -2.1892 -0.0459
 4071TIP3    H233629   5.024   6.361  16.338 -0.2511 -1.4654 -0.9522
 4072TIP3   OH233630   2.074   0.337   1.929 -0.2662  0.0143  0.1687
 4072TIP3    H133631   2.034   0.408   1.879  1.6115  0.4122 -0.8324
 4072TIP3    H233632   2.011   0.265   1.923 -2.1520  1.5180  1.1088
 4073TIP3   OH233633   3.576   5.949   0.599  0.3940  1.1630 -0.3733
 4073TIP3    H133634   3.523   6.007   0.544  0.9469  1.0460 -1.0543
 4073TIP3    H233635   3.662   5.992   0.603  0.3041  1.2745  0.5851
 4074TIP3   OH233636   6.184   2.840  12.172 -0.0908  0.0414 -0.9487
 4074TIP3    H133637   6.209   2.779  12.242 -0.8219  0.6154 -0.1673
 4074TIP3    H233638   6.180   2.786  12.093 -2.5380 -1.3693  0.0268
 4075TIP3   OH233639   4.055   1.617  14.987  0.0964 -0.0044  0.0381
 4075TIP3    H133640   4.096   1.704  14.987  0.0347  0.0254  0.2322
 4075TIP3    H233641   4.048   1.594  15.080 -0.7368  0.1853  0.0346
 4076TIP3   OH233642   3.774   1.859  10.202  0.3114  0.4476 -0.2032
 4076TIP3    H133643   3.758   1.931  10.263  2.6049  1.3674 -0.5928
 4076TIP3    H233644   3.862   1.875  10.169  0.0045 -1.2957 -2.0415
 4077TIP3   OH233645   1.509   4.384   5.749  0.4569 -0.0913 -0.4136
 4077TIP3    H133646   1.558   4.466   5.746  1.4813 -0.6261  0.9828
 4077TIP3    H233647   1.513   4.351   5.659  1.2625  0.6743 -0.6762
 4078TIP3   OH233648   2.439   2.391  16.660 -0.2789  0.5552  0.1786
 4078TIP3    H133649   2.372   2.386  16.592 -0.2674  0.0457  0.1991
 4078TIP3    H233650   2.416   2.321  16.721  1.0103 -0.5091 -0.4984
 4079TIP3   OH233651   0.497   3.578   4.596 -0.0621 -0.4512 -0.7651
 4079TIP3    H133652   0.565   3.572   4.529  1.4757  2.1493  0.4042
 4079TIP3    H233653   0.527   3.521   4.666  2.0290  2.0248  0.5128
 4080TIP3   OH233654   1.043   0.300  12.009 -0.0130 -0.4902 -0.2046
 4080TIP3    H133655   1.047   0.356  11.932 -1.7889  0.2059  0.1553
 4080TIP3    H233656   0.965   0.245  11.995 -1.0899  0.4867  1.5890
 4081TIP3   OH233657   6.457   4.098  12.429  0.1807  0.0667 -0.1274
 4081TIP3    H133658   6.519   4.141  12.370 -1.2534  0.5862 -1.3307
 4081TIP3    H233659   6.510   4.071  12.504  2.1550 -0.8541 -1.7307
 4082TIP3   OH233660   0.286   3.457  14.605 -0.4547  0.3263 -0.3915
 4082TIP3    H133661   0.310   3.530  14.549  0.0524 -0.0020 -0.6066
 4082TIP3    H233662   0.368   3.409  14.619 -0.1972  1.2965  1.9488
 4083TIP3   OH233663   5.114   1.919  17.383  0.3884  0.5738 -0.7448
 4083TIP3    H133664   5.085   1.884  17.298 -0.0513 -0.4936 -0.1761
 4083TIP3    H233665   5.128   1.841  17.437 -1.4031  1.2754  0.8384
 4084TIP3   OH233666   4.516   0.231   2.458 -0.0125  0.2666  0.2658
 4084TIP3    H133667   4.577   0.304   2.472  0.6495 -0.2838  0.3317
 4084TIP3    H233668   4.545   0.163   2.519  0.0617 -0.4535 -0.5372
 4085TIP3   OH233669   1.541   3.895  16.766 -0.0357  0.1752  0.0366
 4085TIP3    H133670   1.508   3.894  16.855 -0.0654  0.1119  0.0237
 4085TIP3    H233671   1.463   3.891  16.711  0.0287 -1.0436  0.0054
 4086TIP3   OH233672   0.267   3.430   1.081 -0.5067  0.9663  0.1279
 4086TIP3    H133673   0.305   3.500   1.029 -0.3308  0.5421 -0.3176
 4086TIP3    H233674   0.235   3.366   1.017 -0.1464  0.3680  0.5314
 4087TIP3   OH233675   1.413   4.890   0.727 -0.1974  0.4061 -0.3370
 4087TIP3    H133676   1.496   4.903   0.773  0.4790  0.2758 -1.4911
 4087TIP3    H233677   1.380   4.807   0.761  1.8839 -1.3657 -2.3352
 4088TIP3   OH233678   1.858   6.590  16.187  0.2392 -0.1047  0.1311
 4088TIP3    H133679   1.926   6.558  16.127  0.0163 -0.5712  0.1234
 4088TIP3    H233680   1.903   6.599  16.271 -0.1255 -2.3551  0.6422
 4089TIP3   OH233681   4.086   3.629   4.198  0.0744 -0.1137  0.3765
 4089TIP3    H133682   4.041   3.663   4.121 -0.5352 -2.0073 -0.1579
 4089TIP3    H233683   4.174   3.609   4.168  0.6915  1.6427  0.8953
 4090TIP3   OH233684   5.352   5.677   0.125 -0.2618  0.1148 -0.4951
 4090TIP3    H133685   5.390   5.728   0.196 -1.6029 -1.6494  1.6392
 4090TIP3    H233686   5.267   5.717   0.109 -0.2610  0.0832 -0.5791
 4091TIP3   OH233687   0.636   5.622   2.086 -0.1240  0.3677 -0.1404
 4091TIP3    H133688   0.593   5.658   2.008  0.4490 -2.5374 -1.9654
 4091TIP3    H233689   0.599   5.535   2.096 -0.8359  0.9317  3.5137
 4092TIP3   OH233690   2.872   0.528  16.366  0.1792 -0.0796 -0.4288
 4092TIP3    H133691   2.819   0.594  16.410 -0.6722  0.0166 -1.5645
 4092TIP3    H233692   2.946   0.577  16.329 -0.3758  0.2324 -1.1478
 4093TIP3   OH233693   0.060   5.742  11.670 -0.3668  0.1616 -0.1081
 4093TIP3    H133694   0.073   5.660  11.623  3.1111  1.2207 -1.3246
 4093TIP3    H233695   0.093   5.725  11.758 -0.6725 -0.0423 -0.0334
 4094TIP3   OH233696   2.387   3.443  12.028 -0.3764 -0.0985  0.5849
 4094TIP3    H133697   2.465   3.491  12.056 -0.3268 -0.0267  0.3282
 4094TIP3    H233698   2.333   3.508  11.984  0.0542 -0.4429 -0.4765
 4095TIP3   OH233699   5.028   2.164  12.506  0.0121  0.6410 -0.2622
 4095TIP3    H133700   5.078   2.197  12.581 -1.3148 -0.9024  1.3713
 4095TIP3    H233701   5.095   2.144  12.440  1.2046  2.0624  0.4386
 4096TIP3   OH233702   2.683   4.772  13.610  0.2808  0.0289  0.0267
 4096TIP3    H133703   2.755   4.711  13.628  0.5190 -0.1382 -1.4098
 4096TIP3    H233704   2.727   4.853  13.583 -0.0630 -0.0627 -0.8181
 4097TIP3   OH233705   2.503   6.102  14.861  0.1538  0.0263  0.0142
 4097TIP3    H133706   2.578   6.153  14.891 -0.7382  0.8473  0.9527
 4097TIP3    H233707   2.499   6.027  14.921 -0.7687  0.9038  1.1128
 4098TIP3   OH233708   5.124   6.419   4.472 -0.0158  0.2211  0.0863
 4098TIP3    H133709   5.055   6.436   4.537  0.8305 -1.5595  1.5386
 4098TIP3    H233710   5.189   6.487   4.488 -0.5423  0.7485  0.0130
 4099TIP3   OH233711   0.652   1.666  13.611  0.2875  0.2931 -0.7375
 4099TIP3    H133712   0.727   1.662  13.670  1.3902  3.0131 -1.7465
 4099TIP3    H233713   0.672   1.602  13.542  1.5641  0.7227 -0.7987
 4100TIP3   OH233714   2.990   0.232  16.165  0.0960 -0.4606 -0.3289
 4100TIP3    H133715   3.077   0.191  16.161  0.6515  0.7361 -0.8604
 4100TIP3    H233716   2.942   0.178  16.228  1.2118 -1.1645 -0.0422
 4101TIP3   OH233717   3.325   2.294   3.020  0.1151  0.3552  0.1234
 4101TIP3    H133718   3.273   2.266   3.096 -0.5960 -0.9457 -0.8033
 4101TIP3    H233719   3.369   2.374   3.049 -0.7076  0.2851  1.6600
 4102TIP3   OH233720   3.384   1.624   0.318 -0.8551 -0.0073  0.5367
 4102TIP3    H133721   3.465   1.632   0.369 -0.4449 -1.2731  0.1024
 4102TIP3    H233722   3.397   1.546   0.264 -1.6819  0.7529 -0.7987
 4103TIP3   OH233723   5.378   6.688   5.883 -0.2565 -0.0240  0.1109
 4103TIP3    H133724   5.337   6.767   5.850  0.1527 -0.0628 -0.5129
 4103TIP3    H233725   5.384   6.631   5.807  1.2696  0.1205  0.1013
 4104TIP3   OH233726   5.233   4.506  15.281  0.4470 -0.0931 -0.5035
 4104TIP3    H133727   5.139   4.490  15.274  0.1765  1.2682 -0.2970
 4104TIP3    H233728   5.273   4.419  15.280 -0.8699 -0.7240  0.1693
 4105TIP3   OH233729   4.549   6.114  15.181  0.0831  0.4347  0.0807
 4105TIP3    H133730   4.631   6.144  15.219  0.6387  0.4312 -1.0714
 4105TIP3    H233731   4.501   6.194  15.160  0.2057  0.4541 -0.1236
 4106TIP3   OH233732   3.712   2.000  15.438 -0.0700  0.5275  0.4237
 4106TIP3    H133733   3.671   2.071  15.390  1.9838 -1.3012 -4.6847
 4106TIP3    H233734   3.642   1.934  15.448 -0.5837  1.0219  0.1212
 4107TIP3   OH233735   1.962   1.053   3.844 -1.0544 -0.2816 -0.0925
 4107TIP3    H133736   2.039   1.017   3.800 -0.1912 -0.5680  1.5582
 4107TIP3    H233737   1.957   1.143   3.813  1.1404  0.3662  1.1371
 4108TIP3   OH233738   6.088   1.228  13.006 -0.4190  0.3670 -0.3239
 4108TIP3    H133739   6.002   1.193  13.026 -0.3124  0.4434  0.2801
 4108TIP3    H233740   6.073   1.291  12.935 -0.6318 -0.7639 -1.3130
 4109TIP3   OH233741   1.821   0.755  11.711  0.5298 -0.4016  0.0780
 4109TIP3    H133742   1.772   0.735  11.632 -1.7001 -1.2596  1.5570
 4109TIP3    H233743   1.891   0.690  11.715  2.6021  1.4435 -2.5907
 4110TIP3   OH233744   5.965   5.661   5.185 -0.2315  0.4225  0.0699
 4110TIP3    H133745   6.001   5.677   5.098 -0.5340 -2.0020 -0.5899
 4110TIP3    H233746   5.938   5.747   5.216  2.2888  1.7540 -1.0999
 4111TIP3   OH233747   6.610   1.646  16.800 -0.0699 -0.3808 -0.6383
 4111TIP3    H133748   6.681   1.687  16.849 -0.7203  0.5220 -0.4345
 4111TIP3    H233749   6.582   1.573  16.856 -0.0653 -0.0394 -0.1840
 4112TIP3   OH233750   6.268   2.048   6.055  0.0847  0.3638 -0.2196
 4112TIP3    H133751   6.338   2.113   6.060  0.2432  0.4312 -2.4026
 4112TIP3    H233752   6.303   1.972   6.103  1.3385  0.6751 -0.5993
 4113TIP3   OH233753   0.587   3.303   0.807  0.0905  0.3447 -0.2580
 4113TIP3    H133754   0.506   3.326   0.761 -0.0750 -0.2023 -0.2494
 4113TIP3    H233755   0.655   3.305   0.740  0.1101  1.0023 -0.2263
 4114TIP3   OH233756   4.676   1.597   4.579  0.3753 -0.3177 -0.0215
 4114TIP3    H133757   4.659   1.519   4.526 -0.0808 -0.3376  0.1475
 4114TIP3    H233758   4.645   1.670   4.526  2.0448 -0.1009 -0.7631
 4115TIP3   OH233759   1.004   6.567  11.512 -0.2008  0.1271 -0.3502
 4115TIP3    H133760   0.911   6.542  11.516 -0.8351  2.3497 -0.1312
 4115TIP3    H233761   1.043   6.524  11.588 -0.6756 -2.0440 -1.2428
 4116TIP3   OH233762   1.654   2.061   3.015 -0.4218  0.7442 -0.6045
 4116TIP3    H133763   1.616   2.108   2.940 -0.6759  0.1122 -0.8795
 4116TIP3    H233764   1.588   1.995   3.038  0.9422 -1.1448 -1.8218
 4117TIP3   OH233765   5.455   5.378  15.279 -0.4932 -0.5022  0.1589
 4117TIP3    H133766   5.400   5.411  15.208 -0.3205 -1.3833 -0.3938
 4117TIP3    H233767   5.396   5.326  15.333 -0.4093 -0.6727  0.0886
 4118TIP3   OH233768   4.921   4.053   4.697  0.3819 -0.8207  0.1795
 4118TIP3    H133769   4.847   4.009   4.738 -0.1279  0.1280  0.3048
 4118TIP3    H233770   4.964   3.985   4.645 -0.1812 -1.5366  0.6367
 4119TIP3   OH233771   5.923   5.252  16.957 -0.5267 -0.3179  0.0860
 4119TIP3    H133772   5.884   5.336  16.932 -0.4897 -0.6148 -1.0580
 4119TIP3    H233773   6.015   5.272  16.972 -0.9651  0.2863  2.2719
 4120TIP3   OH233774   4.622   4.531  14.123  0.0248 -0.1842  0.7632
 4120TIP3    H133775   4.636   4.459  14.184  2.0573 -2.1879 -1.8238
 4120TIP3    H233776   4.701   4.585  14.131  0.2704 -0.4187  0.0160
 4121TIP3   OH233777   0.663   1.190  15.923 -0.0055 -0.1366 -0.1504
 4121TIP3    H133778   0.661   1.274  15.878 -0.7415 -0.2660 -0.3588
 4121TIP3    H233779   0.669   1.125  15.853  2.1649 -0.2173  0.0463
 4122TIP3   OH233780   2.249   5.824   0.170  0.4113  0.6343 -0.1459
 4122TIP3    H133781   2.270   5.795   0.259  0.4570 -0.9857 -0.6458
 4122TIP3    H233782   2.273   5.916   0.168  2.0512  0.2697  1.0040
 4123TIP3   OH233783   1.907   2.552   3.781  0.2866  0.0031 -0.2492
 4123TIP3    H133784   1.967   2.526   3.711 -0.1963 -0.0492 -0.6506
 4123TIP3    H233785   1.820   2.526   3.749 -0.0368  0.7505 -0.0071
 4124TIP3   OH233786   6.367   1.838   1.280 -0.0756 -0.0172  0.0270
 4124TIP3    H133787   6.422   1.893   1.224  0.3460  0.0630  0.5129
 4124TIP3    H233788   6.287   1.889   1.292 -0.5394 -0.4183 -1.2152
 4125TIP3   OH233789   4.601   4.269   0.637 -0.2773 -0.9888  0.1708
 4125TIP3    H133790   4.644   4.202   0.690 -1.9851 -0.9314  1.7251
 4125TIP3    H233791   4.603   4.348   0.691 -1.0966 -0.6374 -0.2925
 4126TIP3   OH233792   0.658   3.212  16.214 -0.2791 -0.2491 -0.1051
 4126TIP3    H133793   0.646   3.179  16.303  1.5879 -0.6859  0.0350
 4126TIP3    H233794   0.572   3.246  16.189 -0.7033  0.4816  2.1015
 4127TIP3   OH233795   1.190   0.599  16.375  0.0562 -0.0736  0.1483
 4127TIP3    H133796   1.152   0.686  16.367  0.8455  0.1782 -1.4328
 4127TIP3    H233797   1.122   0.546  16.416 -1.1450  0.8517 -0.5826
 4128TIP3   OH233798   2.999   4.541  11.648  0.0591 -0.1252 -0.8582
 4128TIP3    H133799   2.922   4.554  11.703 -0.4121  0.6879 -1.6726
 4128TIP3    H233800   3.021   4.449  11.660 -1.7093 -0.6730 -1.4084
 4129TIP3   OH233801   2.835   2.566   2.869  0.1244 -1.0654 -0.0892
 4129TIP3    H133802   2.767   2.584   2.805  0.0207 -2.4136 -0.3875
 4129TIP3    H233803   2.787   2.547   2.950  0.2646  1.1724  0.5975
 4130TIP3   OH233804   6.516   5.422   3.482 -0.3655 -0.2778  0.0728
 4130TIP3    H133805   6.570   5.493   3.516  0.1156 -0.0994 -1.0481
 4130TIP3    H233806   6.576   5.347   3.476 -0.9519 -0.9306  1.6095
 4131TIP3   OH233807   6.320   4.122   0.804 -0.9195  0.2313  0.1542
 4131TIP3    H133808   6.396   4.162   0.762 -1.7006  1.6046 -0.0223
 4131TIP3    H233809   6.351   4.097   0.891 -0.0603  0.0537 -0.1971
 4132TIP3   OH233810   3.953   3.815   5.067  0.1279 -1.0167 -0.1268
 4132TIP3    H133811   4.012   3.749   5.030  2.8906  0.0233  2.0714
 4132TIP3    H233812   3.912   3.855   4.990  2.6633 -1.5339 -1.8942
 4133TIP3   OH233813   6.089   0.505  13.396 -0.2585 -0.2137 -0.0008
 4133TIP3    H133814   6.151   0.515  13.323 -0.5832  0.1185 -0.2345
 4133TIP3    H233815   6.002   0.512  13.355 -0.5987 -3.7551 -0.2210
 4134TIP3   OH233816   6.485   3.703   0.547  0.2004 -0.1368 -0.0969
 4134TIP3    H133817   6.479   3.717   0.642 -0.9180  1.2021 -0.3157
 4134TIP3    H233818   6.562   3.648   0.535  0.1867 -0.5883  1.6106
 4135TIP3   OH233819   4.894   5.696  11.996 -0.0823 -0.6913  0.3626
 4135TIP3    H133820   4.849   5.612  11.984 -0.2321 -0.5140 -0.3842
 4135TIP3    H233821   4.965   5.677  12.057  0.4366 -1.5671 -0.4838
 4136TIP3   OH233822   4.559   2.427  10.254 -0.6999 -0.0015  0.1983
 4136TIP3    H133823   4.534   2.519  10.245 -1.9391 -0.0567  2.3785
 4136TIP3    H233824   4.619   2.426  10.329 -2.3809 -1.1916  1.5968
 4137TIP3   OH233825   0.683   0.479   2.252  0.0096 -0.2930 -0.5649
 4137TIP3    H133826   0.646   0.542   2.315  0.1922  0.4082 -1.1404
 4137TIP3    H233827   0.704   0.533   2.176  0.3292 -1.0399 -1.0028
 4138TIP3   OH233828   0.300   5.827  14.195 -0.0358  0.0609 -0.1483
 4138TIP3    H133829   0.251   5.841  14.276 -0.8287  2.3989 -0.9616
 4138TIP3    H233830   0.256   5.752  14.154 -0.2146 -0.5503  1.0953
 4139TIP3   OH233831   1.522   3.332   5.049  0.4636 -0.4887  0.3679
 4139TIP3    H133832   1.548   3.265   4.985  2.1818  1.5443 -1.2123
 4139TIP3    H233833   1.605   3.363   5.085 -0.4276 -1.8585  4.0923
 4140TIP3   OH233834   5.610   4.688   0.499 -0.4539 -0.1723  0.1388
 4140TIP3    H133835   5.581   4.622   0.562 -0.6268  0.4296  0.6962
 4140TIP3    H233836   5.652   4.756   0.553 -1.2262  0.6892 -0.3215
 4141TIP3   OH233837   1.269   4.108   4.318  0.3220 -0.3009 -0.3236
 4141TIP3    H133838   1.191   4.136   4.366 -0.0755 -0.8089 -0.6564
 4141TIP3    H233839   1.337   4.170   4.344 -0.3471  0.5256 -0.4899
 4142TIP3   OH233840   5.732   5.194   3.303 -0.6427  0.8664  0.2725
 4142TIP3    H133841   5.779   5.187   3.386  0.0647 -0.5555 -0.2148
 4142TIP3    H233842   5.759   5.278   3.266  1.0700  0.3488  0.2953
 4143TIP3   OH233843   0.461   0.547   5.045  0.1355 -0.0096 -0.2993
 4143TIP3    H133844   0.522   0.599   5.098 -0.4353  0.2827  0.0820
 4143TIP3    H233845   0.405   0.612   5.003  0.7856 -0.2251 -1.5299
 4144TIP3   OH233846   3.334   2.240   1.584  0.1445  0.0933  0.0020
 4144TIP3    H133847   3.418   2.284   1.586 -0.0530  0.5619 -1.0202
 4144TIP3    H233848   3.354   2.151   1.555  0.0668  0.9448 -3.0187
 4145TIP3   OH233849   5.484   4.463  15.584 -0.5429 -0.4936 -0.7139
 4145TIP3    H133850   5.392   4.447  15.604 -0.8294  0.4552 -1.2256
 4145TIP3    H233851   5.523   4.375  15.576 -1.0971 -0.9046  0.8289
 4146TIP3   OH233852   5.813   0.822  13.244 -0.2271  0.2426  0.4969
 4146TIP3    H133853   5.878   0.844  13.311  1.1352  1.0418 -1.0220
 4146TIP3    H233854   5.750   0.894  13.246 -0.2006  0.2582  0.8902
 4147TIP3   OH233855   3.950   1.282   0.297  0.2563  0.2709 -0.6346
 4147TIP3    H133856   3.945   1.205   0.352 -2.3570  1.2037  0.6064
 4147TIP3    H233857   3.864   1.288   0.255  1.5601  0.5699 -3.5488
 4148TIP3   OH233858   6.325   5.395   2.448 -0.2944  0.0965 -0.3041
 4148TIP3    H133859   6.274   5.326   2.490  0.5072 -0.6155 -0.4859
 4148TIP3    H233860   6.399   5.350   2.408  0.1538  1.0413 -0.5685
 4149TIP3   OH233861   2.700   5.540  11.692 -0.4131  0.0034  0.7200
 4149TIP3    H133862   2.748   5.527  11.610 -1.6244 -0.3736  0.0376
 4149TIP3    H233863   2.760   5.589  11.748  0.7665 -0.5000 -0.0749
 4150TIP3   OH233864   0.035   3.789  17.404  0.1447  0.5158 -0.2757
 4150TIP3    H133865  -0.012   3.706  17.405 -1.5694  1.4335 -0.2375
 4150TIP3    H233866   0.058   3.804  17.496 -0.2046  0.4266 -0.1700
 4151TIP3   OH233867   1.876   6.694   0.793  0.1401 -0.3381  0.3964
 4151TIP3    H133868   1.866   6.599   0.797  0.0946 -0.3723 -0.3061
 4151TIP3    H233869   1.859   6.715   0.701  0.6487  0.2917  0.4436
 4152TIP3   OH233870   6.100   3.893  16.716 -0.4837 -0.0340  0.2623
 4152TIP3    H133871   6.040   3.882  16.789 -1.3147  1.7661 -0.1039
 4152TIP3    H233872   6.066   3.968  16.667  1.0361 -0.0972 -0.9862
 4153TIP3   OH233873   0.248   5.221  11.228 -0.0525  0.0412  0.2310
 4153TIP3    H133874   0.205   5.187  11.149  0.7920 -0.4015 -0.0590
 4153TIP3    H233875   0.294   5.299  11.199  0.3273 -0.1674  0.2523
 4154TIP3   OH233876   0.042   5.550   4.807  0.0600  0.1976 -0.2048
 4154TIP3    H133877   0.088   5.470   4.779 -0.9587 -0.5108  0.1221
 4154TIP3    H233878   0.113   5.608   4.835  0.8024 -0.7405 -0.0378
 4155TIP3   OH233879   4.815   0.057   4.870  0.3392 -0.4749  0.2109
 4155TIP3    H133880   4.830   0.084   4.780 -0.6658  0.4997  0.3160
 4155TIP3    H233881   4.719   0.053   4.878  0.4188 -0.7259  1.1800
 4156TIP3   OH233882   1.942   3.227   4.101  0.1497 -0.6722  0.4008
 4156TIP3    H133883   1.978   3.236   4.189  0.1597  1.1742  0.2626
 4156TIP3    H233884   1.853   3.263   4.108  0.3502  0.0310 -0.4350
 4157TIP3   OH233885   3.057   2.423  15.058  0.4263  0.9107 -0.2211
 4157TIP3    H133886   3.013   2.373  14.990 -0.0627  2.8603 -1.4321
 4157TIP3    H233887   3.119   2.362  15.097  0.7621 -0.2819 -2.4523
 4158TIP3   OH233888   1.989   6.677  12.250 -0.1766 -0.2912 -0.3827
 4158TIP3    H133889   1.982   6.632  12.334  3.5703 -0.5921 -0.0802
 4158TIP3    H233890   1.900   6.706  12.231 -1.3953 -1.3310  3.0301
 4159TIP3   OH233891   6.075   6.194  10.970  0.9598 -0.1328  0.5835
 4159TIP3    H133892   6.122   6.277  10.958  0.4096  0.0636 -0.3335
 4159TIP3    H233893   6.130   6.129  10.925  0.4029  0.0894 -0.4514
 4160TIP3   OH233894   5.765   2.849  15.216 -0.0136 -0.4453 -0.1350
 4160TIP3    H133895   5.832   2.850  15.284 -0.0091  1.9733 -0.0828
 4160TIP3    H233896   5.701   2.914  15.244 -0.0720  0.5395 -2.3503
 4161TIP3   OH233897   6.493   3.795  17.437  0.1102 -0.4558  0.5733
 4161TIP3    H133898   6.581   3.817  17.407  0.3722 -1.8750  0.2324
 4161TIP3    H233899   6.505   3.768  17.528  0.0098 -0.5380  0.5621
 4162TIP3   OH233900   6.747   0.283  11.807 -0.3934 -0.2007 -0.2154
 4162TIP3    H133901   6.696   0.290  11.727  1.6785  0.8362 -1.5343
 4162TIP3    H233902   6.838   0.282  11.778  0.4251  0.0423  2.1124
 4163TIP3   OH233903   6.237   5.333  12.228 -0.3631 -0.6247 -0.2552
 4163TIP3    H133904   6.245   5.250  12.274  0.7607  0.8969  2.5212
 4163TIP3    H233905   6.322   5.345  12.186 -0.7325 -1.1141 -1.1743
 4164TIP3   OH233906   5.806   2.153  12.319  0.2384 -0.1615 -0.4088
 4164TIP3    H133907   5.745   2.115  12.382 -2.7855  1.8485 -1.9153
 4164TIP3    H233908   5.790   2.106  12.237 -0.0231  0.9952 -1.0535
 4165TIP3   OH233909   0.600   5.307  15.910  0.0535 -0.9894  0.0012
 4165TIP3    H133910   0.551   5.228  15.884 -1.5767 -0.1517  0.3677
 4165TIP3    H233911   0.534   5.363  15.952  0.6192  1.5277 -2.1773
 4166TIP3   OH233912   1.575   1.473   3.924  0.5457  0.1076 -0.1202
 4166TIP3    H133913   1.669   1.490   3.922  0.5425  0.2812  0.7336
 4166TIP3    H233914   1.566   1.399   3.984  0.3979 -1.8792 -2.4380
 4167TIP3   OH233915   0.598   0.539   4.156  0.6240  0.9244 -0.2950
 4167TIP3    H133916   0.655   0.615   4.171  0.4482  0.9990 -0.0006
 4167TIP3    H233917   0.586   0.501   4.243  1.7253 -0.1720 -0.5832
 4168TIP3   OH233918   3.625   0.966  14.884 -0.3355 -0.7658 -0.1960
 4168TIP3    H133919   3.585   0.908  14.819 -0.9200 -0.0138 -0.5116
 4168TIP3    H233920   3.715   0.979  14.853 -1.1353  1.1045 -1.9245
 4169TIP3   OH233921   0.646   2.415   0.509 -0.0464  0.1918  0.3223
 4169TIP3    H133922   0.636   2.328   0.469  0.1560  0.3488 -0.0775
 4169TIP3    H233923   0.594   2.472   0.453 -0.1565  0.3332  0.5697
 4170TIP3   OH233924   2.862   1.259  13.729 -0.3258  0.2231 -0.1766
 4170TIP3    H133925   2.814   1.329  13.685 -0.8898  0.0880  0.2139
 4170TIP3    H233926   2.909   1.303  13.800 -2.0294  0.0032  1.1573
 4171TIP3   OH233927   1.590   5.281  14.553 -0.5412 -0.0315  0.6732
 4171TIP3    H133928   1.642   5.201  14.551 -0.4310 -0.0058  1.9093
 4171TIP3    H233929   1.635   5.341  14.494  0.4237 -0.2555  1.1769
 4172TIP3   OH233930   6.199   0.517   1.906  0.5720 -0.2180 -0.0755
 4172TIP3    H133931   6.230   0.592   1.957  0.5504 -1.1672  1.3803
 4172TIP3    H233932   6.267   0.451   1.918  0.4272 -0.5690 -1.0809
 4173TIP3   OH233933   1.025   6.087   4.596 -0.5784 -0.2726 -0.0192
 4173TIP3    H133934   1.086   6.121   4.531 -0.1001 -0.5969  0.2491
 4173TIP3    H233935   0.950   6.146   4.593  0.9066  1.8578  1.6062
 4174TIP3   OH233936   2.361   1.489   1.579  0.4070  0.2988 -0.4555
 4174TIP3    H133937   2.431   1.535   1.533 -0.0134  2.0592  0.5412
 4174TIP3    H233938   2.368   1.520   1.670 -1.1119 -0.1428 -0.1544
 4175TIP3   OH233939   4.688   5.417   1.123  0.2635 -0.4009 -0.3118
 4175TIP3    H133940   4.770   5.372   1.142  0.1027 -0.7538 -0.4399
 4175TIP3    H233941   4.711   5.483   1.058  0.1926 -1.4252 -1.3974
 4176TIP3   OH233942   6.527   3.406  11.972 -0.0473 -0.3504 -1.0514
 4176TIP3    H133943   6.493   3.464  11.904 -1.1561 -0.2081 -0.3944
 4176TIP3    H233944   6.460   3.338  11.980  0.7465 -1.1458 -1.0807
 4177TIP3   OH233945   2.521   4.969   6.181 -0.0601  0.2847  0.3177
 4177TIP3    H133946   2.503   5.056   6.145 -0.5722  0.2561  0.4980
 4177TIP3    H233947   2.469   4.965   6.261  1.6893  0.6436  1.5130
 4178TIP3   OH233948   3.875   0.369  12.391  0.0382 -0.2709 -0.2045
 4178TIP3    H133949   3.870   0.304  12.321  0.7850 -0.1650 -0.3645
 4178TIP3    H233950   3.810   0.435  12.366 -0.3859 -0.7103 -0.2900
 4179TIP3   OH233951   6.456   3.830   3.064  0.4092 -0.5664 -0.2040
 4179TIP3    H133952   6.453   3.924   3.046  1.8447  0.0899  2.4782
 4179TIP3    H233953   6.534   3.799   3.018  1.5507  0.1689  1.1868
 4180TIP3   OH233954   1.308   0.081  14.652  0.0637  0.3298  0.0495
 4180TIP3    H133955   1.389   0.130  14.665  0.9557 -1.3788  1.3098
 4180TIP3    H233956   1.291   0.086  14.558  2.2314 -0.1609 -0.4126
 4181TIP3   OH233957   5.847   5.953  12.963  0.3552  0.3299  0.2279
 4181TIP3    H133958   5.787   6.016  12.922  1.5647  0.9686 -0.6117
 4181TIP3    H233959   5.883   5.903  12.890  1.9461  0.9486  0.5346
 4182TIP3   OH233960   5.479   6.273  14.167 -0.3660 -0.2283 -0.3039
 4182TIP3    H133961   5.555   6.310  14.121  0.4723  1.2593  2.0763
 4182TIP3    H233962   5.516   6.203  14.222 -0.6470  0.5001  0.8630
 4183TIP3   OH233963   4.963   1.449   5.510 -0.3749 -0.3568 -0.0549
 4183TIP3    H133964   4.879   1.463   5.554  0.0560  0.3331  0.5849
 4183TIP3    H233965   4.981   1.532   5.465  0.1134 -0.3749  0.0940
 4184TIP3   OH233966   5.326   5.856   3.161  0.0612 -0.0583 -0.6945
 4184TIP3    H133967   5.406   5.811   3.188  0.4402  0.1137 -1.4989
 4184TIP3    H233968   5.256   5.813   3.211  0.5907 -0.5685 -0.3812
 4185TIP3   OH233969   2.188   5.353   5.530  0.1253 -0.4225  0.1608
 4185TIP3    H133970   2.175   5.366   5.624 -0.0030 -0.6182  0.1711
 4185TIP3    H233971   2.174   5.259   5.517  0.4705 -0.4539 -0.0008
 4186TIP3   OH233972   0.621   0.878  14.676 -0.1842  0.3730 -0.8471
 4186TIP3    H133973   0.697   0.928  14.645  0.5143 -1.3905 -2.1958
 4186TIP3    H233974   0.567   0.942  14.723  0.5583  2.4107 -2.6055
 4187TIP3   OH233975   4.839   3.370   2.723  0.1560  0.2895 -0.1544
 4187TIP3    H133976   4.758   3.381   2.673 -0.1795 -2.0743 -0.2807
 4187TIP3    H233977   4.903   3.342   2.657  0.4233 -0.2021  0.3035
 4188TIP3   OH233978   1.068   3.304   3.468 -0.0121 -0.1768  0.3904
 4188TIP3    H133979   1.141   3.288   3.528  1.2076  0.9684 -0.7164
 4188TIP3    H233980   1.105   3.288   3.381 -1.3261 -0.3823 -0.1510
 4189TIP3   OH233981   1.453   1.168  14.800 -0.0520  0.1833 -0.2233
 4189TIP3    H133982   1.413   1.103  14.858  1.7230  1.3937  2.5435
 4189TIP3    H233983   1.532   1.125  14.766  0.1715  0.2895  0.1647
 4190TIP3   OH233984   2.617   1.275  11.981 -0.2468 -0.2452 -0.3455
 4190TIP3    H133985   2.558   1.262  11.906  1.3370 -1.5176 -1.4401
 4190TIP3    H233986   2.636   1.368  11.981 -1.4318  0.0167 -0.5858
 4191TIP3   OH233987   0.270   3.040  10.641  0.0597 -0.0126  0.2660
 4191TIP3    H133988   0.262   3.117  10.697  0.0720  0.3459 -0.2299
 4191TIP3    H233989   0.252   2.967  10.700  0.3712  0.3416  0.8138
 4192TIP3   OH233990   4.650   2.583  13.303 -0.3095  0.3423  0.0733
 4192TIP3    H133991   4.611   2.563  13.388  0.2603  1.7721  0.7219
 4192TIP3    H233992   4.679   2.499  13.269  0.4636 -0.1483  1.8220
 4193TIP3   OH233993   3.876   5.790   1.719  0.2313  0.1469  0.2350
 4193TIP3    H133994   3.914   5.813   1.634 -0.3350  1.8140  0.4047
 4193TIP3    H233995   3.783   5.775   1.700  0.4657 -1.4734  0.2433
 4194TIP3   OH233996   5.765   3.238   3.521 -0.8056  0.1006 -0.1842
 4194TIP3    H133997   5.703   3.207   3.587  0.6581  0.5192  1.4768
 4194TIP3    H233998   5.759   3.333   3.525 -0.3434  0.1375 -0.2857
 4195TIP3   OH233999   1.538   3.744  12.611 -0.1184 -0.5866  0.1406
 4195TIP3    H134000   1.506   3.799  12.539  1.1082  1.0562  0.8053
 4195TIP3    H234001   1.583   3.804  12.670  1.2700 -2.2977  0.9227
 4196TIP3   OH234002   5.678   4.662   1.320 -1.3564  0.4225  0.3768
 4196TIP3    H134003   5.699   4.752   1.294 -0.3270  0.0583 -0.1353
 4196TIP3    H234004   5.627   4.627   1.247 -1.5587  0.5100  0.4740
 4197TIP3   OH234005   1.264   1.010  14.901 -0.2990 -0.5565  0.5175
 4197TIP3    H134006   1.211   0.997  14.979 -0.2745 -1.8616  0.3525
 4197TIP3    H234007   1.241   0.936  14.844 -0.2066  0.2883 -0.6442
 4198TIP3   OH234008   4.268   4.829   3.830 -0.2392 -0.3464 -0.3382
 4198TIP3    H134009   4.336   4.886   3.866  0.2249 -1.2846  0.3388
 4198TIP3    H234010   4.309   4.787   3.754 -1.1885  1.5661 -1.9923
 4199TIP3   OH234011   5.716   0.425  11.789 -0.2921  0.2342  0.3523
 4199TIP3    H134012   5.684   0.367  11.721  0.0112 -0.0956  0.4893
 4199TIP3    H234013   5.676   0.510  11.769  1.1789  0.6023 -1.2869
 4200TIP3   OH234014   3.752   6.718  15.637  0.0159 -0.1066 -0.1886
 4200TIP3    H134015   3.750   6.662  15.559 -1.1726 -0.2601 -0.0615
 4200TIP3    H234016   3.810   6.790  15.613 -0.2197 -0.2306 -1.1595
 4201TIP3   OH234017   2.586   0.611  15.428 -0.9348 -0.4739  0.3218
 4201TIP3    H134018   2.589   0.555  15.351 -0.4757  1.2848 -1.0186
 4201TIP3    H234019   2.506   0.663  15.416  1.2337  2.8096 -1.3025
 4202TIP3   OH234020   5.414   1.297   1.884  0.2017 -0.4328 -0.2994
 4202TIP3    H134021   5.411   1.209   1.849 -2.7948 -1.0825  1.2506
 4202TIP3    H234022   5.464   1.289   1.965 -2.2005 -1.3883  1.1927
 4203TIP3   OH234023   3.132   1.761  16.959  0.3097 -1.0269  0.3398
 4203TIP3    H134024   3.100   1.682  16.916 -1.8806  0.5415 -1.1870
 4203TIP3    H234025   3.193   1.800  16.896 -1.2134  0.1353 -0.5192
 4204TIP3   OH234026   0.973   5.848  11.252 -0.8512  0.5532  0.2854
 4204TIP3    H134027   1.033   5.826  11.181  0.8941  1.8262  1.2935
 4204TIP3    H234028   0.938   5.763  11.281  0.6277 -0.2502 -0.1998
 4205TIP3   OH234029   4.428   5.275  16.409 -0.1474 -0.1413 -0.2324
 4205TIP3    H134030   4.394   5.190  16.383  0.6443 -0.3383 -0.6433
 4205TIP3    H234031   4.471   5.309  16.331 -0.0400  0.4278  0.0677
 4206TIP3   OH234032   6.545   2.533  14.582 -0.6195  0.0297  0.3407
 4206TIP3    H134033   6.555   2.454  14.529 -0.1996 -0.3980  1.0374
 4206TIP3    H234034   6.451   2.546  14.589 -0.6779  0.3913 -0.9331
 4207TIP3   OH234035   5.302   0.010   3.484  0.0879 -0.3165 -0.3572
 4207TIP3    H134036   5.381   0.053   3.451 -0.3327 -0.3709 -1.4623
 4207TIP3    H234037   5.256   0.078   3.533  1.2585 -0.5279  1.1040
 4208TIP3   OH234038   3.795   3.955  12.093  0.0046  0.2051  0.2398
 4208TIP3    H134039   3.711   3.925  12.058 -0.3962  0.0244  1.3036
 4208TIP3    H234040   3.825   4.021  12.031 -0.3536 -0.5600 -0.7708
 4209TIP3   OH234041   0.665   2.189   0.813  0.5015  0.4490  0.1270
 4209TIP3    H134042   0.749   2.231   0.797 -0.3431  1.8842 -0.7649
 4209TIP3    H234043   0.641   2.216   0.902  1.4222 -0.8334  0.8104
 4210TIP3   OH234044   6.251   2.318  13.957  0.8656 -0.4553 -0.5725
 4210TIP3    H134045   6.276   2.246  13.899 -0.5598 -0.8100 -0.7673
 4210TIP3    H234046   6.212   2.383  13.898  0.2137 -0.4435 -0.1314
 4211TIP3   OH234047   4.778   1.634  13.152 -0.0478 -0.0967 -0.1626
 4211TIP3    H134048   4.872   1.644  13.138 -0.4001  1.7412 -1.5475
 4211TIP3    H234049   4.750   1.718  13.189 -1.2774 -0.2789 -0.6319
 4212TIP3   OH234050   5.095   1.546   2.400  0.2937 -0.0891  0.8257
 4212TIP3    H134051   5.157   1.618   2.412 -0.3081  0.5264  0.3613
 4212TIP3    H234052   5.012   1.590   2.378 -0.4162 -0.8668  1.8532
 4213TIP3   OH234053   3.324   5.149   2.934  0.2033  0.3582  0.2025
 4213TIP3    H134054   3.412   5.173   2.906  0.3956 -0.6688 -0.1496
 4213TIP3    H234055   3.333   5.128   3.027  0.1034  1.2739  0.4248
 4214TIP3   OH234056   6.069   2.700  10.439  0.6530  0.6640  0.3415
 4214TIP3    H134057   5.982   2.683  10.475  0.7641  0.4143  0.4949
 4214TIP3    H234058   6.087   2.625  10.383 -0.2483  1.8713 -1.6638
 4215TIP3   OH234059   5.053   0.340  16.798  0.3029 -0.7634 -0.4827
 4215TIP3    H134060   4.984   0.329  16.732 -0.6377  1.0686  0.1310
 4215TIP3    H234061   5.134   0.348  16.746 -0.4962  1.2834 -1.5075
 4216TIP3   OH234062   3.264   1.390  14.272  0.2073 -0.5606  0.8275
 4216TIP3    H134063   3.255   1.303  14.311  0.6620  0.2273  2.7891
 4216TIP3    H234064   3.350   1.421  14.299  0.0550  0.5080  0.1709
 4217TIP3   OH234065   5.358   4.156   3.982 -0.0088  0.6577 -0.2839
 4217TIP3    H134066   5.296   4.223   4.011 -1.3263 -0.9225  0.6994
 4217TIP3    H234067   5.390   4.116   4.063  0.6921  0.0261 -0.8563
 4218TIP3   OH234068   5.433   0.822  17.402  0.0228 -0.3442 -0.4266
 4218TIP3    H134069   5.344   0.799  17.427  0.7192 -0.6935  1.9541
 4218TIP3    H234070   5.435   0.918  17.406 -0.0328 -0.3682  0.4546
 4219TIP3   OH234071   2.805   5.826  16.490 -0.9234  0.5601  0.0725
 4219TIP3    H134072   2.820   5.907  16.540 -0.9483  0.2299  0.6272
 4219TIP3    H234073   2.847   5.758  16.543  1.6292  0.5529 -1.7821
 4220TIP3   OH234074   5.030   5.446  16.466 -0.3727 -0.7112 -0.1461
 4220TIP3    H134075   4.964   5.509  16.438  1.0441  0.1292 -1.8378
 4220TIP3    H234076   5.075   5.489  16.539 -0.6538 -0.5859 -0.0484
 4221TIP3   OH234077   0.239   2.319  16.565  0.3483 -0.4116  0.3800
 4221TIP3    H134078   0.173   2.387  16.557  1.2574  0.4449 -0.0692
 4221TIP3    H234079   0.201   2.243  16.519  0.1015  0.3984 -0.8128
 4222TIP3   OH234080   5.052   6.085  16.424 -0.1696 -0.6510 -0.0422
 4222TIP3    H134081   5.103   6.152  16.378 -1.6997 -0.6508 -1.8594
 4222TIP3    H234082   5.024   6.128  16.505  1.5040 -0.1952  0.3242
 4223TIP3   OH234083   5.241   5.878   5.542  0.1241 -0.0827 -0.7019
 4223TIP3    H134084   5.232   5.973   5.536  1.2519  0.2864  1.8254
 4223TIP3    H234085   5.160   5.848   5.583  0.1690 -0.0824 -0.6131
 4224TIP3   OH234086   3.315   5.256  13.654  0.1401 -0.4102  0.2205
 4224TIP3    H134087   3.230   5.278  13.691  0.1231 -0.0741 -0.0128
 4224TIP3    H234088   3.378   5.291  13.717  0.1549 -3.2033  1.9397
 4225TIP3   OH234089   1.330   4.497  13.930 -0.1416  0.3525  0.7967
 4225TIP3    H134090   1.303   4.436  13.862  0.7312  0.7604  0.0548
 4225TIP3    H234091   1.353   4.578  13.883  0.0397  0.7946  1.6140
 4226TIP3   OH234092   0.560   6.211  11.084 -0.8869 -0.0959 -0.2174
 4226TIP3    H134093   0.639   6.179  11.042 -0.6310  0.0903  0.1184
 4226TIP3    H234094   0.509   6.133  11.103 -0.7904 -0.2145 -0.4431
 4227TIP3   OH234095   6.660   4.873   0.666  0.3334 -0.1282 -0.0116
 4227TIP3    H134096   6.661   4.949   0.607 -0.6614 -0.7766 -0.8925
 4227TIP3    H234097   6.623   4.907   0.748 -1.2188  0.0955 -0.7809
 4228TIP3   OH234098   0.272   6.217  14.479  0.3917  0.3781 -0.0643
 4228TIP3    H134099   0.208   6.177  14.539  0.5627 -0.2784 -0.3165
 4228TIP3    H234100   0.220   6.278  14.427 -0.1105 -0.4287 -0.5245
 4229TIP3   OH234101   0.123   5.394  17.102  0.9611  0.2766 -0.3571
 4229TIP3    H134102   0.085   5.377  17.188 -0.7892 -0.8244 -1.2725
 4229TIP3    H234103   0.058   5.448  17.058  1.7659  0.7026 -1.0368
 4230TIP3   OH234104   5.804   1.650   3.628  0.2899  0.0159 -0.2254
 4230TIP3    H134105   5.733   1.704   3.662 -0.0131 -0.3275 -0.3014
 4230TIP3    H234106   5.780   1.633   3.537 -0.2426 -1.2470  0.1279
 4231TIP3   OH234107   2.848   1.884   1.844  0.1998 -0.6166  0.0426
 4231TIP3    H134108   2.886   1.956   1.794  1.3831 -0.9658  0.4043
 4231TIP3    H234109   2.828   1.818   1.778 -2.0758  0.4731 -0.4657
 4232TIP3   OH234110   4.782   0.268  14.611  0.2431  0.0084 -0.2733
 4232TIP3    H134111   4.786   0.188  14.559  0.4087  0.2591 -0.6518
 4232TIP3    H234112   4.736   0.242  14.691  1.7340 -0.8796  0.3474
 4233TIP3   OH234113   2.906   0.462  13.200  0.2092  0.5030  0.0351
 4233TIP3    H134114   2.895   0.524  13.128  1.3087 -1.2622 -1.7613
 4233TIP3    H234115   2.832   0.402  13.193 -0.2437  0.9039  1.0695
 4234TIP3   OH234116   0.148   4.541  13.551 -0.6328 -0.6735 -0.1886
 4234TIP3    H134117   0.235   4.535  13.590 -1.0188 -1.1822  0.6170
 4234TIP3    H234118   0.095   4.480  13.602 -2.4214  2.4084  1.8840
 4235TIP3   OH234119   0.441   3.256  13.822  0.6448  0.1553 -0.3050
 4235TIP3    H134120   0.512   3.258  13.758  2.9929  1.6947  2.1537
 4235TIP3    H234121   0.445   3.168  13.861  1.0236  0.1478 -0.3630
 4236TIP3   OH234122   0.975   3.851   4.945 -0.0966 -0.5593 -0.1114
 4236TIP3    H134123   1.018   3.820   4.865  0.5001  0.7851 -0.3407
 4236TIP3    H234124   0.941   3.937   4.922 -0.3408 -0.3564  0.9532
 4237TIP3   OH234125   0.516   5.937   1.250  0.7152 -0.0925 -0.1503
 4237TIP3    H134126   0.523   5.979   1.163 -1.7998  0.3720 -0.1863
 4237TIP3    H234127   0.468   6.000   1.303 -0.1056 -1.4897  0.8179
 4238TIP3   OH234128   0.416   2.918   3.047  0.1069 -0.7123  0.0774
 4238TIP3    H134129   0.377   2.966   2.974  0.1673 -0.4113  0.2422
 4238TIP3    H234130   0.341   2.885   3.097  0.0454  0.6057  0.8846
 4239TIP3   OH234131   4.732   1.739   3.287  0.1751  0.2768  0.0195
 4239TIP3    H134132   4.726   1.833   3.268  2.1076  0.0264 -2.2331
 4239TIP3    H234133   4.664   1.699   3.233 -0.2729  0.3000  0.5521
 4240TIP3   OH234134   4.679   3.470   4.854 -0.3714 -0.1548  0.2055
 4240TIP3    H134135   4.764   3.490   4.815 -0.7535  0.6857 -0.2280
 4240TIP3    H234136   4.617   3.520   4.802 -1.2964 -1.8139 -0.3730
 4241TIP3   OH234137   1.626   3.659  15.649  0.3049  0.5579  0.5000
 4241TIP3    H134138   1.592   3.747  15.637 -0.3582  0.2110 -0.2841
 4241TIP3    H234139   1.556   3.612  15.695  1.3936  0.9048  2.6794
 4242TIP3   OH234140   3.305   5.764   5.559  0.1624  0.3703  0.2951
 4242TIP3    H134141   3.370   5.776   5.629 -1.3501  2.9049  1.4310
 4242TIP3    H234142   3.237   5.829   5.579 -1.4298 -0.3543 -2.3222
 4243TIP3   OH234143   1.031   0.794  16.644  0.1395  0.2360  0.5904
 4243TIP3    H134144   0.946   0.821  16.610 -0.0870 -0.4067  0.6268
 4243TIP3    H234145   1.093   0.812  16.572 -0.1516 -0.0116  0.2726
 4244TIP3   OH234146   3.345   2.391  12.623 -0.1124 -0.0488  0.5304
 4244TIP3    H134147   3.416   2.343  12.665  0.6114  0.1436 -0.4354
 4244TIP3    H234148   3.273   2.329  12.619 -0.2431 -0.0344  2.1323
 4245TIP3   OH234149   3.366   4.017   0.112 -0.0162  0.5164  0.1994
 4245TIP3    H134150   3.385   3.985   0.200  2.9090  0.4982 -0.3253
 4245TIP3    H234151   3.427   3.970   0.056 -2.0345  0.2876 -1.9400
 4246TIP3   OH234152   6.008   4.071  16.534 -0.4088  0.0518  0.0513
 4246TIP3    H134153   6.003   4.030  16.447 -0.1923  0.3600 -0.1072
 4246TIP3    H234154   6.089   4.122  16.532  0.1823 -0.8217  0.8173
 4247TIP3   OH234155   3.162   0.987  11.438 -0.4570 -0.2558  0.3562
 4247TIP3    H134156   3.075   0.963  11.469 -0.4373  0.1225  0.7069
 4247TIP3    H234157   3.158   0.973  11.343 -0.8902 -0.2741  0.3749
 4248TIP3   OH234158   3.111   4.524   3.503  0.4093 -0.3458 -0.1253
 4248TIP3    H134159   3.092   4.430   3.510  2.5451 -0.7354  1.6841
 4248TIP3    H234160   3.170   4.531   3.428  0.5048 -0.4987 -0.0648
 4249TIP3   OH234161   2.773   3.950  12.566 -0.1287  0.1661  0.4512
 4249TIP3    H134162   2.835   3.948  12.492 -1.9823 -1.1262 -1.1706
 4249TIP3    H234163   2.788   3.867  12.611  0.2724  0.4821  0.9050
 4250TIP3   OH234164   4.927   2.423  11.691  0.5087  0.0830 -0.1608
 4250TIP3    H134165   4.904   2.507  11.653 -1.1406  0.5807  1.7284
 4250TIP3    H234166   5.009   2.398  11.649  0.7057  2.3150 -1.2126
 4251TIP3   OH234167   5.916   0.577  14.389  0.0305 -0.0300 -0.3341
 4251TIP3    H134168   5.897   0.616  14.474  1.4791  1.4775 -0.6670
 4251TIP3    H234169   5.974   0.504  14.409  0.5271  0.4412 -0.0364
 4252TIP3   OH234170   0.118   4.781  14.000 -0.1311  0.0938 -0.0467
 4252TIP3    H134171   0.158   4.694  14.008 -1.6124 -0.7465 -1.3719
 4252TIP3    H234172   0.117   4.799  13.906 -2.5260  0.2038 -0.0638
 4253TIP3   OH234173   4.004   2.444   3.605 -0.0594  0.1719  0.2181
 4253TIP3    H134174   3.973   2.381   3.670  0.7163  1.5544  2.0500
 4253TIP3    H234175   4.081   2.403   3.566 -0.9789 -0.9987 -0.3991
 4254TIP3   OH234176   0.134   3.228  11.048 -0.0852  0.3338  0.1805
 4254TIP3    H134177   0.156   3.214  11.140  0.1501  1.1090  0.2427
 4254TIP3    H234178   0.218   3.242  11.004 -0.3261  2.3238  0.2605
 4255TIP3   OH234179   5.060   1.298  17.131  0.7164 -0.8543 -0.0552
 4255TIP3    H134180   5.046   1.254  17.214 -0.5821 -3.4058 -1.5174
 4255TIP3    H234181   4.985   1.356  17.121  0.3242 -1.3314  0.0943
 4256TIP3   OH234182   5.852   6.242  14.297  0.2502 -0.1123  0.4695
 4256TIP3    H134183   5.768   6.268  14.335 -0.8528  0.2071 -1.9701
 4256TIP3    H234184   5.913   6.311  14.322 -1.0599  1.4627 -0.4808
 4257TIP3   OH234185   6.715   6.630   4.868 -0.2349  0.0643  0.4019
 4257TIP3    H134186   6.770   6.697   4.826 -0.0624 -0.0440  0.4562
 4257TIP3    H234187   6.744   6.548   4.830 -1.1741  0.1111 -0.4658
 4258TIP3   OH234188   5.966   0.668   4.536 -0.2292 -0.3413  0.0689
 4258TIP3    H134189   5.933   0.651   4.624  0.6698 -0.7683  0.3341
 4258TIP3    H234190   5.953   0.585   4.489  1.0169 -0.7131  0.3585
 4259TIP3   OH234191   4.629   0.060   2.636 -0.2774  0.0355  0.3032
 4259TIP3    H134192   4.617   0.004   2.713  0.3210  0.7660  0.9391
 4259TIP3    H234193   4.662   0.001   2.568 -2.1847 -0.9226  0.1307
 4260TIP3   OH234194   5.535   0.826  12.880 -0.9174 -0.0779 -0.7316
 4260TIP3    H134195   5.441   0.828  12.859 -0.6866  0.8387 -1.7817
 4260TIP3    H234196   5.540   0.850  12.972 -1.7327 -0.4690 -0.5750
 4261TIP3   OH234197   2.648   0.725   4.087  0.1125  0.0836  0.3479
 4261TIP3    H134198   2.557   0.709   4.060 -0.1208 -2.8373  2.3066
 4261TIP3    H234199   2.700   0.665   4.033  0.1118 -2.4167  2.8208
 4262TIP3   OH234200   4.632   2.078  15.064 -0.0983 -0.2688  0.2038
 4262TIP3    H134201   4.604   2.077  15.155 -0.2454 -1.4425  0.1593
 4262TIP3    H234202   4.636   1.986  15.038 -0.2152  0.0416 -1.0185
 4263TIP3   OH234203   2.102   1.627  11.154  0.7202 -0.2340 -0.1095
 4263TIP3    H134204   2.049   1.628  11.234 -0.2891 -1.5305 -0.7251
 4263TIP3    H234205   2.039   1.618  11.083  1.6508  0.1672 -1.0199
 4264TIP3   OH234206   4.692   5.917   4.397 -0.2146  0.5707  0.0023
 4264TIP3    H134207   4.776   5.962   4.400  0.0844 -0.0490  1.3287
 4264TIP3    H234208   4.715   5.824   4.392 -0.8246  0.4611 -2.2430
 4265TIP3   OH234209   0.209   1.308  12.030  0.1391  0.1164 -0.2948
 4265TIP3    H134210   0.165   1.359  12.097 -1.4101  0.5063 -1.5347
 4265TIP3    H234211   0.184   1.349  11.947 -0.2438 -1.9176 -1.2759
 4266TIP3   OH234212   0.988   3.092  11.334 -0.4097  0.1205  0.0712
 4266TIP3    H134213   1.035   3.154  11.279  1.9347 -0.5927  1.1629
 4266TIP3    H234214   0.981   3.135  11.419  0.3483 -0.6972  0.5617
 4267TIP3   OH234215   4.271   0.087   2.656 -0.2039 -0.1307  0.0666
 4267TIP3    H134216   4.259  -0.001   2.619  1.1599 -1.0282  1.6567
 4267TIP3    H234217   4.308   0.138   2.584  3.2586 -2.0604  0.2605
 4268TIP3   OH234218   4.273   2.056  16.758 -0.3868  0.5715 -0.6565
 4268TIP3    H134219   4.251   2.016  16.674 -0.6819  0.2940 -0.4511
 4268TIP3    H234220   4.332   1.992  16.799 -1.9145 -0.3276  0.2506
 4269TIP3   OH234221   3.075   0.773   2.248 -0.4183 -0.4068 -0.1854
 4269TIP3    H134222   3.099   0.681   2.238 -1.0140 -0.5504 -0.3501
 4269TIP3    H234223   3.025   0.776   2.329  1.0884  0.0878  0.7680
 4270TIP3   OH234224   4.155   5.361  12.536 -0.4905 -0.2683 -0.9475
 4270TIP3    H134225   4.162   5.329  12.626  0.9113  2.3258 -0.0149
 4270TIP3    H234226   4.148   5.456  12.545  0.7065  0.1656 -3.6048
 4271TIP3   OH234227   1.107   4.784   1.179  0.2788  0.4779 -0.4123
 4271TIP3    H134228   1.079   4.825   1.261 -0.2336  0.3233 -0.5019
 4271TIP3    H234229   1.116   4.857   1.118 -1.3059  0.4188 -0.7613
 4272TIP3   OH234230   5.293   6.490   1.246 -0.0424 -0.4851 -0.0743
 4272TIP3    H134231   5.275   6.483   1.153 -1.3135 -0.7744  0.1738
 4272TIP3    H234232   5.372   6.545   1.252 -0.9040  0.9399 -1.2373
 4273TIP3   OH234233   2.952   2.100  12.459 -0.1230 -0.6805  0.5898
 4273TIP3    H134234   2.868   2.140  12.482  0.3312  0.3037  0.6101
 4273TIP3    H234235   2.943   2.009  12.484 -2.4536 -1.5093 -2.5693
 4274TIP3   OH234236   2.788   6.657   2.130 -0.1499  0.1949 -0.2115
 4274TIP3    H134237   2.741   6.628   2.052 -0.2710  1.1400 -0.5051
 4274TIP3    H234238   2.719   6.688   2.189  0.0131  0.4960 -0.1760
 4275TIP3   OH234239   2.654   4.171  12.610 -0.4109 -0.0089  0.8241
 4275TIP3    H134240   2.669   4.185  12.704  1.0324 -0.2640  0.6481
 4275TIP3    H234241   2.714   4.100  12.586  0.6238  1.2847 -0.6641
 4276TIP3   OH234242   0.035   3.225   5.633 -0.2163  0.1069 -0.0614
 4276TIP3    H134243   0.061   3.195   5.720  1.6376 -1.9300 -1.2248
 4276TIP3    H234244   0.094   3.298   5.614  2.0714 -1.8560 -1.0207
 4277TIP3   OH234245   2.403   2.039   2.496 -0.6558  0.2681 -0.9236
 4277TIP3    H134246   2.435   2.078   2.415 -0.6788  0.2715 -0.9309
 4277TIP3    H234247   2.375   2.113   2.549 -2.7568  0.1523 -1.7899
 4278TIP3   OH234248   5.780   4.845  12.342  0.5172  0.2036 -0.2441
 4278TIP3    H134249   5.853   4.805  12.390 -0.5860  0.4919  1.7685
 4278TIP3    H234250   5.809   4.934  12.323  0.5029  0.5218  1.1043
 4279TIP3   OH234251   1.067   6.478  15.815 -0.2330  0.4760  0.1679
 4279TIP3    H134252   1.074   6.421  15.738 -1.4680  0.1574  0.2672
 4279TIP3    H234253   1.141   6.537  15.808 -0.1734  0.2817 -1.1307
 4280TIP3   OH234254   5.868   5.647   1.755  0.5100  0.4241  0.7830
 4280TIP3    H134255   5.880   5.651   1.850 -1.6235 -0.2866  1.1438
 4280TIP3    H234256   5.898   5.560   1.731  0.5433  0.4087  0.8771
 4281TIP3   OH234257   0.631   4.566   0.506  0.4695  0.5676  0.3680
 4281TIP3    H134258   0.673   4.651   0.515  1.0160  0.1733  1.8120
 4281TIP3    H234259   0.626   4.532   0.595  1.2471 -1.3821 -0.2834
 4282TIP3   OH234260   4.263   6.608  13.004 -0.5939 -0.2834 -0.1973
 4282TIP3    H134261   4.187   6.659  12.976 -1.2051 -0.9408  0.2394
 4282TIP3    H234262   4.324   6.613  12.931 -0.8964  0.5560 -0.4047
 4283TIP3   OH234263   4.026   4.716  16.579 -0.0716  0.2261 -0.1599
 4283TIP3    H134264   4.081   4.741  16.653 -1.5487  0.3985  0.9156
 4283TIP3    H234265   3.949   4.773  16.585 -0.1984  0.3079 -1.8939
 4284TIP3   OH234266   4.763   0.540   5.763 -0.6755 -0.3344 -0.2714
 4284TIP3    H134267   4.682   0.591   5.757  0.0191  0.9114  0.4673
 4284TIP3    H234268   4.805   0.552   5.678  0.1584  1.5832  0.3475
 4285TIP3   OH234269   2.029   2.812   2.597  0.3531 -0.2381  0.0369
 4285TIP3    H134270   2.054   2.722   2.614  0.2003 -0.5598 -1.3395
 4285TIP3    H234271   2.110   2.863   2.610  0.8289 -0.7832 -0.7669
 4286TIP3   OH234272   4.703   1.586   1.023 -0.0489  0.1661 -0.1838
 4286TIP3    H134273   4.783   1.551   0.983  0.2267  0.0935  0.4159
 4286TIP3    H234274   4.729   1.672   1.057 -0.8541  1.2274 -2.1077
 4287TIP3   OH234275   2.816   5.745   0.427 -0.0291  0.7154  0.1292
 4287TIP3    H134276   2.777   5.717   0.509  1.4309 -0.6557  0.4053
 4287TIP3    H234277   2.751   5.804   0.388 -2.1075 -1.0106  0.7996
 4288TIP3   OH234278   1.219   1.852  11.984 -0.0235 -0.1619 -0.2975
 4288TIP3    H134279   1.296   1.903  11.958 -0.1716  0.7698  1.0206
 4288TIP3    H234280   1.185   1.897  12.062 -2.0571 -0.3843 -0.9839
 4289TIP3   OH234281   4.925   1.002  14.091  0.0553  0.1874 -0.1931
 4289TIP3    H134282   4.970   0.976  14.172 -1.3702  0.4363  0.7352
 4289TIP3    H234283   4.932   0.926  14.034  0.6077 -0.2126  0.3973
 4290TIP3   OH234284   2.130   3.722   5.851 -0.2625  0.3010  0.0764
 4290TIP3    H134285   2.130   3.817   5.848 -2.7596  0.3732  0.4404
 4290TIP3    H234286   2.097   3.700   5.938  3.7246 -1.0305  1.4916
 4291TIP3   OH234287   4.861   6.526   5.491  0.2144 -0.1397 -0.1299
 4291TIP3    H134288   4.848   6.431   5.487  0.4062 -0.2211  1.0106
 4291TIP3    H234289   4.938   6.538   5.546  1.6495  0.6076 -2.1550
 4292TIP3   OH234290   4.679   1.067  15.053 -0.1270 -0.3758 -0.0008
 4292TIP3    H134291   4.727   1.111  15.124 -0.3118 -0.9208  0.4717
 4292TIP3    H234292   4.655   1.138  14.993  1.8049 -0.1683 -0.5825
 4293TIP3   OH234293   2.536   5.545   1.320  0.2679  0.3295  0.0225
 4293TIP3    H134294   2.442   5.531   1.310  0.2482  0.2385  0.3480
 4293TIP3    H234295   2.550   5.554   1.414  0.5504  0.5884 -0.0418
 4294TIP3   OH234296   0.217   3.751   5.224 -0.1652 -0.0004  0.3209
 4294TIP3    H134297   0.161   3.757   5.147 -1.9914 -0.4888  1.5388
 4294TIP3    H234298   0.249   3.840   5.238  1.9526 -0.2485 -2.1552
 4295TIP3   OH234299   6.606   2.913   4.725 -0.5210  0.2118 -0.0277
 4295TIP3    H134300   6.598   2.818   4.738  2.2513 -0.0149  0.6916
 4295TIP3    H234301   6.568   2.928   4.638 -0.3576 -1.6847 -0.4859
 4296TIP3   OH234302   3.174   5.420   3.215  0.1842 -0.3851 -0.3209
 4296TIP3    H134303   3.190   5.447   3.124 -0.1115  0.3694 -0.1538
 4296TIP3    H234304   3.238   5.350   3.231  2.6701  1.8293  0.0193
 4297TIP3   OH234305   5.672   3.234  14.848 -0.1993  0.4691  0.0839
 4297TIP3    H134306   5.669   3.302  14.915  0.2114  0.4113  0.1648
 4297TIP3    H234307   5.597   3.252  14.792 -0.6095  0.4602  0.6164
 4298TIP3   OH234308   6.065   5.690   4.116  0.4876 -0.2351 -0.1864
 4298TIP3    H134309   6.111   5.681   4.032  0.5090  0.7216 -0.2930
 4298TIP3    H234310   6.109   5.628   4.174 -0.5977 -2.1475 -1.2977
 4299TIP3   OH234311   4.150   2.694   3.581  0.4249  0.1525  0.2447
 4299TIP3    H134312   4.089   2.622   3.565  0.2503 -0.3769  2.9118
 4299TIP3    H234313   4.094   2.770   3.594  0.2919 -0.2577  2.3118
 4300TIP3   OH234314   4.651   1.227   1.079 -0.1126 -0.3190  0.0188
 4300TIP3    H134315   4.599   1.272   1.013 -0.5552  1.6310  1.5944
 4300TIP3    H234316   4.674   1.295   1.142  0.9256 -1.9401  1.4946
 4301TIP3   OH234317   3.703   4.327   5.258 -0.4909  0.0566  0.3047
 4301TIP3    H134318   3.696   4.422   5.259  0.6680  0.1510  1.5264
 4301TIP3    H234319   3.618   4.297   5.224  0.0258  1.5574 -2.6767
 4302TIP3   OH234320   0.421   4.200  11.373 -0.0462 -0.1700 -0.1075
 4302TIP3    H134321   0.467   4.281  11.351 -1.8001  0.5547 -1.2824
 4302TIP3    H234322   0.354   4.191  11.305 -1.8577 -1.0030  1.6804
 4303TIP3   OH234323   1.896   0.046  17.381 -0.3733  0.2147 -0.6127
 4303TIP3    H134324   1.898   0.004  17.467 -0.5651  1.3202 -0.0560
 4303TIP3    H234325   1.898   0.140  17.399  0.2328  0.4662 -1.8427
 4304TIP3   OH234326   4.280   4.962   0.135 -0.4996 -0.9245  0.0283
 4304TIP3    H134327   4.302   4.869   0.146 -1.4933 -1.0938  0.6641
 4304TIP3    H234328   4.264   4.993   0.224  1.7559  0.3823  0.0541
 4305TIP3   OH234329   3.966   1.808  13.674 -0.0076 -0.1667 -0.1226
 4305TIP3    H134330   3.991   1.900  13.678 -3.0599  0.7846  0.3870
 4305TIP3    H234331   3.906   1.803  13.600 -2.1889 -0.9899  1.5729
 4306TIP3   OH234332   0.937   0.488  14.267  0.4853  0.4828  1.0293
 4306TIP3    H134333   0.999   0.416  14.263  0.3182  0.3777 -0.0705
 4306TIP3    H234334   0.864   0.454  14.320  0.5221 -0.0640  0.7375
 4307TIP3   OH234335   5.697   0.809   5.555 -0.0324 -0.1521  0.4783
 4307TIP3    H134336   5.786   0.828   5.586 -0.8087 -0.3050  3.0109
 4307TIP3    H234337   5.649   0.891   5.566 -0.4635 -0.3618  0.1760
 4308TIP3   OH234338   1.067   0.743  16.913  0.0078  0.7122 -0.1827
 4308TIP3    H134339   1.067   0.751  16.817 -1.7688  2.5368 -0.0865
 4308TIP3    H234340   1.159   0.725  16.935  0.2380 -1.0626 -2.2830
 4309TIP3   OH234341   5.426   4.640  14.593 -0.3381  0.6985 -0.0129
 4309TIP3    H134342   5.508   4.673  14.630  1.4094 -3.1807  0.1143
 4309TIP3    H234343   5.449   4.608  14.506 -1.2717 -1.7595  0.5583
 4310TIP3   OH234344   0.592   1.461   5.937 -0.3927  0.4999  0.1136
 4310TIP3    H134345   0.582   1.430   6.027 -1.5609  2.9193  0.9066
 4310TIP3    H234346   0.619   1.552   5.946  1.3483  0.2733 -2.0435
 4311TIP3   OH234347   5.476   4.933  15.276 -0.1660  0.0070  0.5577
 4311TIP3    H134348   5.462   4.861  15.337  1.1054  0.1227  1.0045
 4311TIP3    H234349   5.502   5.007  15.331  0.1296  0.3573 -0.0414
 4312TIP3   OH234350   3.944   5.576  14.520 -0.4895  0.6443 -0.0684
 4312TIP3    H134351   3.926   5.519  14.444 -2.2330 -0.3521  1.0254
 4312TIP3    H234352   4.007   5.527  14.572 -1.2964  0.0749  0.4088
 4313TIP3   OH234353   5.963   4.499   5.898  0.3440  0.2697 -0.1402
 4313TIP3    H134354   5.899   4.507   5.969  1.2677  0.6429  0.6883
 4313TIP3    H234355   6.032   4.562   5.922  0.4304  0.7808 -1.6525
 4314TIP3   OH234356   5.054   6.595  14.431  0.2303  0.2943 -0.0879
 4314TIP3    H134357   4.982   6.564  14.486  0.1965  0.6610  0.0795
 4314TIP3    H234358   5.014   6.615  14.347  0.2844 -0.2839 -0.2579
 4315TIP3   OH234359   5.306   1.336   1.620  0.1689 -0.1541 -0.4874
 4315TIP3    H134360   5.345   1.306   1.702 -0.7175 -0.7041 -0.2561
 4315TIP3    H234361   5.350   1.284   1.553  0.0705 -0.5399 -0.2568
 4316TIP3   OH234362   4.767   4.843  16.723  0.1306  0.0163  0.4442
 4316TIP3    H134363   4.812   4.872  16.803  0.3971 -0.2100  0.3769
 4316TIP3    H234364   4.687   4.897  16.719  0.9931  1.3160 -0.0907
 4317TIP3   OH234365   4.271   5.995  12.750 -1.0621 -0.4389 -0.0005
 4317TIP3    H134366   4.304   5.905  12.753 -1.4943 -0.5688  1.1218
 4317TIP3    H234367   4.176   5.986  12.751 -1.1471  0.0541  2.7118
 4318TIP3   OH234368   3.118   2.340  14.707  0.3969 -0.1900 -0.5491
 4318TIP3    H134369   3.134   2.272  14.773 -0.6959  0.1498  0.0977
 4318TIP3    H234370   3.023   2.335  14.691  0.1582  1.6743  0.0748
 4319TIP3   OH234371   1.976   3.853  11.828 -0.4819 -0.3595 -0.1710
 4319TIP3    H134372   1.953   3.767  11.793 -0.5781 -0.0052 -1.0201
 4319TIP3    H234373   1.899   3.907  11.809 -0.8696 -0.3404  1.3327
 4320TIP3   OH234374   6.006   1.990  13.914  0.3743  0.2958  0.1003
 4320TIP3    H134375   6.065   2.031  13.850  0.2494 -0.2188 -0.3441
 4320TIP3    H234376   5.981   1.907  13.874  0.8491 -0.3579  1.1192
 4321TIP3   OH234377   6.208   4.146   0.304 -0.0303 -0.0766 -0.1021
 4321TIP3    H134378   6.169   4.070   0.347 -1.0538  0.6055  0.2209
 4321TIP3    H234379   6.180   4.140   0.213  1.3109 -0.9808 -0.4927
 4322TIP3   OH234380   2.791   2.518   4.443  0.4779 -0.3576  0.3252
 4322TIP3    H134381   2.871   2.490   4.399 -0.5217 -1.3391 -0.9485
 4322TIP3    H234382   2.753   2.437   4.477  0.5036  0.2169  1.7904
 4323TIP3   OH234383   4.482   4.990   1.738  0.8129 -0.1441 -0.2537
 4323TIP3    H134384   4.489   4.991   1.834  0.6098 -0.1441 -0.2387
 4323TIP3    H234385   4.462   4.899   1.716 -1.3777  0.2421 -0.1264
 4324TIP3   OH234386   5.679   6.087   4.472  0.4219  0.9183 -0.1399
 4324TIP3    H134387   5.636   6.009   4.436 -0.8390  1.7746 -0.5662
 4324TIP3    H234388   5.690   6.068   4.565 -2.4269  1.2632  0.3683
 4325TIP3   OH234389   6.570   2.828   0.714 -0.0456  0.0849 -0.6501
 4325TIP3    H134390   6.631   2.759   0.690  0.2547  1.0522 -2.9078
 4325TIP3    H234391   6.618   2.909   0.697 -0.4834  0.9150  1.6640
 4326TIP3   OH234392   5.468   1.994   1.365 -0.5544  0.3561  0.1815
 4326TIP3    H134393   5.558   1.961   1.353 -1.4330 -1.9855 -0.5974
 4326TIP3    H234394   5.453   1.987   1.459  0.0098  0.5475  0.2919
 4327TIP3   OH234395   2.169   1.126  12.813 -0.2871  0.5517 -0.4431
 4327TIP3    H134396   2.089   1.176  12.803 -0.7435 -0.0651  0.0360
 4327TIP3    H234397   2.145   1.037  12.788  0.0891  0.2331  0.2923
 4328TIP3   OH234398   5.515   4.532   5.439  0.4519 -0.5828  0.7886
 4328TIP3    H134399   5.469   4.596   5.494 -0.6982 -0.5854 -0.1316
 4328TIP3    H234400   5.447   4.497   5.381  1.6330 -0.4709 -0.7368
 4329TIP3   OH234401   4.345   0.200  12.510 -0.0421 -0.3121 -0.7181
 4329TIP3    H134402   4.332   0.136  12.580  0.1886  1.3459  0.9165
 4329TIP3    H234403   4.294   0.165  12.436  0.3489 -2.5230 -0.0381
 4330TIP3   OH234404   5.550   1.218  14.938  0.2101  0.1476  0.6091
 4330TIP3    H134405   5.498   1.248  14.863  0.3513  1.3490  0.9670
 4330TIP3    H234406   5.628   1.274  14.936 -1.1422  2.4028  3.3866
 4331TIP3   OH234407   3.431   2.428   0.907  0.3945  0.4286  0.6253
 4331TIP3    H134408   3.394   2.341   0.898 -1.7205  1.3632 -0.6148
 4331TIP3    H234409   3.404   2.474   0.827 -1.3778  3.1399  2.5964
 4332TIP3   OH234410   6.415   5.803   2.170 -0.2887  0.4764 -0.7458
 4332TIP3    H134411   6.501   5.844   2.179 -1.6016  3.1479  0.7535
 4332TIP3    H234412   6.388   5.826   2.081 -0.8509  2.8129 -0.0567
 4333TIP3   OH234413   6.464   5.788  16.717 -0.0802  0.0481 -0.5126
 4333TIP3    H134414   6.384   5.798  16.665  0.5614  0.4061 -1.4496
 4333TIP3    H234415   6.532   5.768  16.653  0.6443  0.0512  0.2401
 4334TIP3   OH234416   2.734   3.869   1.831  0.2125  0.2599  0.0932
 4334TIP3    H134417   2.727   3.823   1.747  0.1533  1.7540 -0.7593
 4334TIP3    H234418   2.815   3.837   1.870  0.0348 -0.7529 -0.3452
 4335TIP3   OH234419   4.648   4.565   5.927 -0.2145 -0.1298 -0.6384
 4335TIP3    H134420   4.736   4.528   5.922 -0.1661 -0.5101  1.7887
 4335TIP3    H234421   4.642   4.601   6.016 -2.2771  0.5153 -0.9809
 4336TIP3   OH234422   1.703   6.408   4.789  0.2328  0.0859  0.1989
 4336TIP3    H134423   1.640   6.478   4.769 -0.3203 -0.4220  0.1261
 4336TIP3    H234424   1.667   6.365   4.866 -0.0199 -0.8075 -0.4025
 4337TIP3   OH234425   0.227   1.944   2.398  0.2424 -0.4997 -0.2630
 4337TIP3    H134426   0.311   1.919   2.437  1.3657 -0.0650 -2.2822
 4337TIP3    H234427   0.168   1.872   2.419  0.3979  0.1657  3.1283
 4338TIP3   OH234428   0.696   3.535   2.682  0.0522 -0.0168  0.9257
 4338TIP3    H134429   0.696   3.543   2.587 -1.4278  0.1522  0.9125
 4338TIP3    H234430   0.693   3.626   2.714 -1.1755 -0.0989  1.0832
 4339TIP3   OH234431   0.181   5.386   2.927 -0.3770  0.1688 -0.3413
 4339TIP3    H134432   0.200   5.464   2.875 -1.4213  1.1036  0.6304
 4339TIP3    H234433   0.249   5.384   2.994 -1.0039  0.9274  0.3422
 4340TIP3   OH234434   0.194   5.132  16.998  0.0723  0.6963  0.5701
 4340TIP3    H134435   0.173   5.221  17.026 -1.5800  0.0250  1.5721
 4340TIP3    H234436   0.141   5.119  16.919 -0.2367  0.3693  0.8279
 4341TIP3   OH234437   5.325   0.930  14.415 -0.2320 -0.0923  0.1476
 4341TIP3    H134438   5.312   1.025  14.425  0.1883  0.1480 -1.3330
 4341TIP3    H234439   5.331   0.917  14.321 -1.2281 -1.7447  0.2870
 4342TIP3   OH234440   5.993   4.246  13.696  0.0643  0.4351 -0.1883
 4342TIP3    H134441   5.912   4.294  13.717  0.6460  0.9893  0.8985
 4342TIP3    H234442   6.058   4.315  13.682  0.7497 -0.0213  0.6820
 4343TIP3   OH234443   4.710   1.312  15.464 -0.3215 -0.1218  0.2437
 4343TIP3    H134444   4.772   1.356  15.521  0.9337  0.0020 -1.1681
 4343TIP3    H234445   4.638   1.287  15.522  0.4334  0.8825  1.6720
 4344TIP3   OH234446   2.201   0.142  12.040 -0.4255 -0.3023  0.7434
 4344TIP3    H134447   2.164   0.203  11.976 -0.5726 -0.4652  0.6715
 4344TIP3    H234448   2.177   0.056  12.006 -0.3599 -0.3938  0.9312
 4345TIP3   OH234449   4.290   1.800   0.854  0.1694 -0.4532  0.3131
 4345TIP3    H134450   4.292   1.816   0.949  0.3844 -0.2173  0.2670
 4345TIP3    H234451   4.320   1.709   0.845  0.0001 -0.5279  0.4823
 4346TIP3   OH234452   3.995   3.556  11.682  0.4536 -0.1609  0.3793
 4346TIP3    H134453   4.051   3.565  11.605 -1.6013  0.5686 -1.1398
 4346TIP3    H234454   4.055   3.538  11.754  2.8272  2.4738 -0.7320
 4347TIP3   OH234455   1.878   3.847   2.613  0.3361  0.2895  0.5637
 4347TIP3    H134456   1.826   3.767   2.618  1.6612 -0.7235 -0.8860
 4347TIP3    H234457   1.817   3.914   2.581 -0.2056 -0.7630 -0.6800
 4348TIP3   OH234458   1.522   5.727   4.752 -0.3594 -0.2543  0.1414
 4348TIP3    H134459   1.556   5.638   4.758 -0.7644 -0.5708 -1.7190
 4348TIP3    H234460   1.448   5.729   4.813 -0.4108 -1.2164  0.1210
 4349TIP3   OH234461   3.831   6.054   0.605  0.4187 -0.1951  0.1657
 4349TIP3    H134462   3.857   6.021   0.691 -0.3341  0.5045  0.6770
 4349TIP3    H234463   3.905   6.108   0.577 -0.2157  1.3966  1.3989
 4350TIP3   OH234464   0.510   5.763   6.022  0.0632  0.1597 -0.0799
 4350TIP3    H134465   0.510   5.697   6.092  0.7936  0.4928  0.2380
 4350TIP3    H234466   0.602   5.780   6.004 -0.1164  0.3859 -0.8458
 4351TIP3   OH234467   2.543   1.811  16.776  0.3491  0.2952  0.3923
 4351TIP3    H134468   2.638   1.822  16.779  0.3649  0.8495 -1.2516
 4351TIP3    H234469   2.530   1.720  16.749  0.4395  0.4529 -0.2005
 4352TIP3   OH234470   2.873   6.588  10.676  0.1788 -0.3729 -0.3587
 4352TIP3    H134471   2.933   6.532  10.725  0.7374 -0.5745 -1.2365
 4352TIP3    H234472   2.797   6.533  10.660 -0.5203  0.0669  1.2565
 4353TIP3   OH234473   0.785   2.025   6.361 -0.2349  0.0088  0.6344
 4353TIP3    H134474   0.757   1.942   6.399  1.8637 -1.2359 -0.3680
 4353TIP3    H234475   0.774   2.088   6.432 -0.0986 -1.4985  2.0701
 4354TIP3   OH234476   2.192   1.993   1.097  0.0523  0.3910 -0.4033
 4354TIP3    H134477   2.230   1.909   1.120  0.4622  0.1854 -1.7506
 4354TIP3    H234478   2.102   1.989   1.130  0.5081  0.0347  0.8727
 4355TIP3   OH234479   0.149   2.130   0.838  0.2157 -0.1064 -0.6002
 4355TIP3    H134480   0.245   2.127   0.837  0.2437  0.6528 -0.6356
 4355TIP3    H234481   0.123   2.038   0.840  0.9534 -0.3075  0.3085
 4356TIP3   OH234482   0.689   1.207  11.237  0.1325  0.4970 -0.1409
 4356TIP3    H134483   0.603   1.242  11.213 -0.0776 -0.2213 -0.4623
 4356TIP3    H234484   0.681   1.113  11.222  1.0898  0.4686 -0.5049
 4357TIP3   OH234485   0.853   3.629   1.171 -0.7221 -0.6297 -0.6957
 4357TIP3    H134486   0.920   3.667   1.114 -0.1160 -0.2876  0.2251
 4357TIP3    H234487   0.863   3.676   1.254 -2.0220 -0.6627 -0.5035
 4358TIP3   OH234488   0.668   2.472  17.278 -0.6104 -0.1699  0.2386
 4358TIP3    H134489   0.690   2.559  17.245 -2.5149 -0.0249 -0.7482
 4358TIP3    H234490   0.643   2.487  17.369 -0.1206  0.1697  0.3242
 4359TIP3   OH234491   5.557   0.701  15.486 -0.2580  0.1712 -0.2385
 4359TIP3    H134492   5.520   0.661  15.407 -0.2406 -1.1306  0.3803
 4359TIP3    H234493   5.483   0.706  15.547 -0.2085  0.9112 -0.2342
 4360TIP3   OH234494   5.806   3.241  10.937 -0.6155 -0.2564  0.2012
 4360TIP3    H134495   5.777   3.286  10.857 -0.5831 -1.0061 -0.2375
 4360TIP3    H234496   5.888   3.285  10.960 -1.6419  1.3452  0.9989
 4361TIP3   OH234497   1.592   5.025  11.528  0.5902  0.0024  0.3290
 4361TIP3    H134498   1.680   4.989  11.536  1.2852  1.5877  0.1134
 4361TIP3    H234499   1.569   5.012  11.436  0.4337 -0.7101  0.4554
 4362TIP3   OH234500   5.084   2.179   1.977 -0.4259  0.2363 -0.0737
 4362TIP3    H134501   5.088   2.190   2.072  1.3039 -0.5599 -0.0085
 4362TIP3    H234502   5.094   2.268   1.943 -2.7350  0.7482  0.4621
 4363TIP3   OH234503   1.355   2.723   5.848  0.5196 -0.3073 -0.7812
 4363TIP3    H134504   1.360   2.739   5.942  0.7878  0.1564 -0.8733
 4363TIP3    H234505   1.399   2.639   5.836  0.2562 -0.4953 -0.4631
 4364TIP3   OH234506   3.304   0.818   3.836 -0.1145  0.3152  0.2825
 4364TIP3    H134507   3.355   0.746   3.799 -0.8553  0.4271 -1.0215
 4364TIP3    H234508   3.364   0.861   3.898  0.3782 -1.3221  0.9940
 4365TIP3   OH234509   3.806   3.062   3.109  0.3414 -0.4046  0.1458
 4365TIP3    H134510   3.793   3.120   3.034 -1.8550 -0.3186  0.5490
 4365TIP3    H234511   3.799   3.120   3.185  2.2282 -0.5502  0.5006
 4366TIP3   OH234512   3.259   2.325  17.038 -0.0721 -0.1065 -0.5274
 4366TIP3    H134513   3.257   2.346  16.944 -3.3035 -0.4830 -0.6353
 4366TIP3    H234514   3.168   2.312  17.062  0.8728 -4.8439  1.6234
 4367TIP3   OH234515   3.041   2.691   1.749  0.3081 -0.8798 -0.3274
 4367TIP3    H134516   3.080   2.709   1.835  0.1288  0.1817 -0.4590
 4367TIP3    H234517   3.107   2.637   1.705  0.7067 -0.8568  0.2181
 4368TIP3   OH234518   2.238   6.610  13.282 -0.4923  0.2434  0.4504
 4368TIP3    H134519   2.192   6.620  13.365 -0.9406  1.0926  0.1064
 4368TIP3    H234520   2.278   6.695  13.266 -0.3529  0.0671 -0.1716
 4369TIP3   OH234521   1.022   1.046   6.873 -0.1567  0.2080  0.0503
 4369TIP3    H134522   1.086   1.011   6.935  1.2355  0.9682 -0.9011
 4369TIP3    H234523   1.017   1.139   6.895 -0.9171  0.1575  0.0921
 4370TIP3   OH234524   0.548   0.817   1.576  0.1785  0.1538  0.6929
 4370TIP3    H134525   0.492   0.739   1.576 -1.1846  1.1101  0.2984
 4370TIP3    H234526   0.631   0.786   1.614  0.4298 -2.0164 -1.3814
 4371TIP3   OH234527   2.482   0.922  10.915  0.0095  0.2537  0.2779
 4371TIP3    H134528   2.567   0.883  10.895  0.6705  1.8479 -0.2083
 4371TIP3    H234529   2.482   0.931  11.011 -0.9419 -2.5367  0.6268
 4372TIP3   OH234530   2.335   5.006   0.779  0.2003 -0.3536 -0.1673
 4372TIP3    H134531   2.336   4.938   0.846  1.7928 -0.4364 -0.2328
 4372TIP3    H234532   2.423   5.043   0.781  0.6912 -1.0852 -2.9319
 4373TIP3   OH234533   3.325   6.750   4.463 -0.2908 -0.1950 -0.2423
 4373TIP3    H134534   3.342   6.689   4.391  0.0062 -0.4304  0.0261
 4373TIP3    H234535   3.255   6.807   4.430  0.3274  0.1543 -0.9895
 4374TIP3   OH234536   4.434   2.562   0.617 -0.1229 -1.0066 -0.0114
 4374TIP3    H134537   4.378   2.565   0.539 -0.8167 -1.5585  0.4510
 4374TIP3    H234538   4.515   2.521   0.587 -0.6598 -1.8919 -0.2857
 4375TIP3   OH234539   3.048   6.610   0.794  0.4079 -0.6119 -0.1846
 4375TIP3    H134540   3.109   6.680   0.817  0.3249 -0.2524 -1.0045
 4375TIP3    H234541   3.073   6.585   0.705  0.7375 -1.9614  0.2633
 4376TIP3   OH234542   3.772   0.418   0.506 -0.1980 -0.1023 -0.4587
 4376TIP3    H134543   3.858   0.411   0.548 -1.1188 -0.7876  1.4066
 4376TIP3    H234544   3.776   0.500   0.457  1.4960 -0.1073 -0.3961
 4377TIP3   OH234545   2.649   5.290  15.832  0.0123 -0.2173 -0.4637
 4377TIP3    H134546   2.558   5.266  15.812 -0.4466  1.5210 -0.6408
 4377TIP3    H234547   2.700   5.213  15.808 -1.0764 -0.1513 -3.3028
 4378TIP3   OH234548   6.151   5.983  11.710  0.2985  0.8082 -0.8575
 4378TIP3    H134549   6.225   5.933  11.744  0.5262  0.6724 -1.5248
 4378TIP3    H234550   6.133   5.944  11.624  1.0991  2.4604 -1.8258
 4379TIP3   OH234551   0.804   5.480  12.907 -0.2956 -0.0506  0.7118
 4379TIP3    H134552   0.796   5.400  12.959 -1.3308  0.0435  0.7269
 4379TIP3    H234553   0.808   5.550  12.971 -0.6359 -0.0017  0.6798
 4380TIP3   OH234554   0.856   4.549  12.406 -0.3668  0.0834  0.2752
 4380TIP3    H134555   0.815   4.629  12.439  0.4365  0.6261 -0.0187
 4380TIP3    H234556   0.811   4.532  12.323 -0.3822  0.3618  0.2253
 4381TIP3   OH234557   4.192   6.611   1.456  0.1670 -0.2954  0.4886
 4381TIP3    H134558   4.107   6.574   1.431 -0.6726  0.7030  1.7879
 4381TIP3    H234559   4.171   6.682   1.516  1.9249  0.1160  0.6655
 4382TIP3   OH234560   5.524   0.282   1.926 -0.5127  1.2971  0.3253
 4382TIP3    H134561   5.570   0.262   2.007 -0.2723 -0.8552 -0.2726
 4382TIP3    H234562   5.464   0.208   1.913 -1.5134  2.2538 -0.7714
 4383TIP3   OH234563   3.221   6.089  14.888  0.0983 -0.9573  0.0295
 4383TIP3    H134564   3.291   6.085  14.822  1.1898 -3.7409  1.2133
 4383TIP3    H234565   3.140   6.087  14.837  0.8413  0.2577 -1.2962
 4384TIP3   OH234566   1.125   3.541   4.012  0.2415  0.0854  0.0760
 4384TIP3    H134567   1.044   3.494   3.994  0.2508 -0.0188  0.2997
 4384TIP3    H234568   1.191   3.472   4.019  0.3365  0.1649 -0.0368
 4385TIP3   OH234569   5.587   3.709  13.774 -0.5394 -0.3228 -0.0670
 4385TIP3    H134570   5.679   3.705  13.802 -0.4401 -0.4072 -0.3962
 4385TIP3    H234571   5.592   3.711  13.678 -0.9449 -2.7885 -0.1896
 4386TIP3   OH234572   1.527   5.584  13.962  0.4621  0.0484 -0.4472
 4386TIP3    H134573   1.546   5.662  14.013 -0.3803  0.0305 -0.1002
 4386TIP3    H234574   1.511   5.616  13.874 -0.0652  0.2924 -0.2660
 4387TIP3   OH234575   0.190   4.721  12.764 -0.5451 -0.0757 -0.0730
 4387TIP3    H134576   0.104   4.680  12.769 -0.2980 -0.6279 -0.2360
 4387TIP3    H234577   0.229   4.703  12.850 -0.8134  0.6744  0.2071
 4388TIP3   OH234578   4.504   6.657  16.102  0.3148 -0.3836 -0.5951
 4388TIP3    H134579   4.597   6.641  16.117  0.4237 -0.0979 -0.9362
 4388TIP3    H234580   4.501   6.704  16.018 -0.2054 -1.2622 -1.0872
 4389TIP3   OH234581   1.237   2.381   3.761 -0.0626  0.8372 -0.1500
 4389TIP3    H134582   1.250   2.452   3.823 -1.2749  0.1778  0.8908
 4389TIP3    H234583   1.311   2.323   3.775  0.8261  1.7404 -0.8624
 4390TIP3   OH234584   3.168   6.386   4.203 -0.0836  0.2947  0.1945
 4390TIP3    H134585   3.135   6.380   4.292 -0.4068 -0.7722  0.0057
 4390TIP3    H234586   3.133   6.469   4.170  0.4226  0.9285  1.2025
 4391TIP3   OH234587   2.028   2.391   1.160 -0.3425 -0.3296 -0.5095
 4391TIP3    H134588   1.971   2.314   1.164  0.2453 -0.8415 -1.5226
 4391TIP3    H234589   1.989   2.446   1.093 -0.0917 -0.3100 -0.6411
 4392TIP3   OH234590   3.542   3.900  17.361 -0.3364  0.2897  0.1830
 4392TIP3    H134591   3.593   3.935  17.287 -1.1487 -1.2264 -1.1529
 4392TIP3    H234592   3.607   3.860  17.418  0.0813 -0.9643 -1.1227
 4393TIP3   OH234593   5.682   3.229  16.243 -0.8235 -0.8010  0.0132
 4393TIP3    H134594   5.665   3.293  16.174  1.2950 -0.8530 -0.6248
 4393TIP3    H234595   5.603   3.176  16.246 -1.4688  0.0108 -1.4779
 4394TIP3   OH234596   6.540   3.108  14.650  0.8182 -0.4177 -0.1143
 4394TIP3    H134597   6.478   3.137  14.717  2.4296 -0.2967  1.3792
 4394TIP3    H234598   6.487   3.099  14.571 -0.7488  1.5006  0.6381
 4395TIP3   OH234599   1.623   4.293  13.984 -0.0565 -0.0259  0.4791
 4395TIP3    H134600   1.716   4.316  13.982 -0.3319  1.1661 -1.3902
 4395TIP3    H234601   1.597   4.309  14.074  1.6692 -0.9884  1.2016
 4396TIP3   OH234602   6.619   5.309  13.022 -0.6300 -0.5080  0.6198
 4396TIP3    H134603   6.698   5.305  12.968 -0.7117 -0.3995  0.4931
 4396TIP3    H234604   6.627   5.234  13.082  0.0675  0.0972  1.2915
 4397TIP3   OH234605   0.210   5.697  12.953 -0.0913  0.6331  0.0760
 4397TIP3    H134606   0.225   5.632  13.021  1.1567  0.1841 -0.5932
 4397TIP3    H234607   0.288   5.753  12.957  0.5914 -0.1075 -1.7325
 4398TIP3   OH234608   2.915   3.828   1.581  0.0041  0.6215  0.0887
 4398TIP3    H134609   2.994   3.821   1.635 -1.0698  0.2930  1.6605
 4398TIP3    H234610   2.929   3.907   1.528  1.3802  0.5679  0.3440
 4399TIP3   OH234611   4.811   2.808   5.737  1.0300 -0.2580  0.1080
 4399TIP3    H134612   4.781   2.861   5.664  2.7020 -0.1495 -0.5519
 4399TIP3    H234613   4.840   2.871   5.803  1.7823 -0.3362 -0.1380
 4400TIP3   OH234614   6.224   2.442  11.415 -0.2257 -0.3832 -0.5588
 4400TIP3    H134615   6.134   2.433  11.382 -0.4077  0.1115 -0.1986
 4400TIP3    H234616   6.240   2.359  11.460 -1.0900  0.1496  0.7808
 4401TIP3   OH234617   0.553   6.665  11.352  0.0937 -0.2957  0.0526
 4401TIP3    H134618   0.567   6.655  11.258 -2.3943 -0.1929 -0.4153
 4401TIP3    H234619   0.526   6.578  11.382  2.2687 -0.6893  1.0165
 4402TIP3   OH234620   1.868   4.629   4.815  0.2046  0.3941 -0.0127
 4402TIP3    H134621   1.849   4.620   4.722  1.9766  1.1548 -0.4701
 4402TIP3    H234622   1.924   4.706   4.822 -0.1154  0.5257  1.7262
 4403TIP3   OH234623   5.886   3.359   0.260 -0.6944 -0.3924  0.0172
 4403TIP3    H134624   5.895   3.440   0.311 -1.7791 -0.7633  0.8227
 4403TIP3    H234625   5.803   3.368   0.215  0.2446 -0.0797 -1.7328
 4404TIP3   OH234626   0.070   1.310   2.634 -0.7032 -0.0638  0.2789
 4404TIP3    H134627   0.068   1.216   2.615  0.8365 -0.0302 -0.1493
 4404TIP3    H234628   0.159   1.337   2.613 -0.6948  1.2135  1.7814
 4405TIP3   OH234629   3.976   5.943  15.666 -0.0459 -0.3942 -0.5406
 4405TIP3    H134630   4.002   5.922  15.576 -2.3057 -0.1160 -1.3206
 4405TIP3    H234631   3.881   5.933  15.667 -0.4243  2.3136  1.0782
 4406TIP3   OH234632   2.313   3.001   0.393 -0.7380  0.0853  0.2434
 4406TIP3    H134633   2.280   2.911   0.384  1.0698 -0.4252 -2.8932
 4406TIP3    H234634   2.397   2.992   0.438 -0.0539 -0.0241 -0.9858
 4407TIP3   OH234635   2.032   4.487   4.245 -0.3376 -0.2547 -0.0189
 4407TIP3    H134636   1.963   4.533   4.197 -0.0285 -0.3964 -0.6162
 4407TIP3    H234637   2.017   4.509   4.337  0.5459  2.0733 -0.3636
 4408TIP3   OH234638   1.804   1.669  14.049  0.4945  0.2024  0.2210
 4408TIP3    H134639   1.712   1.694  14.054  0.1934 -0.3354 -1.8117
 4408TIP3    H234640   1.843   1.731  13.988  1.4141  0.1630  0.7396
 4409TIP3   OH234641   3.141   3.994  12.031 -0.1752  0.3924 -0.0567
 4409TIP3    H134642   3.093   3.953  11.960 -1.1635  1.3560  0.0136
 4409TIP3    H234643   3.197   4.059  11.988 -0.5528  0.7675  0.0054
 4410TIP3   OH234644   2.357   5.588   2.101  0.2813  0.4327  0.6219
 4410TIP3    H134645   2.425   5.566   2.165  0.0594  0.2583  0.8025
 4410TIP3    H234646   2.404   5.627   2.028  0.8171 -1.6366 -0.1953
 4411TIP3   OH234647   1.957   6.391  15.804 -0.4662 -0.0730  0.2403
 4411TIP3    H134648   2.030   6.409  15.746  1.4887  0.6501  2.7394
 4411TIP3    H234649   1.906   6.472  15.804 -0.1376  0.1337 -0.0234
 4412TIP3   OH234650   2.985   3.779   0.460  0.0916  0.3714  0.4168
 4412TIP3    H134651   3.001   3.828   0.379 -2.2849 -2.1116 -1.7735
 4412TIP3    H234652   2.930   3.836   0.513  1.0435  1.7546 -0.0349
 4413TIP3   OH234653   0.854   5.660  16.323 -0.2127 -0.2438  0.2434
 4413TIP3    H134654   0.860   5.648  16.229  1.3230 -1.7197  0.4818
 4413TIP3    H234655   0.861   5.755  16.337  1.8153 -0.1554 -1.0163
 4414TIP3   OH234656   3.828   6.234  14.967 -0.5221 -0.6628 -0.0393
 4414TIP3    H134657   3.878   6.278  14.899 -0.0724 -0.2932  0.5236
 4414TIP3    H234658   3.823   6.143  14.938  1.2831 -0.9065  0.3470
 4415TIP3   OH234659   3.003   1.979  12.166  0.0872 -0.4990 -0.0770
 4415TIP3    H134660   3.012   2.016  12.254  2.3661  0.0110 -0.4774
 4415TIP3    H234661   2.916   2.006  12.138  0.3639  1.6616  0.9794
 4416TIP3   OH234662   0.453   6.043  17.176  0.1915  0.1071 -0.0244
 4416TIP3    H134663   0.529   6.087  17.214  0.7230 -0.8694  0.0896
 4416TIP3    H234664   0.436   6.091  17.095 -0.6646  1.9267  1.1612
 4417TIP3   OH234665   4.219   3.740   0.680 -0.3839  0.1005 -0.1669
 4417TIP3    H134666   4.302   3.724   0.725 -0.7286 -0.3901  0.2952
 4417TIP3    H234667   4.171   3.800   0.737 -0.8680 -0.6121  0.1888
 4418TIP3   OH234668   0.593   5.803   2.836  0.9613 -0.3285  0.2138
 4418TIP3    H134669   0.502   5.774   2.825  0.9079 -0.7717  1.5733
 4418TIP3    H234670   0.615   5.777   2.925  2.1260  0.6297  0.2233
 4419TIP3   OH234671   4.540   2.910   0.014 -0.3502 -0.3433 -0.1268
 4419TIP3    H134672   4.550   2.973  -0.057 -1.9890 -0.2668 -0.3268
 4419TIP3    H234673   4.449   2.918   0.041 -0.3778 -2.0151  0.4196
 4420TIP3   OH234674   5.913   2.790  11.112  0.6706  0.1645  0.4909
 4420TIP3    H134675   5.896   2.833  11.028  1.3978 -0.9038 -0.2364
 4420TIP3    H234676   5.873   2.847  11.177  0.7488  1.4146 -0.5156
 4421TIP3   OH234677   2.864   1.108   4.242  0.4336  0.0793 -0.0202
 4421TIP3    H134678   2.899   1.197   4.243  1.0730 -0.1571  1.1794
 4421TIP3    H234679   2.909   1.064   4.314  0.0378 -1.1876 -0.5159
 4422TIP3   OH234680   3.504   4.828   4.266  0.2822 -0.0653 -0.9896
 4422TIP3    H134681   3.440   4.893   4.235 -2.7419 -1.8682  0.8964
 4422TIP3    H234682   3.503   4.760   4.199  0.2428 -0.0908 -0.9628
 4423TIP3   OH234683   5.287   0.702  11.130  0.2165 -0.1427  0.0285
 4423TIP3    H134684   5.213   0.716  11.072 -0.2565  2.9603  1.1821
 4423TIP3    H234685   5.364   0.712  11.074 -0.1974  4.1005 -0.0863
 4424TIP3   OH234686   0.354   3.487  15.889 -0.1928 -0.6770  0.0913
 4424TIP3    H134687   0.358   3.520  15.799 -1.3728  0.1006  0.3016
 4424TIP3    H234688   0.373   3.394  15.881 -0.4991 -0.6605 -0.9954
 4425TIP3   OH234689   0.365   3.993  12.566 -0.6046 -0.2729 -0.0384
 4425TIP3    H134690   0.395   4.073  12.521  0.9852 -0.5010  0.5468
 4425TIP3    H234691   0.375   3.924  12.500  1.2264 -0.5195  0.4529
 4426TIP3   OH234692   0.264   6.401   4.148 -0.1918  0.4898  0.0843
 4426TIP3    H134693   0.333   6.441   4.200 -0.2208  0.6568 -0.0063
 4426TIP3    H234694   0.184   6.415   4.198  0.0919 -1.4417  1.1907
 4427TIP3   OH234695   4.232   3.652  15.187 -0.1704  0.5146  0.5042
 4427TIP3    H134696   4.206   3.660  15.279 -0.7299  0.8807  0.3249
 4427TIP3    H234697   4.158   3.609  15.145 -0.5501  1.6466 -0.0379
 4428TIP3   OH234698   2.221   4.948  14.691  0.3963  0.5080 -0.5795
 4428TIP3    H134699   2.191   4.865  14.654  1.1048  0.0103 -0.0747
 4428TIP3    H234700   2.304   4.965  14.646  0.3552  0.8411 -0.5319
 4429TIP3   OH234701   6.053   4.305  11.269  0.0789 -0.8356  0.4670
 4429TIP3    H134702   5.960   4.295  11.245  0.2537 -0.5522 -0.3837
 4429TIP3    H234703   6.052   4.354  11.351 -0.5476 -1.5554  0.9040
 4430TIP3   OH234704   6.276   0.428  10.836 -0.6726 -0.6044  0.8278
 4430TIP3    H134705   6.181   0.413  10.837 -0.7104 -0.3995  0.4436
 4430TIP3    H234706   6.313   0.345  10.866 -0.8902 -1.4058 -1.0147
 4431TIP3   OH234707   4.187   5.350  16.506 -0.7729  0.2331 -0.1536
 4431TIP3    H134708   4.152   5.396  16.429 -1.7373  0.0854  0.1854
 4431TIP3    H234709   4.280   5.341  16.488 -1.0325 -0.0708 -1.4575
 4432TIP3   OH234710   3.702   1.389  13.079  0.5285  0.0401  0.4802
 4432TIP3    H134711   3.735   1.305  13.048 -0.5812 -0.1829 -0.1477
 4432TIP3    H234712   3.706   1.446  13.002  0.2086  0.2228  0.5950
 4433TIP3   OH234713   3.789   2.253  14.677  0.5508  1.0672  0.1449
 4433TIP3    H134714   3.826   2.225  14.760 -2.4231  1.0182  1.5629
 4433TIP3    H234715   3.770   2.346  14.689 -1.1133  0.7633  0.0389
 4434TIP3   OH234716   1.929   5.782  12.324 -0.5429 -0.0871 -0.1956
 4434TIP3    H134717   1.846   5.741  12.297 -0.2957  0.3669 -1.7812
 4434TIP3    H234718   1.932   5.864  12.273  0.5054  0.2847  0.4492
 4435TIP3   OH234719   3.166   1.155   2.139  0.2088 -0.0733 -0.2319
 4435TIP3    H134720   3.245   1.125   2.184  1.4294 -0.4359 -2.4392
 4435TIP3    H234721   3.133   1.226   2.194  1.1765 -0.9314  1.5448
 4436TIP3   OH234722   5.708   0.681  14.600 -0.1982  0.6427 -0.0819
 4436TIP3    H134723   5.704   0.741  14.525 -0.9352  0.4599 -0.2007
 4436TIP3    H234724   5.617   0.672  14.627 -0.4091 -2.0064 -1.3421
 4437TIP3   OH234725   0.108   4.026  11.379 -0.3302 -0.2527  0.2320
 4437TIP3    H134726   0.186   3.970  11.384 -0.1929 -0.2463 -1.1990
 4437TIP3    H234727   0.135   4.100  11.324 -1.3318 -0.2434 -0.2781
 4438TIP3   OH234728   2.833   2.693   5.597  0.3518  0.2026  0.1952
 4438TIP3    H134729   2.857   2.603   5.618  1.7610  0.6012  0.4321
 4438TIP3    H234730   2.760   2.713   5.655 -0.6055 -1.0749 -0.5259
 4439TIP3   OH234731   2.043   1.784  12.066  0.5845  0.3825  0.2300
 4439TIP3    H134732   2.065   1.859  12.121 -0.0945  2.3654 -2.0406
 4439TIP3    H234733   2.114   1.721  12.082 -0.4932 -0.0516  4.6669
 4440TIP3   OH234734   4.208   5.409   6.003  0.2272  0.0451 -0.2933
 4440TIP3    H134735   4.279   5.392   6.066 -0.1557  0.1255  0.1612
 4440TIP3    H234736   4.200   5.504   6.001  0.0491  0.0305 -0.2536
 4441TIP3   OH234737   0.548   4.182   3.331  0.0266 -0.5863 -0.3429
 4441TIP3    H134738   0.552   4.238   3.408  0.5084  0.6842 -1.2645
 4441TIP3    H234739   0.625   4.125   3.340 -0.5226 -1.2022  0.6512
 4442TIP3   OH234740   6.239   6.036  15.278  0.3872  0.2920 -0.4050
 4442TIP3    H134741   6.147   6.011  15.275  0.6519 -0.6833 -0.9772
 4442TIP3    H234742   6.246   6.095  15.353 -0.6453  0.1401 -0.1800
 4443TIP3   OH234743   1.001   6.047   5.703  0.1290 -0.3143 -0.1937
 4443TIP3    H134744   0.942   6.118   5.678 -0.3214 -0.2787  0.9379
 4443TIP3    H234745   0.982   5.977   5.640  2.1501  1.2615 -2.8034
 4444TIP3   OH234746   6.475   4.329  11.063  0.4896  0.1761  0.0925
 4444TIP3    H134747   6.381   4.320  11.078  0.0362  0.1200 -2.3830
 4444TIP3    H234748   6.492   4.279  10.983  2.8690 -0.7754  1.0837
 4445TIP3   OH234749   1.569   5.613  17.308 -0.3084 -0.5319 -0.0487
 4445TIP3    H134750   1.609   5.699  17.324  0.5351 -0.9051 -0.1333
 4445TIP3    H234751   1.632   5.567  17.252  0.1522 -1.8966  1.5177
 4446TIP3   OH234752   3.645   4.684   0.281 -0.0052 -0.1912  0.3811
 4446TIP3    H134753   3.614   4.630   0.354  0.8724  0.1528  1.0157
 4446TIP3    H234754   3.569   4.690   0.223 -0.8292 -0.1931  1.4245
 4447TIP3   OH234755   2.365   4.719  12.495  0.4530 -0.1930  0.3987
 4447TIP3    H134756   2.323   4.775  12.430 -0.7993 -1.5772 -0.0250
 4447TIP3    H234757   2.454   4.707  12.462  0.7530  1.5344  0.5138
 4448TIP3   OH234758   6.428   1.948  12.428 -0.8048 -0.1514  0.4290
 4448TIP3    H134759   6.368   1.994  12.369 -0.2836 -0.9328 -0.7612
 4448TIP3    H234760   6.372   1.887  12.476 -1.2145  0.3806  0.6393
 4449TIP3   OH234761   4.615   2.609  16.872 -0.3594 -0.1762  0.2450
 4449TIP3    H134762   4.530   2.570  16.895 -0.7683  0.8458  0.5040
 4449TIP3    H234763   4.604   2.702  16.889  0.1679  0.2656 -1.6561
 4450TIP3   OH234764   6.349   6.094  13.345 -0.5514  0.6569  0.3044
 4450TIP3    H134765   6.337   6.150  13.420  0.3053  2.8464 -1.0974
 4450TIP3    H234766   6.436   6.055  13.357 -1.0485 -0.2291  1.1567
 4451TIP3   OH234767   6.413   2.614   4.495  0.0795  0.2297 -0.3477
 4451TIP3    H134768   6.463   2.643   4.419  0.0180 -0.3100 -0.6040
 4451TIP3    H234769   6.351   2.549   4.460 -0.0080  0.0393  0.1439
 4452TIP3   OH234770   3.510   4.727  17.073 -0.7357 -0.0194  0.2428
 4452TIP3    H134771   3.485   4.813  17.042 -0.9894  0.5210  1.8320
 4452TIP3    H234772   3.506   4.734  17.169  1.4418 -1.1277  0.4818
 4453TIP3   OH234773   4.949   4.984   2.097 -0.5519 -0.3091 -0.1244
 4453TIP3    H134774   4.945   4.972   2.002 -0.5798  0.6894 -0.2605
 4453TIP3    H234775   5.014   5.053   2.110  0.6701 -1.5704  0.7017
 4454TIP3   OH234776   1.926   6.136   5.648  0.5687  0.0110  0.0080
 4454TIP3    H134777   1.942   6.068   5.583 -0.4710  0.5409 -0.8353
 4454TIP3    H234778   1.876   6.092   5.717 -0.2381 -0.0636 -0.6085
 4455TIP3   OH234779   6.618   2.137   0.637  0.4697 -0.0291  0.1781
 4455TIP3    H134780   6.620   2.221   0.684  2.2546 -0.6117  1.2507
 4455TIP3    H234781   6.690   2.143   0.574 -0.5046 -0.1160 -0.9829
 4456TIP3   OH234782   0.146   2.468   1.116  0.0414 -0.2634  0.0033
 4456TIP3    H134783   0.203   2.497   1.187 -0.0910 -0.9769  0.4110
 4456TIP3    H234784   0.194   2.488   1.036  0.6662 -0.4466  0.3314
 4457TIP3   OH234785   1.182   4.852   3.478 -0.5983  0.0618  0.6905
 4457TIP3    H134786   1.131   4.919   3.433  0.4856  0.9895  0.7818
 4457TIP3    H234787   1.131   4.830   3.556 -1.5315 -0.0964  0.0479
 4458TIP3   OH234788   2.934   0.527   4.166  0.0444 -0.4087 -0.2096
 4458TIP3    H134789   2.889   0.498   4.087 -2.1268 -0.0642  0.8281
 4458TIP3    H234790   2.869   0.517   4.236  0.6249  2.7162  0.9301
 4459TIP3   OH234791   2.453   0.697   2.070  0.3541 -0.0609  0.1637
 4459TIP3    H134792   2.370   0.676   2.027  0.2582  0.2304  0.2018
 4459TIP3    H234793   2.454   0.642   2.148  0.2123 -0.0926  0.1438
 4460TIP3   OH234794   3.387   5.795  14.925 -0.2687  0.1748 -0.5964
 4460TIP3    H134795   3.381   5.717  14.869 -1.8683  0.1630 -0.4450
 4460TIP3    H234796   3.466   5.840  14.895 -0.2060 -0.6725 -1.7685
 4461TIP3   OH234797   0.766   5.838   4.983 -0.2708 -0.6638 -0.3706
 4461TIP3    H134798   0.830   5.798   4.923 -0.2448 -0.0119 -0.7834
 4461TIP3    H234799   0.760   5.929   4.954  2.3646  0.6736  2.7257
 4462TIP3   OH234800   0.156   3.499   0.739  0.2629 -0.1605  1.0210
 4462TIP3    H134801   0.123   3.580   0.778 -1.9919  0.2130 -1.3383
 4462TIP3    H234802   0.246   3.519   0.714 -0.1862  1.5869  0.6717
 4463TIP3   OH234803   5.908   5.582   1.011  0.5452 -0.2949  0.3140
 4463TIP3    H134804   5.946   5.560   1.096  0.2613 -0.9032  0.2911
 4463TIP3    H234805   5.900   5.677   1.011  1.1931 -0.2389  0.6918
 4464TIP3   OH234806   2.548   3.644  10.855 -0.2545  0.3913 -0.5618
 4464TIP3    H134807   2.611   3.697  10.905 -0.7308  0.2002  0.2623
 4464TIP3    H234808   2.554   3.557  10.894 -0.3245  0.1241 -1.1360
 4465TIP3   OH234809   3.023   1.439   0.489  0.4694  0.7964 -0.3687
 4465TIP3    H134810   3.087   1.508   0.505  2.6294 -0.4861 -2.7244
 4465TIP3    H234811   3.065   1.359   0.522 -0.3095  0.0708 -1.0704
 4466TIP3   OH234812   0.865   1.993   0.261  0.0496 -0.1686 -0.0017
 4466TIP3    H134813   0.919   1.981   0.340 -0.8440  1.4380  0.9207
 4466TIP3    H234814   0.909   2.064   0.214 -0.4995  0.2285  0.0749
 4467TIP3   OH234815   6.319   3.029   1.375  0.1097  0.1556  0.1202
 4467TIP3    H134816   6.229   3.013   1.348  1.5130 -1.5940 -4.6476
 4467TIP3    H234817   6.352   3.093   1.312  3.1692 -2.3899 -1.1855
 4468TIP3   OH234818   2.780   3.579   0.589 -0.2180 -0.7980 -0.4484
 4468TIP3    H134819   2.807   3.671   0.593 -0.1939 -0.7714 -1.0882
 4468TIP3    H234820   2.692   3.578   0.627 -1.5819  0.0695 -3.2344
 4469TIP3   OH234821   4.934   1.096  12.195  0.1676 -0.0010  0.4306
 4469TIP3    H134822   4.872   1.035  12.156  1.1738 -0.4634 -0.5180
 4469TIP3    H234823   4.893   1.182  12.186  0.1575 -0.1411 -1.2857
 4470TIP3   OH234824   1.403   3.666  13.767 -0.2125  0.0579 -0.1782
 4470TIP3    H134825   1.475   3.701  13.714  0.2602  0.4244  0.7041
 4470TIP3    H234826   1.418   3.571  13.767 -1.0916 -0.1306 -1.9641
 4471TIP3   OH234827   3.677   4.680  15.518 -0.2678 -0.5736 -0.5694
 4471TIP3    H134828   3.674   4.683  15.422  0.8318 -1.0522 -0.6317
 4471TIP3    H234829   3.770   4.673  15.538 -0.5517 -1.3841  0.5131
 4472TIP3   OH234830   4.854   0.297  16.568  0.1687  0.4533 -0.1875
 4472TIP3    H134831   4.899   0.213  16.561  0.8082  0.6276  1.4029
 4472TIP3    H234832   4.872   0.342  16.485  1.3135 -0.2656 -0.3478
 4473TIP3   OH234833   2.330   1.298   3.261  0.1681  0.0096  0.4427
 4473TIP3    H134834   2.251   1.352   3.271  1.0069  1.2627  0.5120
 4473TIP3    H234835   2.398   1.345   3.310  1.5321  0.2332 -1.5381
 4474TIP3   OH234836   4.603   4.012  13.009  0.7093  0.2420  0.0191
 4474TIP3    H134837   4.556   4.095  12.996 -1.1074 -1.1137 -3.3852
 4474TIP3    H234838   4.535   3.950  13.034  1.9498 -0.4409  1.9202
 4475TIP3   OH234839   4.300   3.679  14.732  0.6619 -0.0985 -0.4480
 4475TIP3    H134840   4.386   3.712  14.758  0.5307 -0.0392 -0.0864
 4475TIP3    H234841   4.238   3.737  14.777  0.4261 -0.9115  0.2880
 4476TIP3   OH234842   0.045   6.324   5.665  0.2312  0.2362  0.0096
 4476TIP3    H134843   0.032   6.253   5.727 -1.5597 -0.1580 -0.7484
 4476TIP3    H234844   0.027   6.285   5.579  1.0395  1.1626 -0.6138
 4477TIP3   OH234845   0.591   3.338   5.183  0.2994  0.6180  0.1262
 4477TIP3    H134846   0.532   3.412   5.168  0.1637  0.4681 -0.1043
 4477TIP3    H234847   0.533   3.261   5.179  0.2537  0.5671  1.4581
 4478TIP3   OH234848   6.085   0.288  14.266  0.3922 -0.1139  0.1335
 4478TIP3    H134849   6.168   0.252  14.236  0.0237 -1.2787  0.4719
 4478TIP3    H234850   6.109   0.366  14.317  1.3093 -0.7314  0.6557
 4479TIP3   OH234851   0.652   3.840   3.139 -0.0584  0.2281  0.4450
 4479TIP3    H134852   0.640   3.848   3.233 -0.6111  1.2568  0.2929
 4479TIP3    H234853   0.570   3.802   3.107 -1.4980  3.4256 -0.0654
 4480TIP3   OH234854   6.477   6.422  12.907  0.6203  0.4232 -0.0474
 4480TIP3    H134855   6.529   6.350  12.870 -0.0868 -1.6207  2.6461
 4480TIP3    H234856   6.410   6.439  12.841  2.5306  0.6950 -2.0284
 4481TIP3   OH234857   1.156   2.046   3.390  0.7953 -0.0440  0.2306
 4481TIP3    H134858   1.213   2.013   3.460 -0.2429 -1.2835  0.5197
 4481TIP3    H234859   1.125   2.131   3.422 -0.6623 -1.1305  1.8844
 4482TIP3   OH234860   5.681   1.462  13.211 -0.1490  0.6234  0.6939
 4482TIP3    H134861   5.614   1.488  13.274  1.2274  3.9972  1.0181
 4482TIP3    H234862   5.764   1.474  13.258  0.8352 -3.0161  0.1896
 4483TIP3   OH234863   6.412   4.722   5.601 -0.5689  0.1061  0.4719
 4483TIP3    H134864   6.451   4.634   5.598 -1.0147 -0.1859  2.3083
 4483TIP3    H234865   6.355   4.725   5.524  0.9648 -0.4411 -0.7633
 4484TIP3   OH234866   6.557   6.690   0.935 -0.0169 -0.0789 -1.3534
 4484TIP3    H134867   6.541   6.691   1.029 -3.6445 -0.8715 -1.7885
 4484TIP3    H234868   6.592   6.777   0.915  0.6590  0.1530  0.6677
 4485TIP3   OH234869   2.246   6.276  16.904 -0.0937 -0.4775 -0.0356
 4485TIP3    H134870   2.246   6.247  16.995  0.5288 -1.8080 -0.4286
 4485TIP3    H234871   2.302   6.353  16.903  1.7607 -1.7482  0.3785
 4486TIP3   OH234872   3.701   6.610   0.499 -0.3735  0.0386 -0.5780
 4486TIP3    H134873   3.612   6.610   0.534 -0.2842 -0.5603 -0.3275
 4486TIP3    H234874   3.750   6.553   0.559 -0.0551 -0.4518 -1.2898
 4487TIP3   OH234875   6.306   3.953   2.441  0.0853 -0.4065 -0.5238
 4487TIP3    H134876   6.400   3.965   2.455 -0.1618  1.0091  0.0994
 4487TIP3    H234877   6.266   3.970   2.527 -0.8204  0.1267 -1.0303
 4488TIP3   OH234878   5.979   3.972  11.179  0.2450  0.3280 -0.3926
 4488TIP3    H134879   5.934   4.055  11.194  0.8427  0.8665 -1.4387
 4488TIP3    H234880   5.945   3.942  11.094 -1.2189 -1.3585  0.7316
 4489TIP3   OH234881   4.493   6.465   5.354  0.2264  0.1660  0.0830
 4489TIP3    H134882   4.546   6.478   5.275 -1.0517 -0.2525 -0.8864
 4489TIP3    H234883   4.496   6.371   5.370 -0.5056  0.0868 -0.2054
 4490TIP3   OH234884   0.653   4.730   1.270 -0.4165 -0.3079 -0.2558
 4490TIP3    H134885   0.624   4.810   1.225  0.4465 -0.7740 -1.6913
 4490TIP3    H234886   0.572   4.694   1.307 -0.6615  1.8149  1.4697
 4491TIP3   OH234887   4.937   1.880   2.511 -0.3715 -0.0942 -0.1122
 4491TIP3    H134888   4.886   1.799   2.518 -0.6464  0.0662 -0.2192
 4491TIP3    H234889   4.929   1.921   2.597  1.1930 -1.0041  0.5059
 4492TIP3   OH234890   1.129   4.810   2.720 -0.1849 -0.1099  0.4252
 4492TIP3    H134891   1.145   4.820   2.814 -2.6988 -2.2701  1.2240
 4492TIP3    H234892   1.150   4.718   2.702 -0.1827  0.1570 -1.0182
 4493TIP3   OH234893   6.302   1.389   5.726 -0.0885  0.2406 -0.0758
 4493TIP3    H134894   6.242   1.456   5.693 -1.3091 -0.3058  0.9671
 4493TIP3    H234895   6.386   1.434   5.733  0.1312  0.5505 -3.2921
 4494TIP3   OH234896   4.511   3.220  15.064 -0.4726  0.2136  0.2264
 4494TIP3    H134897   4.551   3.155  15.122  4.0447  2.5438  0.1777
 4494TIP3    H234898   4.488   3.293  15.121  2.4901  1.8496 -0.4172
 4495TIP3   OH234899   2.220   0.618  12.361  0.0012  0.1962 -0.2055
 4495TIP3    H134900   2.130   0.642  12.337  0.5382  0.7494 -1.7572
 4495TIP3    H234901   2.275   0.677  12.310  1.2738 -0.4021  0.4327
 4496TIP3   OH234902   3.275   5.504  13.502  0.4241  0.1811 -0.4812
 4496TIP3    H134903   3.351   5.560  13.490  1.0215 -0.2322  1.0614
 4496TIP3    H234904   3.312   5.419  13.526 -0.5066  0.2542  1.3451
 4497TIP3   OH234905   3.264   4.285   0.677  0.0628  0.0619  0.7824
 4497TIP3    H134906   3.317   4.321   0.748 -0.9764 -1.3735  2.3697
 4497TIP3    H234907   3.319   4.218   0.638  0.2872  0.1858  0.8849
 4498TIP3   OH234908   4.860   2.680   4.073 -0.3564 -0.2766  0.1281
 4498TIP3    H134909   4.893   2.593   4.095  0.8040  0.4644  1.5044
 4498TIP3    H234910   4.830   2.673   3.982  0.2061 -1.9589  0.0476
 4499TIP3   OH234911   1.700   5.537   1.539  0.0448 -0.3869  0.3028
 4499TIP3    H134912   1.708   5.555   1.446  1.1440  2.1878  0.8009
 4499TIP3    H234913   1.782   5.494   1.562  1.8781  2.9760  0.7584
 4500TIP3   OH234914   5.773   5.226   4.725  0.3405  0.4344 -0.2164
 4500TIP3    H134915   5.758   5.291   4.656  1.3791  1.2023  0.2687
 4500TIP3    H234916   5.700   5.239   4.786 -1.1157 -0.8585 -1.5613
 4501TIP3   OH234917   3.914   1.612  17.239 -0.1312  0.3058  0.1627
 4501TIP3    H134918   3.871   1.537  17.280  0.4215  0.0372  0.2626
 4501TIP3    H234919   3.965   1.575  17.168 -1.6083  0.8384 -1.2518
 4502TIP3   OH234920   1.267   2.584   2.626 -0.1616  0.0995  0.2541
 4502TIP3    H134921   1.215   2.520   2.575 -1.2696  0.5556  0.7762
 4502TIP3    H234922   1.271   2.661   2.570 -0.2327  0.1416  0.3078
 4503TIP3   OH234923   3.141   5.881   3.753 -0.1560 -0.5924 -0.6622
 4503TIP3    H134924   3.123   5.834   3.834 -0.4680 -0.1468 -0.4643
 4503TIP3    H234925   3.232   5.909   3.761 -0.4083  0.1168 -0.1079
 4504TIP3   OH234926   2.680   0.572   5.871  0.3622 -0.2796  0.1795
 4504TIP3    H134927   2.760   0.591   5.822  1.0783 -2.3270  0.4586
 4504TIP3    H234928   2.680   0.477   5.881 -3.5646 -0.7388 -2.2577
 4505TIP3   OH234929   0.001   0.523  13.567 -0.3035  0.4172 -0.6863
 4505TIP3    H134930   0.044   0.446  13.530 -1.7850  0.1948 -2.0509
 4505TIP3    H234931   0.068   0.592  13.562  0.6766 -0.5049 -0.4808
 4506TIP3   OH234932   2.744   6.273  14.927  0.1469  0.6214 -0.5890
 4506TIP3    H134933   2.738   6.249  15.020 -2.2010  0.6513 -0.6722
 4506TIP3    H234934   2.833   6.307  14.917  0.5379  0.4164  1.5907
 4507TIP3   OH234935   2.450   1.545  17.073  0.2317 -1.3885 -0.7280
 4507TIP3    H134936   2.452   1.550  17.169  0.2759 -1.3767 -0.7298
 4507TIP3    H234937   2.519   1.483  17.051 -0.2046 -1.8837 -0.7169
 4508TIP3   OH234938   1.482   0.353  14.306  0.5504  0.8071  0.5698
 4508TIP3    H134939   1.538   0.285  14.341 -1.4452 -1.4111 -0.2637
 4508TIP3    H234940   1.403   0.307  14.277 -0.9009  3.4741 -0.0964
 4509TIP3   OH234941   6.565   5.904  11.627 -0.0042 -0.1673  0.9906
 4509TIP3    H134942   6.503   5.892  11.698 -2.0848 -1.4858 -0.9222
 4509TIP3    H234943   6.649   5.877  11.663 -0.9319 -0.4891  3.0147
 4510TIP3   OH234944   5.519   5.884  16.989  0.1028 -0.0324  0.4793
 4510TIP3    H134945   5.553   5.838  17.065  1.0135  1.1290  0.8055
 4510TIP3    H234946   5.429   5.906  17.012  0.1968 -0.1807  0.9917
 4511TIP3   OH234947   4.260   6.717  16.975  0.3010 -0.0489  0.4200
 4511TIP3    H134948   4.271   6.808  17.003 -0.9936  0.1247  0.3945
 4511TIP3    H234949   4.208   6.676  17.044 -0.6798 -0.2830 -0.4309
 4512TIP3   OH234950   2.566   5.398  14.762 -0.2138  0.1252 -0.3150
 4512TIP3    H134951   2.633   5.332  14.745 -0.5352 -0.3130  0.1027
 4512TIP3    H234952   2.563   5.449  14.681 -0.4790 -0.8254 -0.9250
 4513TIP3   OH234953   6.549   3.013   1.917  0.2728  0.0007 -0.1852
 4513TIP3    H134954   6.581   2.925   1.938  0.9559 -0.0887 -1.5276
 4513TIP3    H234955   6.600   3.040   1.840 -0.0690  1.4911  0.0767
 4514TIP3   OH234956   2.902   3.527  14.629  0.1019  0.6555 -0.2519
 4514TIP3    H134957   2.881   3.524  14.722  0.6064 -1.2306 -0.1470
 4514TIP3    H234958   2.824   3.493  14.586 -0.1274  1.5196 -0.5317
 4515TIP3   OH234959   3.571   6.537  12.368  0.8234  0.2547  0.5598
 4515TIP3    H134960   3.636   6.607  12.363  1.4874 -0.3736  0.2251
 4515TIP3    H234961   3.536   6.530  12.280  0.4553  0.4374  0.6882
 4516TIP3   OH234962   2.376   2.211  15.739 -0.0717  0.2680  0.2667
 4516TIP3    H134963   2.465   2.179  15.726 -0.5731 -0.7305 -0.8624
 4516TIP3    H234964   2.346   2.235  15.652 -1.8169 -1.9384  0.1728
 4517TIP3   OH234965   6.413   3.814  12.451 -0.2824 -0.4689  0.0519
 4517TIP3    H134966   6.385   3.823  12.542  1.4126  0.4515  0.5234
 4517TIP3    H234967   6.404   3.901  12.414 -3.0859 -1.2616 -1.3890
 4518TIP3   OH234968   4.290   5.311   5.299 -0.8120 -0.8290  0.3003
 4518TIP3    H134969   4.279   5.216   5.296 -0.0284 -0.9267  0.2592
 4518TIP3    H234970   4.383   5.325   5.280  0.2114 -0.3460  4.6293
 4519TIP3   OH234971   3.324   6.706  13.217  0.9304  0.6055  0.1413
 4519TIP3    H134972   3.264   6.641  13.254  0.7956 -0.6871 -2.1284
 4519TIP3    H234973   3.267   6.775  13.183  0.7989  0.1514 -0.5918
 4520TIP3   OH234974   0.400   1.394  15.982  0.4912 -0.1414 -0.6911
 4520TIP3    H134975   0.339   1.321  15.973  0.3843  0.0804 -1.9214
 4520TIP3    H234976   0.462   1.383  15.910  0.3381  1.0893 -1.0469
 4521TIP3   OH234977   1.412   4.726  13.202 -0.3506 -0.7163  0.1177
 4521TIP3    H134978   1.389   4.677  13.123 -0.9001  0.2613 -0.3579
 4521TIP3    H234979   1.392   4.817  13.180 -1.4991 -0.5270  1.7222
 4522TIP3   OH234980   4.642   1.350   4.451  0.3924 -0.1426 -0.1766
 4522TIP3    H134981   4.551   1.348   4.419  0.7732  2.0572 -1.6246
 4522TIP3    H234982   4.690   1.294   4.389  0.1750 -0.5977  0.0632
 4523TIP3   OH234983   3.264   6.604   5.242 -0.3100  0.0519 -0.1621
 4523TIP3    H134984   3.240   6.517   5.213 -0.3377  0.6900 -2.1582
 4523TIP3    H234985   3.239   6.662   5.170  0.5777  1.5973  0.7116
 4524TIP3   OH234986   5.777   1.545   2.622 -0.4691 -0.1784 -0.4184
 4524TIP3    H134987   5.767   1.498   2.539  0.6487 -0.5045 -0.3822
 4524TIP3    H234988   5.793   1.476   2.687 -1.7723  0.0376  0.1647
 4525TIP3   OH234989   1.861   0.171   6.276 -0.1592  0.4114 -0.4768
 4525TIP3    H134990   1.936   0.227   6.299 -0.6494  1.0678 -0.4345
 4525TIP3    H234991   1.884   0.085   6.310  0.0435  0.8812  0.6240
 4526TIP3   OH234992   1.997   0.961  13.610 -0.0993  0.3027 -0.1805
 4526TIP3    H134993   1.968   0.902  13.679  1.3789  0.0991  0.3094
 4526TIP3    H234994   2.035   0.903  13.544  1.3438  0.6615  0.2961
 4527TIP3   OH234995   5.121   6.241   6.728  0.4923  0.1948  0.3821
 4527TIP3    H134996   5.191   6.298   6.699 -0.5516  0.7833 -1.1024
 4527TIP3    H234997   5.133   6.160   6.679  1.1555 -0.3916  1.4624
 4528TIP3   OH234998   5.309   1.627   0.275 -0.1047 -0.0630  0.6617
 4528TIP3    H134999   5.294   1.568   0.349 -0.9280  0.1480  0.6640
 4528TIP3    H235000   5.318   1.569   0.200 -0.5842 -0.2052  0.7153
 4529TIP3   OH235001   0.826   1.374   5.672 -0.1429  0.2754  0.2884
 4529TIP3    H135002   0.813   1.354   5.765  0.4003  0.3559  0.3865
 4529TIP3    H235003   0.858   1.292   5.634 -1.8013 -0.2139 -0.1517
 4530TIP3   OH235004   4.584   0.611   0.373  0.0254 -0.0583 -1.1292
 4530TIP3    H135005   4.662   0.560   0.350 -1.1379 -2.3057 -0.3840
 4530TIP3    H235006   4.510   0.553   0.353 -1.4673  1.7136 -1.1211
 4531TIP3   OH235007   2.408   3.803  10.689 -0.3711  0.0345  0.3363
 4531TIP3    H135008   2.442   3.752  10.762 -0.8504 -1.0875 -0.1939
 4531TIP3    H235009   2.362   3.739  10.635 -1.4299  1.1292 -0.0984
 4532TIP3   OH235010   4.217   6.566  16.113  0.0068 -0.4642  0.2966
 4532TIP3    H135011   4.305   6.582  16.078  0.4195 -3.2153 -0.1310
 4532TIP3    H235012   4.172   6.518  16.043 -0.6743 -2.1123  1.7996
 4533TIP3   OH235013   0.978   5.707  14.943  0.3636  0.0431 -0.0711
 4533TIP3    H135014   0.970   5.612  14.928 -1.5948  0.0275  0.8248
 4533TIP3    H235015   0.896   5.743  14.912  0.7775  1.3724  0.3344
 4534TIP3   OH235016   1.927   3.750   4.344 -0.0734 -0.6504 -0.1524
 4534TIP3    H135017   1.909   3.737   4.251  1.3884 -3.9223 -0.1272
 4534TIP3    H235018   2.022   3.754   4.350 -0.1845  0.5142  1.1211
 4535TIP3   OH235019   1.814   1.343  17.043 -0.2225  1.0061 -0.1193
 4535TIP3    H135020   1.882   1.408  17.061 -1.3812  2.0081  0.7323
 4535TIP3    H235021   1.770   1.375  16.965 -0.3776  0.8831 -0.0832
 4536TIP3   OH235022   5.435   3.526  12.394 -0.4521  0.5104 -0.4528
 4536TIP3    H135023   5.341   3.515  12.410 -0.6625  0.9680 -1.3070
 4536TIP3    H235024   5.477   3.469  12.458 -1.3600 -1.5517 -1.6270
 4537TIP3   OH235025   2.990   1.125   2.439 -0.2630 -0.2257  0.0074
 4537TIP3    H135026   2.960   1.144   2.351  1.1649  1.6227 -0.1556
 4537TIP3    H235027   2.922   1.162   2.496 -0.5612 -0.2679 -0.3166
 4538TIP3   OH235028   1.021   2.111  13.789  0.0001  0.0876 -0.0307
 4538TIP3    H135029   0.981   2.150  13.867  0.6111 -0.0164  0.3381
 4538TIP3    H235030   1.057   2.028  13.820  1.9772  0.9229  0.0409
 4539TIP3   OH235031   1.707   5.545  13.216 -0.0903  0.2021 -0.0997
 4539TIP3    H135032   1.800   5.525  13.225 -0.1191 -1.2837 -2.4028
 4539TIP3    H235033   1.703   5.616  13.152 -0.5700 -0.9672 -1.4214
 4540TIP3   OH235034   4.483   4.605  14.729  0.3390  0.6343 -0.4663
 4540TIP3    H135035   4.464   4.665  14.657  0.1409 -0.3653 -1.2606
 4540TIP3    H235036   4.489   4.519  14.688  1.5169  0.2227  0.5269
 4541TIP3   OH235037   2.508   1.274  16.836  0.3243  0.2019 -0.3241
 4541TIP3    H135038   2.575   1.308  16.895  0.2481  1.3151 -0.8493
 4541TIP3    H235039   2.557   1.228  16.768  0.6148  1.4533 -0.9910
 4542TIP3   OH235040   5.222   1.103  12.103  0.1534 -0.2998  0.2511
 4542TIP3    H135041   5.143   1.147  12.131  0.7899  0.3462  1.0707
 4542TIP3    H235042   5.197   1.011  12.096 -0.7617 -0.0449  0.1044
 4543TIP3   OH235043   0.970   3.392  12.515 -0.5284 -0.1014 -0.2281
 4543TIP3    H135044   1.051   3.420  12.557  0.0052 -2.3152  0.3209
 4543TIP3    H235045   0.918   3.472  12.509  1.6136  1.3527 -0.4688
 4544TIP3   OH235046   3.003   1.395   0.216 -0.2020 -0.6523 -0.3873
 4544TIP3    H135047   3.033   1.406   0.306  1.9342 -2.5629 -0.7770
 4544TIP3    H235048   2.979   1.484   0.188  1.9441  0.5038  1.1131
 4545TIP3   OH235049   4.904   5.916   6.021  0.4420 -0.1600  0.2571
 4545TIP3    H135050   4.844   5.902   5.947  0.8040 -0.3977  0.0031
 4545TIP3    H235051   4.989   5.890   5.987  0.6537 -0.0259  0.6846
 4546TIP3   OH235052   3.351   4.994  13.157 -0.1555 -0.2290 -0.0883
 4546TIP3    H135053   3.323   4.937  13.085  0.0858 -1.1237  0.5163
 4546TIP3    H235054   3.446   4.997  13.149 -0.1220 -0.3963  0.2379
 4547TIP3   OH235055   3.372   0.166   3.972  0.1984 -0.9406  0.9130
 4547TIP3    H135056   3.315   0.243   3.979 -1.0201 -1.8655  1.4145
 4547TIP3    H235057   3.426   0.169   4.051  1.6868  0.5358 -0.0714
 4548TIP3   OH235058   0.159   4.067  15.529 -0.3374  0.4609 -0.7733
 4548TIP3    H135059   0.063   4.062  15.532 -0.2804 -0.8341  2.2672
 4548TIP3    H235060   0.181   4.134  15.594  0.8191  2.1092 -2.7781
 4549TIP3   OH235061   0.447   4.531   4.867  0.2865  0.1434  0.3422
 4549TIP3    H135062   0.468   4.612   4.819 -0.5165  0.4978  0.5738
 4549TIP3    H235063   0.487   4.544   4.953 -2.1687  1.5477  1.3742
 4550TIP3   OH235064   1.473   1.538  16.307 -0.4085  0.9002 -0.5403
 4550TIP3    H135065   1.478   1.611  16.369  0.3834 -1.0826  1.9102
 4550TIP3    H235066   1.529   1.564  16.234  0.6394  2.3386  0.7127
 4551TIP3   OH235067   6.542   2.752   1.703 -0.3175 -0.6002 -0.8621
 4551TIP3    H135068   6.535   2.658   1.687 -0.1265 -0.5713 -1.1326
 4551TIP3    H235069   6.517   2.763   1.794 -1.1299 -0.8155 -1.0524
 4552TIP3   OH235070   0.318   3.097  11.808  0.3896 -0.3202  0.5108
 4552TIP3    H135071   0.402   3.110  11.853 -0.3191  0.6615  1.5885
 4552TIP3    H235072   0.276   3.026  11.856  1.1161 -1.7065 -0.8245
 4553TIP3   OH235073   2.854   1.940   5.717 -0.1337 -0.5918 -0.2656
 4553TIP3    H135074   2.777   1.953   5.773  0.2663  1.7319 -0.1235
 4553TIP3    H235075   2.845   1.851   5.683 -1.8611 -1.0673  1.2648
 4554TIP3   OH235076   0.388   1.339  15.047 -0.1816 -0.4609 -0.2089
 4554TIP3    H135077   0.451   1.337  14.975  0.7401 -1.8575  0.5711
 4554TIP3    H235078   0.312   1.385  15.012  0.6299 -0.2108 -1.7290
 4555TIP3   OH235079   6.356   6.575   2.354 -0.4130 -0.8666  0.0168
 4555TIP3    H135080   6.329   6.667   2.359  3.6476  0.5385 -0.0214
 4555TIP3    H235081   6.342   6.540   2.442  0.9473  0.8536  0.9791
 4556TIP3   OH235082   4.124   1.774   3.049 -0.6472  0.0429 -0.1044
 4556TIP3    H135083   4.155   1.812   2.968 -1.2953  1.6029  0.3509
 4556TIP3    H235084   4.049   1.720   3.023  0.1174 -0.7482 -0.7206
 4557TIP3   OH235085   3.495   1.853   5.159 -0.0697  0.1455  0.8445
 4557TIP3    H135086   3.445   1.777   5.191  2.4550 -2.1485 -0.3042
 4557TIP3    H235087   3.574   1.854   5.213  0.9985  0.5331 -0.6823
 4558TIP3   OH235088   4.892   2.906  16.846  0.4830 -0.0780 -0.5262
 4558TIP3    H135089   4.862   2.979  16.792 -0.7275  0.3461  0.6748
 4558TIP3    H235090   4.832   2.834  16.824  0.3065 -0.0539 -0.1277
 4559TIP3   OH235091   1.724   6.288   6.450  0.3894 -0.1364 -0.1147
 4559TIP3    H135092   1.642   6.336   6.459  0.3713 -0.1766 -0.0645
 4559TIP3    H235093   1.707   6.203   6.491  0.9236  0.3889  1.2398
 4560TIP3   OH235094   3.766   2.749   0.077 -0.1521 -0.4597  0.3701
 4560TIP3    H135095   3.761   2.844   0.071 -0.2591 -0.5335 -1.2293
 4560TIP3    H235096   3.767   2.719  -0.014  2.9554 -1.8483  0.7299
 4561TIP3   OH235097   2.809   3.588   1.514  0.0338  0.2020  0.1099
 4561TIP3    H135098   2.778   3.572   1.425  0.1182  0.3653  0.0508
 4561TIP3    H235099   2.836   3.680   1.514  1.1597 -0.1139 -0.0344
 4562TIP3   OH235100   5.044   4.420  11.174 -0.3574  1.0809 -0.1604
 4562TIP3    H135101   4.971   4.431  11.113  0.1916  4.0391 -0.3956
 4562TIP3    H235102   5.105   4.490  11.152  1.1256  0.5799  2.0547
 4563TIP3   OH235103   1.107   2.462   5.478  0.5125 -0.2684  0.0545
 4563TIP3    H135104   1.023   2.502   5.500  1.2657  1.4876 -0.1581
 4563TIP3    H235105   1.137   2.421   5.560 -0.4745 -0.8210  0.1530
 4564TIP3   OH235106   2.858   0.836  16.713  0.7003  0.0855  0.3619
 4564TIP3    H135107   2.937   0.811  16.664 -0.0531  0.6463 -1.2018
 4564TIP3    H235108   2.795   0.767  16.694  0.9302 -0.6378  2.0325
 4565TIP3   OH235109   0.313   3.430  12.169  0.9813 -0.0363  0.3466
 4565TIP3    H135110   0.285   3.340  12.151 -0.1636  0.2383  0.6618
 4565TIP3    H235111   0.348   3.426  12.258  1.6382 -0.3232  0.0756
 4566TIP3   OH235112   6.490   3.242  11.719  0.3809  0.5294  0.1579
 4566TIP3    H135113   6.423   3.178  11.696 -0.9682  1.5186  1.1650
 4566TIP3    H235114   6.490   3.244  11.815  1.6460  0.7899  0.1772
 4567TIP3   OH235115   0.700   0.522   1.587  0.7682 -0.1060  0.3089
 4567TIP3    H135116   0.701   0.427   1.597  2.1562 -0.1936 -0.4737
 4567TIP3    H235117   0.666   0.537   1.499 -0.0010  0.1670  0.6383
 4568TIP3   OH235118   3.058   1.598  10.741  0.1103  0.1351 -0.2738
 4568TIP3    H135119   3.115   1.528  10.708  0.6380  0.0651  0.7601
 4568TIP3    H235120   2.970   1.560  10.737  0.3968 -0.6213  0.3329
 4569TIP3   OH235121   1.272   0.418   3.162  0.4215 -0.0580 -0.1061
 4569TIP3    H135122   1.334   0.491   3.168  0.2946 -0.0276  1.0316
 4569TIP3    H235123   1.187   0.456   3.180  0.4115 -0.5524  0.9628
 4570TIP3   OH235124   4.418   6.020  12.034 -0.9004  0.0072 -0.1400
 4570TIP3    H135125   4.425   6.049  12.125 -1.5783  1.2069 -0.4369
 4570TIP3    H235126   4.449   6.095  11.983 -0.0855 -0.8250 -0.8992
 4571TIP3   OH235127   6.400   5.711   6.306  0.4067  0.7219  0.2174
 4571TIP3    H135128   6.475   5.757   6.269  0.2936 -0.4336 -1.5494
 4571TIP3    H235129   6.436   5.665   6.382  1.8159 -0.7337 -1.2437
 4572TIP3   OH235130   4.776   3.033   1.170 -0.0952  0.3111 -0.1289
 4572TIP3    H135131   4.734   3.048   1.085 -1.0985 -0.4079  0.2148
 4572TIP3    H235132   4.810   3.118   1.196  0.2017  0.5370 -1.2427
 4573TIP3   OH235133   5.979   6.562   0.041 -0.7154 -0.6974 -0.1225
 4573TIP3    H135134   5.932   6.639   0.010  0.1622 -0.1984 -0.2440
 4573TIP3    H235135   6.000   6.582   0.132 -2.4933 -1.7787  0.5646
 4574TIP3   OH235136   2.731   4.863   1.101  0.1298 -0.4512 -0.1210
 4574TIP3    H135137   2.675   4.844   1.176  0.5877 -0.8889  0.1130
 4574TIP3    H235138   2.818   4.877   1.139 -0.1223  2.0623 -0.2561
 4575TIP3   OH235139   6.637   1.076   3.485  0.1190 -0.0531  0.2049
 4575TIP3    H135140   6.689   1.135   3.539  1.6615 -2.0905  1.1020
 4575TIP3    H235141   6.689   1.064   3.405  0.8504 -1.6592  0.8685
 4576TIP3   OH235142   4.855   3.332   3.686 -0.3007 -0.3536  0.1987
 4576TIP3    H135143   4.808   3.347   3.767  1.4200  0.8160  1.0423
 4576TIP3    H235144   4.789   3.296   3.626 -2.0143  0.3805  1.5585
 4577TIP3   OH235145   6.597   2.759   1.990 -0.4370  0.3023 -0.6624
 4577TIP3    H135146   6.646   2.678   1.972 -0.9481 -0.3481  0.7480
 4577TIP3    H235147   6.554   2.743   2.074 -0.2870  2.1837 -0.1856
 4578TIP3   OH235148   1.648   6.318  14.928 -0.1910 -0.2980 -0.1562
 4578TIP3    H135149   1.629   6.268  14.849  2.4183  0.1845 -1.1569
 4578TIP3    H235150   1.639   6.254  14.999 -0.4656 -1.2620 -1.0330
 4579TIP3   OH235151   0.013   2.469  11.120 -0.4219  0.9841 -0.1190
 4579TIP3    H135152  -0.041   2.460  11.041 -0.4853 -1.0826  0.0969
 4579TIP3    H235153   0.100   2.441  11.092 -0.3865  0.5005  0.4616
 4580TIP3   OH235154   0.506   0.945   3.615 -0.2598  0.1816  0.1800
 4580TIP3    H135155   0.562   0.870   3.597 -0.9171 -0.1874 -0.3598
 4580TIP3    H235156   0.545   1.016   3.563 -0.1814 -0.0208 -0.0422
 4581TIP3   OH235157   0.582   0.670   0.951  0.2865  0.2058  0.3285
 4581TIP3    H135158   0.582   0.761   0.979  0.4004  0.4401 -0.4088
 4581TIP3    H235159   0.556   0.621   1.029 -1.2201  0.9803  0.3386
 4582TIP3   OH235160   0.800   0.028  11.413 -0.0475 -0.1352  0.4395
 4582TIP3    H135161   0.850  -0.034  11.467  1.2374 -0.2673 -0.8536
 4582TIP3    H235162   0.714  -0.013  11.404  0.1710 -0.8012  1.1843
 4583TIP3   OH235163   0.550   6.632  16.705 -0.2722 -0.3611 -0.1603
 4583TIP3    H135164   0.516   6.720  16.723 -1.1676 -0.9594  1.1955
 4583TIP3    H235165   0.538   6.621  16.610 -3.4417 -0.3278  0.1268
 4584TIP3   OH235166   4.971   4.163  16.825 -0.5519 -0.4768  0.4792
 4584TIP3    H135167   4.921   4.099  16.876  1.0004 -0.0020  2.7564
 4584TIP3    H235168   4.922   4.244  16.832 -0.9436 -0.6852  0.1940
 4585TIP3   OH235169   1.469   2.615  14.304 -0.1506 -0.4019 -0.2209
 4585TIP3    H135170   1.436   2.658  14.225 -1.4589  0.2825  0.6638
 4585TIP3    H235171   1.407   2.544  14.321  0.1655 -0.5955  0.1433
 4586TIP3   OH235172   5.370   4.270   2.108  0.4311 -0.3580 -0.1025
 4586TIP3    H135173   5.334   4.304   2.026  0.1358  0.6686  0.4386
 4586TIP3    H235174   5.372   4.345   2.167  1.3130 -0.9151  0.6172
 4587TIP3   OH235175   0.232   6.420   4.983  0.2461  0.5666  0.2600
 4587TIP3    H135176   0.286   6.389   4.911  0.8901  0.1150  0.9283
 4587TIP3    H235177   0.288   6.414   5.060 -0.4993  0.8466  0.8400
 4588TIP3   OH235178   0.150   4.186   5.036  0.2526  0.0350 -0.3210
 4588TIP3    H135179   0.120   4.272   5.006 -1.8160  0.1751  1.8310
 4588TIP3    H235180   0.129   4.127   4.964  0.1206  1.0629 -1.1522
 4589TIP3   OH235181   5.529   6.707  10.913 -0.0504 -0.1820 -0.4726
 4589TIP3    H135182   5.621   6.734  10.905 -0.5280  1.1095 -2.3514
 4589TIP3    H235183   5.519   6.636  10.850 -0.3160 -0.3775 -0.2091
 4590TIP3   OH235184   5.791   2.342  15.796  0.0404 -0.4750  0.0861
 4590TIP3    H135185   5.722   2.369  15.857 -0.8444 -1.9402 -0.2114
 4590TIP3    H235186   5.784   2.403  15.723 -2.8905 -2.1807 -1.2632
 4591TIP3   OH235187   0.226   1.110   5.700  0.1761 -0.3997  0.3136
 4591TIP3    H135188   0.224   1.196   5.657  2.4715  0.2207  1.2712
 4591TIP3    H235189   0.240   1.130   5.793 -0.9720 -1.8083  0.8323
 4592TIP3   OH235190   2.706   3.122   0.984 -0.1285 -0.1500 -0.2542
 4592TIP3    H135191   2.759   3.201   0.972 -1.8987  1.1822  0.1325
 4592TIP3    H235192   2.745   3.077   1.058 -0.6022  1.7824  1.2463
 4593TIP3   OH235193   3.516   1.699   0.009 -0.2100 -0.6531  0.0304
 4593TIP3    H135194   3.606   1.721   0.032  0.4032 -1.5880 -1.3510
 4593TIP3    H235195   3.501   1.746  -0.074 -1.1811 -0.1093  0.4900
 4594TIP3   OH235196   6.119   2.850   6.138 -0.7354 -0.5219  0.1065
 4594TIP3    H135197   6.027   2.855   6.163 -0.6104 -1.5392  0.8315
 4594TIP3    H235198   6.136   2.756   6.130  0.5944 -0.4048  1.3180
 4595TIP3   OH235199   0.879   4.976  14.868  0.5549  0.2525  0.3460
 4595TIP3    H135200   0.852   5.010  14.783  1.0106 -1.2136 -0.4296
 4595TIP3    H235201   0.808   5.001  14.927 -0.4422  0.1493 -0.7484
 4596TIP3   OH235202   2.955   3.937   4.564 -0.5365 -0.3220 -0.2208
 4596TIP3    H135203   3.012   3.925   4.488 -0.4958 -0.8411 -0.1122
 4596TIP3    H235204   2.969   3.859   4.617 -0.1895  0.2657  0.5750
 4597TIP3   OH235205   1.011   2.460   4.217  0.1150  0.0254 -0.2114
 4597TIP3    H135206   1.089   2.511   4.236  0.4715 -0.4983 -0.2493
 4597TIP3    H235207   0.972   2.503   4.141 -0.0901  0.7783  0.3074
 4598TIP3   OH235208   5.224   1.498   5.273 -0.2346  0.0191  0.1518
 4598TIP3    H135209   5.283   1.570   5.251 -0.1887 -0.0989 -0.1181
 4598TIP3    H235210   5.250   1.471   5.361  0.7256 -0.6344 -0.3149
 4599TIP3   OH235211   0.183   4.524   5.684  0.4624  0.1141  0.0100
 4599TIP3    H135212   0.170   4.616   5.659  0.3982  0.7836  2.3108
 4599TIP3    H235213   0.148   4.518   5.773 -1.6174 -2.7214 -0.8549
 4600TIP3   OH235214   2.211   0.266   2.750 -0.7164  0.1537  0.6919
 4600TIP3    H135215   2.125   0.283   2.711 -1.6469 -1.0056  2.1386
 4600TIP3    H235216   2.230   0.343   2.802 -1.1228  0.2080  0.7628
 4601TIP3   OH235217   2.744   2.258  13.770 -0.6308  0.1589 -0.9202
 4601TIP3    H135218   2.760   2.324  13.837 -1.4852  0.1738 -0.7204
 4601TIP3    H235219   2.769   2.175  13.811  1.0483  0.3818 -1.3797
 4602TIP3   OH235220   5.332   0.658  16.733 -0.0123 -0.2758  0.5353
 4602TIP3    H135221   5.366   0.579  16.775  1.4244 -1.3167 -2.3424
 4602TIP3    H235222   5.243   0.635  16.705  0.6421 -1.1911 -0.9000
 4603TIP3   OH235223   0.467   6.464  16.214 -0.5854 -0.3332 -0.6346
 4603TIP3    H135224   0.487   6.494  16.126  0.6853 -3.2923 -1.4555
 4603TIP3    H235225   0.408   6.389  16.201 -0.8958 -0.4250  1.0769
 4604TIP3   OH235226   0.823   2.651   2.700  0.9821  0.5830  0.7614
 4604TIP3    H135227   0.857   2.740   2.702  1.1600  0.5863 -1.0386
 4604TIP3    H235228   0.887   2.599   2.748  3.4099  0.6653 -2.0708
 4605TIP3   OH235229   4.532   1.118  12.554  0.2866 -0.4143 -0.5662
 4605TIP3    H135230   4.466   1.154  12.614  0.4288 -1.0181 -0.0237
 4605TIP3    H235231   4.610   1.171  12.570 -0.3167  0.9235 -1.9001
 4606TIP3   OH235232   5.444   2.957  17.242 -0.1146  0.0073  0.3287
 4606TIP3    H135233   5.419   2.928  17.155 -0.3773 -0.5003  0.5634
 4606TIP3    H235234   5.367   3.003  17.276 -0.5748 -1.0875  0.8469
 4607TIP3   OH235235   2.798   6.024   1.204 -0.4659 -0.1126 -0.0796
 4607TIP3    H135236   2.775   6.071   1.125  1.5680 -1.4331 -1.5608
 4607TIP3    H235237   2.733   5.953   1.209 -1.0791  0.4344 -0.0809
 4608TIP3   OH235238   0.418   3.553  15.631 -0.4385 -0.3881 -0.2134
 4608TIP3    H135239   0.451   3.506  15.555  0.1634 -1.4796  0.6876
 4608TIP3    H235240   0.400   3.641  15.599 -1.2369 -1.1064 -1.8689
 4609TIP3   OH235241   3.451   4.601  14.092 -0.9758 -0.0876  0.1777
 4609TIP3    H135242   3.504   4.559  14.160 -0.8607 -0.0581  0.1057
 4609TIP3    H235243   3.514   4.628  14.026 -1.1758 -0.9306 -0.3736
 4610TIP3   OH235244   3.862   5.781  11.235 -0.5042  0.5122  0.6076
 4610TIP3    H135245   3.924   5.707  11.241  1.0284  1.6311 -0.6196
 4610TIP3    H235246   3.795   5.752  11.174 -0.9608 -0.5294  1.5573
 4611TIP3   OH235247   4.028   6.060  14.398 -0.1315  0.4421  0.5875
 4611TIP3    H135248   3.938   6.093  14.395  0.3887  2.1442  1.9151
 4611TIP3    H235249   4.021   5.976  14.443 -1.1010  0.3478  0.2864
 4612TIP3   OH235250   5.385   6.517   0.985 -0.3096  0.0768 -0.1006
 4612TIP3    H135251   5.350   6.447   0.930  0.3378 -1.8296  1.7875
 4612TIP3    H235252   5.480   6.512   0.972 -0.2274  0.2954  0.4214
 4613TIP3   OH235253   3.999   3.650  12.579  0.2295  0.9128 -0.2950
 4613TIP3    H135254   4.052   3.616  12.507 -0.9090 -0.2955 -0.5897
 4613TIP3    H235255   3.913   3.610  12.568 -0.5342  2.1980  0.6461
 4614TIP3   OH235256   0.923   5.986   1.081 -0.2088  0.2256 -0.2582
 4614TIP3    H135257   0.895   5.945   1.163 -0.2316 -0.0794 -0.4154
 4614TIP3    H235258   0.843   5.999   1.032 -0.6749  3.5966  1.1430
 4615TIP3   OH235259   5.563   0.664  17.126 -0.0466 -0.1543 -0.3661
 4615TIP3    H135260   5.541   0.593  17.187  1.6448 -1.0219 -0.7295
 4615TIP3    H235261   5.479   0.691  17.090 -0.7089 -2.0829 -0.3434
 4616TIP3   OH235262   0.424   1.439  16.681 -0.3651 -0.0670 -0.0664
 4616TIP3    H135263   0.422   1.402  16.769 -0.0640 -3.3354 -1.2798
 4616TIP3    H235264   0.517   1.444  16.660 -0.4503  0.2365 -0.3735
 4617TIP3   OH235265   4.664   3.638  12.765  0.0568 -0.4156 -0.2141
 4617TIP3    H135266   4.595   3.597  12.818 -0.4658  0.7909  0.0844
 4617TIP3    H235267   4.683   3.720  12.812  0.5061  0.0542 -1.2054
 4618TIP3   OH235268   3.078   3.165  14.008 -0.3357 -0.3984  0.3458
 4618TIP3    H135269   3.077   3.245  14.061 -0.7131  0.2435 -0.6082
 4618TIP3    H235270   3.028   3.102  14.060  1.5721 -0.6501  2.0107
 4619TIP3   OH235271   2.649   3.085  12.519 -0.2438 -0.1810 -0.2393
 4619TIP3    H135272   2.564   3.128  12.518  0.0576  0.5398 -2.8712
 4619TIP3    H235273   2.645   3.026  12.594 -2.8991  0.1114 -0.0480
 4620TIP3   OH235274   4.944   3.164   0.230  0.6166 -0.3823  0.5813
 4620TIP3    H135275   5.025   3.167   0.281  0.8449  3.4406  0.3271
 4620TIP3    H235276   4.876   3.191   0.291 -0.0739 -1.1882  0.1884
 4621TIP3   OH235277   2.214   4.917   0.320 -0.1418  0.2803  0.0502
 4621TIP3    H135278   2.158   4.866   0.261  0.4450 -0.6568  0.2823
 4621TIP3    H235279   2.230   4.859   0.395  2.9548 -0.4259 -0.9923
 4622TIP3   OH235280   4.704   6.576  12.045 -0.7196 -0.6722  0.2505
 4622TIP3    H135281   4.610   6.595  12.046 -0.3629  1.4243 -0.9251
 4622TIP3    H235282   4.725   6.563  11.952 -0.0898 -2.6230  0.6273
 4623TIP3   OH235283   0.118   5.194  13.555  0.2680  0.7880 -0.6851
 4623TIP3    H135284   0.175   5.201  13.478  0.0359 -1.0072 -1.0776
 4623TIP3    H235285   0.033   5.226  13.525  0.3960  0.9029 -0.9266
 4624TIP3   OH235286   5.791   4.467  11.387 -0.6043  0.2605  0.8712
 4624TIP3    H135287   5.720   4.511  11.434 -0.1361  0.2322  1.6063
 4624TIP3    H235288   5.759   4.378  11.374 -1.2115  0.5730  0.1039
 4625TIP3   OH235289   1.161   0.283   2.436  0.2672 -0.4729  0.3841
 4625TIP3    H135290   1.188   0.325   2.517  0.9156 -2.5094  1.2776
 4625TIP3    H235291   1.065   0.280   2.441 -0.2859  4.4135 -1.6023
 4626TIP3   OH235292   0.887   1.539  17.205  0.7956 -0.3354 -0.2751
 4626TIP3    H135293   0.896   1.608  17.139  0.6631  0.0787  0.1360
 4626TIP3    H235294   0.914   1.581  17.287  2.9202 -1.3997 -0.3691
 4627TIP3   OH235295   0.255   3.161  15.473 -0.1729  0.6755  0.4969
 4627TIP3    H135296   0.221   3.074  15.455 -2.8487  1.7611 -0.2235
 4627TIP3    H235297   0.303   3.186  15.394 -2.6063  1.2352 -0.8717
 4628TIP3   OH235298   1.282   3.247   1.391  0.2795 -0.0230  0.5159
 4628TIP3    H135299   1.269   3.312   1.459  0.3352  1.7098 -1.0500
 4628TIP3    H235300   1.285   3.163   1.437 -4.0917  0.5322  2.2342
 4629TIP3   OH235301   6.392   1.786  13.264  0.0795  0.6706  0.2593
 4629TIP3    H135302   6.327   1.829  13.208 -0.6421  0.1391  0.6836
 4629TIP3    H235303   6.374   1.819  13.352  1.7392  2.1424  0.1090
 4630TIP3   OH235304   1.376   2.065   0.634 -0.1542 -0.7281  0.2444
 4630TIP3    H135305   1.445   2.079   0.569  0.2038  1.8771  1.0837
 4630TIP3    H235306   1.408   1.993   0.688  0.6469 -1.3143 -0.9746
 4631TIP3   OH235307   5.801   4.862   0.603  0.4713  0.3583 -0.2104
 4631TIP3    H135308   5.873   4.850   0.541  0.3686 -2.1204  0.0492
 4631TIP3    H235309   5.797   4.956   0.616  2.1683  0.7584 -1.9845
 4632TIP3   OH235310   2.943   3.991   2.833  0.6290  0.3033  0.9215
 4632TIP3    H135311   2.904   3.943   2.761  3.5844 -2.0619  0.7161
 4632TIP3    H235312   2.953   4.080   2.800 -1.8002  0.3108  0.0240
 4633TIP3   OH235313   6.365   2.319   1.055 -0.0083  0.4199  0.3147
 4633TIP3    H135314   6.430   2.383   1.083  0.1233  0.1075  0.7301
 4633TIP3    H235315   6.379   2.309   0.961  0.0821  0.8704  0.2780
 4634TIP3   OH235316   5.044   4.744   5.226 -0.5802  0.3050  0.8210
 4634TIP3    H135317   5.113   4.771   5.287 -1.3573  1.4544  1.2363
 4634TIP3    H235318   4.992   4.824   5.213 -0.9588 -0.1537 -0.6465
 4635TIP3   OH235319   3.739   1.265   5.320  0.2752 -0.0021 -0.3032
 4635TIP3    H135320   3.725   1.195   5.256 -1.3737  0.2133 -0.2293
 4635TIP3    H235321   3.674   1.331   5.297  1.1715  1.1005  0.2166
 4636TIP3   OH235322   4.088   2.293   5.808 -0.2036  0.0285  0.4979
 4636TIP3    H135323   4.045   2.233   5.870 -1.1216 -0.5869 -0.7046
 4636TIP3    H235324   4.170   2.317   5.852 -0.6924 -0.6175  1.8267
 4637TIP3   OH235325   5.999   0.801  11.682 -0.2454 -0.3857 -0.7393
 4637TIP3    H135326   5.956   0.838  11.605 -0.9843 -1.6636 -0.9650
 4637TIP3    H235327   5.927   0.771  11.738  0.3114 -0.5420 -0.0924
 4638TIP3   OH235328   0.660   4.084  13.614 -0.1927  0.0244 -0.4208
 4638TIP3    H135329   0.612   4.005  13.642 -0.9949  0.0170 -1.7312
 4638TIP3    H235330   0.604   4.157  13.641  0.8262  0.2333  1.3304
 4639TIP3   OH235331   0.696   1.972   1.104 -0.1184 -0.3987 -0.6084
 4639TIP3    H135332   0.784   2.008   1.102  0.3807 -1.5524 -0.1725
 4639TIP3    H235333   0.645   2.036   1.154  0.5926  0.0097 -0.3858
 4640TIP3   OH235334   0.882   2.609   4.032 -0.1782  0.3441  0.3574
 4640TIP3    H135335   0.857   2.675   4.097 -0.9193 -0.9983  1.4880
 4640TIP3    H235336   0.799   2.575   3.999  0.1947  0.5170 -0.8164
 4641TIP3   OH235337   0.703   6.084  13.661  0.0549  0.1551 -0.4631
 4641TIP3    H135338   0.610   6.084  13.641 -0.0417  2.0355 -0.2127
 4641TIP3    H235339   0.726   5.992  13.670 -1.7382 -0.3476 -0.6704
 4642TIP3   OH235340   6.750   4.428  15.463 -0.2143  0.0752  0.1986
 4642TIP3    H135341   6.840   4.441  15.434 -0.0135 -0.2976  0.6550
 4642TIP3    H235342   6.727   4.510  15.507 -1.7971  2.2711 -4.1174
 4643TIP3   OH235343   3.235   0.847   1.587 -0.1800 -0.3151  0.1793
 4643TIP3    H135344   3.297   0.881   1.652 -1.4586 -1.4127  2.0583
 4643TIP3    H235345   3.185   0.780   1.634 -0.6158 -1.7620 -2.1826
 4644TIP3   OH235346   6.403   6.105   2.223  0.5073  0.3917  0.1608
 4644TIP3    H135347   6.369   6.121   2.311 -1.5536  2.6231 -0.9434
 4644TIP3    H235348   6.418   6.010   2.221 -2.9089 -0.3426  1.7565
 4645TIP3   OH235349   4.166   4.269  12.585  0.6562  0.3793 -0.3296
 4645TIP3    H135350   4.137   4.183  12.554  1.5959  0.5409 -1.7576
 4645TIP3    H235351   4.162   4.325  12.508 -0.3277  1.7415  0.6741
 4646TIP3   OH235352   6.671   6.660   5.513  0.6377 -0.9748  0.3680
 4646TIP3    H135353   6.752   6.693   5.474 -0.2238 -0.3171 -0.9414
 4646TIP3    H235354   6.628   6.738   5.549  0.1191 -1.1492  0.1449
 4647TIP3   OH235355   2.820   4.975  13.327  0.5838  0.5612  0.3961
 4647TIP3    H135356   2.797   4.889  13.293 -0.2810  1.2845 -0.9550
 4647TIP3    H235357   2.892   4.959  13.387  1.2098 -0.9593 -0.7041
 4648TIP3   OH235358   5.521   1.059   4.577 -0.4290 -0.0366 -0.4531
 4648TIP3    H135359   5.505   1.132   4.517  2.8459  0.2989 -1.0900
 4648TIP3    H235360   5.550   1.100   4.658  0.4429 -0.5793 -0.4779
 4649TIP3   OH235361   5.013   4.748   6.427  0.1437  0.4122 -0.1766
 4649TIP3    H135362   4.936   4.803   6.442 -0.8087 -1.0033  0.2912
 4649TIP3    H235363   5.014   4.734   6.332 -1.0155 -0.7157 -0.0393
 4650TIP3   OH235364   3.575   6.041  17.308 -0.0784 -0.1458  0.3789
 4650TIP3    H135365   3.497   6.080  17.267 -0.3592 -0.3971  0.6676
 4650TIP3    H235366   3.577   6.079  17.396  0.7849  0.7533 -0.0058
 4651TIP3   OH235367   6.139   4.795  13.802  0.1686  0.2394  0.1456
 4651TIP3    H135368   6.158   4.717  13.853 -3.0347 -0.7983  0.0034
 4651TIP3    H235369   6.192   4.787  13.723  1.6030 -0.5620  1.1526
 4652TIP3   OH235370   1.522   1.430  14.876 -0.3815 -0.4605  0.5108
 4652TIP3    H135371   1.483   1.350  14.839  2.1002 -0.5298 -2.3039
 4652TIP3    H235372   1.540   1.485  14.801  3.5825  0.0989  1.6361
 4653TIP3   OH235373   4.459   5.385   3.963  0.0963 -0.2516 -0.0291
 4653TIP3    H135374   4.396   5.455   3.942  0.8239  1.1732  2.1839
 4653TIP3    H235375   4.411   5.327   4.023  0.4655  0.1663  0.6910
 4654TIP3   OH235376   0.173   4.589   2.605  0.3777  0.1770 -0.5313
 4654TIP3    H135377   0.100   4.582   2.666  0.4702 -1.8501 -0.5974
 4654TIP3    H235378   0.168   4.679   2.572  0.3375  1.4047  2.4603
 4655TIP3   OH235379   4.371   3.553  11.302  0.3807 -0.2494  0.0167
 4655TIP3    H135380   4.378   3.586  11.213  0.6146  1.1514  0.5183
 4655TIP3    H235381   4.416   3.469  11.301 -1.7696 -1.4779 -1.7375
 4656TIP3   OH235382   5.072   0.479  15.949  0.1535  0.2398 -0.1438
 4656TIP3    H135383   5.011   0.539  15.991  0.0725  0.4519 -0.5622
 4656TIP3    H235384   5.020   0.399  15.934  0.0493  0.3299 -0.2672
 4657TIP3   OH235385   2.973   3.653  11.066  0.6155  0.0290  0.6310
 4657TIP3    H135386   2.914   3.711  11.019 -1.4461 -2.4475 -0.0567
 4657TIP3    H235387   3.043   3.635  11.003  0.4613  0.5219  0.3115
 4658TIP3   OH235388   2.305   6.389   2.053  0.0777 -0.5223  0.5380
 4658TIP3    H135389   2.261   6.342   1.981 -1.7700  0.9267  0.6460
 4658TIP3    H235390   2.262   6.356   2.132  1.9303 -1.9238  1.0487
 4659TIP3   OH235391   1.288   3.778  16.938  0.4086 -0.2930 -0.4167
 4659TIP3    H135392   1.332   3.714  16.994  1.2177 -1.0850 -1.9017
 4659TIP3    H235393   1.327   3.862  16.963  0.1717 -0.5135  0.7491
 4660TIP3   OH235394   2.888   1.511   3.350 -0.0163  0.3560  0.1598
 4660TIP3    H135395   2.864   1.485   3.439  0.6844  0.1820  0.3055
 4660TIP3    H235396   2.961   1.453   3.327 -0.5168  0.0565 -0.7245
 4661TIP3   OH235397   3.959   2.978  14.470  0.3138 -0.1113  0.0614
 4661TIP3    H135398   3.885   2.983  14.409  0.7114  2.5664 -0.3180
 4661TIP3    H235399   4.031   3.019  14.423  0.6681  1.9347  2.2000
 4662TIP3   OH235400   1.419   6.330  12.635  0.1531 -0.4242  0.0354
 4662TIP3    H135401   1.392   6.333  12.727  0.9607  0.4207  0.2588
 4662TIP3    H235402   1.386   6.411  12.598 -0.2579 -0.8118 -0.4558
 4663TIP3   OH235403   2.595   6.054  16.473 -0.3025  1.0314  0.3697
 4663TIP3    H135404   2.649   6.067  16.551  0.0528 -0.3442  0.3793
 4663TIP3    H235405   2.658   6.049  16.401 -0.5305  0.9282  0.1771
 4664TIP3   OH235406   3.368   2.875   1.410 -0.0936 -0.4176 -0.0155
 4664TIP3    H135407   3.448   2.920   1.439 -0.2697  0.5199 -0.9392
 4664TIP3    H235408   3.304   2.895   1.478  0.6473 -1.8864  1.1896
 4665TIP3   OH235409   5.537   5.652   1.245 -0.2638  0.4897 -0.2444
 4665TIP3    H135410   5.468   5.718   1.249 -0.4818  0.2717 -0.4159
 4665TIP3    H235411   5.561   5.647   1.152  1.0660  1.6828  0.0039
 4666TIP3   OH235412   3.843   1.316  10.733  0.6533  0.5567 -0.3452
 4666TIP3    H135413   3.822   1.314  10.639 -0.0565  0.6356 -0.1895
 4666TIP3    H235414   3.813   1.401  10.763 -1.3416 -0.3548  0.4422
 4667TIP3   OH235415   0.823   0.696  14.145  0.3248  0.0052 -0.4583
 4667TIP3    H135416   0.865   0.614  14.118 -1.9879 -1.9796  1.4795
 4667TIP3    H235417   0.859   0.714  14.232  0.8330  1.1368 -0.8736
 4668TIP3   OH235418   5.565   4.768  16.792 -0.1860 -0.4006  0.1287
 4668TIP3    H135419   5.517   4.844  16.825 -1.1293 -0.4056 -1.1467
 4668TIP3    H235420   5.655   4.782  16.821 -0.0155  1.9524 -1.2956
 4669TIP3   OH235421   2.834   5.125   0.224 -0.3266 -0.1582 -0.0544
 4669TIP3    H135422   2.836   5.189   0.294  0.5350 -1.0340  0.7464
 4669TIP3    H235423   2.925   5.113   0.198 -0.4176 -1.3645  0.1056
 4670TIP3   OH235424   6.263   5.719  16.114 -0.1805 -0.7915 -0.1246
 4670TIP3    H135425   6.262   5.624  16.124 -1.3290 -0.9078 -1.0797
 4670TIP3    H235426   6.173   5.746  16.132 -0.0499  0.0181 -0.6149
 4671TIP3   OH235427   2.117   2.240  13.205 -0.4563  0.0019 -0.5169
 4671TIP3    H135428   2.205   2.219  13.237 -0.7210 -2.2600 -1.0783
 4671TIP3    H235429   2.069   2.266  13.284  0.1075 -1.0916  0.2241
 4672TIP3   OH235430   1.495   6.664   2.099  0.3734 -0.2130  0.0649
 4672TIP3    H135431   1.427   6.697   2.158  0.0747  0.9682 -0.8884
 4672TIP3    H235432   1.569   6.645   2.156 -0.0910  0.3506  0.8913
 4673TIP3   OH235433   0.254   2.058  12.705 -0.3595 -0.4073  0.2032
 4673TIP3    H135434   0.287   2.145  12.726  0.3216 -0.0581 -2.0735
 4673TIP3    H235435   0.332   2.005  12.692 -0.7482 -0.8779 -0.2663
 4674TIP3   OH235436   3.419   3.220  16.754  0.3214 -0.2010  0.5419
 4674TIP3    H135437   3.440   3.216  16.847  0.6120 -0.6768  0.4578
 4674TIP3    H235438   3.496   3.184  16.710 -0.2826 -1.1022  0.1798
 4675TIP3   OH235439   3.255   2.439   5.101  0.0147 -0.5385 -0.0300
 4675TIP3    H135440   3.307   2.388   5.163  0.2665  0.6348  0.7454
 4675TIP3    H235441   3.168   2.399   5.104  0.2194 -0.9473  0.5273
 4676TIP3   OH235442   1.651   3.275   4.083 -0.0775  0.4217 -0.6902
 4676TIP3    H135443   1.616   3.282   3.995 -1.2645  1.0333 -0.2027
 4676TIP3    H235444   1.614   3.351   4.129  1.9177  1.1110 -0.1270
 4677TIP3   OH235445   1.096   0.324   0.185 -0.0374 -0.6008 -0.3326
 4677TIP3    H135446   1.104   0.256   0.252 -0.4953 -0.3203  0.0069
 4677TIP3    H235447   1.177   0.317   0.135  0.9726  0.0950  1.1138
 4678TIP3   OH235448   2.417   2.578  11.634 -0.0222  0.4091 -0.5287
 4678TIP3    H135449   2.436   2.643  11.701 -1.5009 -0.4637  0.7828
 4678TIP3    H235450   2.503   2.543  11.609  0.4921 -0.0668  1.7523
 4679TIP3   OH235451   3.596   6.014   2.064  0.1933  0.5167 -0.4700
 4679TIP3    H135452   3.562   6.033   2.152  1.1492  0.8515 -0.1576
 4679TIP3    H235453   3.518   5.998   2.011 -0.3679 -1.0329  0.7370
 4680TIP3   OH235454   5.136   0.391  12.813 -0.2870 -0.2561 -0.0420
 4680TIP3    H135455   5.057   0.344  12.788 -0.3369 -1.0480  1.4871
 4680TIP3    H235456   5.187   0.398  12.732 -1.6210 -0.2977 -0.9056
 4681TIP3   OH235457   4.757   3.653   1.430  0.8030 -0.3911 -0.6551
 4681TIP3    H135458   4.808   3.602   1.367 -0.1681 -1.5932 -0.4949
 4681TIP3    H235459   4.690   3.593   1.463  1.3282  0.1535  1.6187
 4682TIP3   OH235460   5.785   5.032  14.219  0.2257 -0.1540  0.2732
 4682TIP3    H135461   5.771   4.983  14.138 -1.2186  0.2728  0.2325
 4682TIP3    H235462   5.880   5.037  14.228  0.4025 -1.2663 -0.7431
 4683TIP3   OH235463   5.418   5.627  11.893  0.1823  0.2454 -0.4454
 4683TIP3    H135464   5.507   5.590  11.889 -0.4534 -1.4882  0.3359
 4683TIP3    H235465   5.398   5.629  11.987 -0.4806  0.9496 -0.5955
 4684TIP3   OH235466   6.552   6.450  12.377  0.6727 -0.2443 -0.4921
 4684TIP3    H135467   6.558   6.538  12.415 -1.6706  0.4019 -1.4918
 4684TIP3    H235468   6.471   6.414  12.412  1.0235 -1.5728 -0.9995
 4685TIP3   OH235469   4.253   1.021   1.767 -0.0287 -0.0898 -0.5670
 4685TIP3    H135470   4.157   1.023   1.767 -0.0557 -0.9073 -0.7610
 4685TIP3    H235471   4.276   0.972   1.846  0.2187 -0.1180 -0.6562
 4686TIP3   OH235472   2.470   5.958  11.417 -0.4216  0.2031 -0.3383
 4686TIP3    H135473   2.439   5.963  11.508  0.3040  1.3314 -0.1337
 4686TIP3    H235474   2.441   6.040  11.378  1.0054  0.6144 -0.5559
 4687TIP3   OH235475   1.065   1.306  14.854 -0.2232 -0.2647 -0.9580
 4687TIP3    H135476   1.093   1.380  14.800  0.1246 -0.4094 -0.9756
 4687TIP3    H235477   1.124   1.308  14.930 -2.1638  1.3770  0.6529
 4688TIP3   OH235478   2.501   0.323   2.749  0.1291 -0.2289 -0.0472
 4688TIP3    H135479   2.526   0.394   2.690  0.6562 -0.7130 -0.4268
 4688TIP3    H235480   2.405   0.323   2.748  0.0928 -1.0333 -1.9470
 4689TIP3   OH235481   4.830   6.449   3.599 -0.5237 -0.5542 -0.4259
 4689TIP3    H135482   4.829   6.439   3.694 -0.0508 -0.1493 -0.3716
 4689TIP3    H235483   4.869   6.368   3.566 -0.0038 -0.3958 -0.2212
 4690TIP3   OH235484   0.342   0.765   1.098 -0.2850  0.4799  0.6063
 4690TIP3    H135485   0.339   0.675   1.066 -0.7119  0.2226  1.3670
 4690TIP3    H235486   0.265   0.774   1.154  0.3082  1.0042  1.3612
 4691TIP3   OH235487   4.477   0.895  17.333 -0.0896 -0.2344 -0.5249
 4691TIP3    H135488   4.535   0.958  17.292  0.6263 -0.9899 -0.7045
 4691TIP3    H235489   4.534   0.847  17.394 -0.5345 -0.9351 -0.6500
 4692TIP3   OH235490   6.354   3.688   2.349 -0.8505 -0.2787  0.3221
 4692TIP3    H135491   6.307   3.630   2.409  1.0188 -0.6467  1.4988
 4692TIP3    H235492   6.339   3.776   2.384 -1.0851 -0.3496  0.3996
 4693TIP3   OH235493   5.276   6.522  16.528 -0.7225 -0.0484 -0.0599
 4693TIP3    H135494   5.361   6.565  16.519 -1.1443  0.4142 -2.4557
 4693TIP3    H235495   5.214   6.594  16.541 -0.8734 -0.3232  0.8254
 4694TIP3   OH235496   4.906   5.933  14.708  0.0599 -0.0596 -0.1067
 4694TIP3    H135497   4.948   5.847  14.717 -1.6779 -1.2370 -2.1994
 4694TIP3    H235498   4.963   5.982  14.650  1.0622  0.2646  1.0995
 4695TIP3   OH235499   6.746   4.949   3.308  0.4197  0.2408 -0.4013
 4695TIP3    H135500   6.827   4.931   3.262  1.2434  1.1555  0.6534
 4695TIP3    H235501   6.713   5.030   3.269  0.4291  0.3077 -0.2696
 4696TIP3   OH235502   1.597   0.451  13.811  0.1310  0.2732 -0.2658
 4696TIP3    H135503   1.676   0.427  13.860 -0.1016 -0.0777 -0.0558
 4696TIP3    H235504   1.537   0.483  13.878  0.8703  2.6851 -0.6721
 4697TIP3   OH235505   5.565   2.599   1.002 -0.1911  0.1947  0.0682
 4697TIP3    H135506   5.519   2.561   1.077  0.2806 -0.9034 -0.1776
 4697TIP3    H235507   5.496   2.611   0.936 -0.3385 -0.2964  0.1292
 4698TIP3   OH235508   5.370   3.938  16.773  0.0415  0.3534 -0.0377
 4698TIP3    H135509   5.459   3.942  16.808 -0.2015 -2.3853  1.1826
 4698TIP3    H235510   5.376   3.879  16.698 -0.8079 -0.3981  0.4599
 4699TIP3   OH235511   1.750   3.281   5.345  0.2458  0.2000  0.1848
 4699TIP3    H135512   1.788   3.353   5.296  0.8631 -0.4153 -0.2582
 4699TIP3    H235513   1.813   3.263   5.415 -0.2759  0.5904  0.7642
 4700TIP3   OH235514   4.718   2.966   3.351  0.8413 -0.0581  0.0122
 4700TIP3    H135515   4.707   2.967   3.256  1.6203  0.3009 -0.0801
 4700TIP3    H235516   4.634   2.934   3.385 -0.0319  1.4315 -0.6935
 4701TIP3   OH235517   3.881   0.459   3.832  0.2149 -0.1732 -0.3909
 4701TIP3    H135518   3.859   0.497   3.917  1.5240 -1.6718  0.6859
 4701TIP3    H235519   3.797   0.437   3.793 -0.5035 -3.4639  2.4810
 4702TIP3   OH235520   4.393   2.586  17.086 -0.4417  0.8717  0.3405
 4702TIP3    H135521   4.331   2.515  17.101 -0.8860  0.7348 -1.8668
 4702TIP3    H235522   4.462   2.572  17.151 -1.1089 -0.8703  0.7216
 4703TIP3   OH235523   2.539   3.059  14.881 -0.3177  0.0568  0.3335
 4703TIP3    H135524   2.558   2.997  14.951 -0.7396 -2.2295 -1.4286
 4703TIP3    H235525   2.624   3.075  14.839 -0.2741  0.3554  0.5325
 4704TIP3   OH235526   6.271   4.235  17.116 -0.7892 -0.0689 -0.2593
 4704TIP3    H135527   6.350   4.285  17.138 -1.0678  1.2773 -2.1259
 4704TIP3    H235528   6.268   4.167  17.183  0.8035  1.0891  1.1091
 4705TIP3   OH235529   0.479   2.564  16.427  0.3932  0.0036 -0.2205
 4705TIP3    H135530   0.389   2.560  16.461 -0.5461  1.0622 -2.4115
 4705TIP3    H235531   0.503   2.472  16.412 -0.3457 -0.2860  0.3051
 4706TIP3   OH235532   2.661   0.530  12.289  0.2112  0.3790 -0.6806
 4706TIP3    H135533   2.621   0.454  12.247  1.1324 -0.2756 -0.4021
 4706TIP3    H235534   2.618   0.535  12.374  0.4475 -0.0891 -0.5322
 4707TIP3   OH235535   1.463   4.368  12.586  0.0013  0.5477 -0.1225
 4707TIP3    H135536   1.496   4.405  12.668  0.5211 -0.1656  0.0012
 4707TIP3    H235537   1.399   4.432  12.555 -0.1551  0.8591  0.8064
 4708TIP3   OH235538   0.251   3.760   4.912 -0.4502  0.2165 -0.1922
 4708TIP3    H135539   0.232   3.704   4.838 -0.7559  1.4228 -1.0638
 4708TIP3    H235540   0.276   3.844   4.873  0.0732  0.6729  1.0587
 4709TIP3   OH235541   1.130   1.021   0.183 -0.1300 -0.1427  0.2896
 4709TIP3    H135542   1.070   0.963   0.230 -0.0372 -0.0749  0.4908
 4709TIP3    H235543   1.075   1.066   0.119  0.1549 -2.2262 -1.5792
 4710TIP3   OH235544   0.321   4.423  16.129  0.3250 -0.5665  0.2254
 4710TIP3    H135545   0.381   4.489  16.164  0.9728 -1.2677  0.4656
 4710TIP3    H235546   0.322   4.438  16.034 -1.2351  1.1698  0.4180
 4711TIP3   OH235547   5.659   4.688  15.562  0.1291  1.1516 -0.1964
 4711TIP3    H135548   5.675   4.702  15.468  0.2066  1.0181 -0.2042
 4711TIP3    H235549   5.635   4.596  15.568  0.2410  1.1307 -0.0708
 4712TIP3   OH235550   3.145   3.782   5.462 -0.3095  0.2024  0.6479
 4712TIP3    H135551   3.187   3.785   5.547  0.7483  0.4079  0.1311
 4712TIP3    H235552   3.153   3.691   5.434 -1.2492 -0.0136  1.0450
 4713TIP3   OH235553   5.392   0.288  13.940  0.3966 -0.2550  0.4527
 4713TIP3    H135554   5.475   0.267  13.983  0.1138  0.5864  1.4658
 4713TIP3    H235555   5.416   0.306  13.849  1.0528 -1.8272  0.2811
 4714TIP3   OH235556   4.688   0.966  12.096 -0.4010  0.2156  0.5294
 4714TIP3    H135557   4.622   1.013  12.147 -1.1799 -0.4537  0.1552
 4714TIP3    H235558   4.642   0.934  12.019  0.0743 -1.2388  0.8173
 4715TIP3   OH235559   2.341   5.863   5.908  0.3992  0.0955 -0.4121
 4715TIP3    H135560   2.267   5.811   5.877  0.8404 -1.1320  0.5055
 4715TIP3    H235561   2.329   5.868   6.003  1.8032 -0.6783 -0.1669
 4716TIP3   OH235562   3.133   0.866  15.863 -0.2545 -0.1935 -0.4095
 4716TIP3    H135563   3.153   0.773  15.875 -1.4805 -0.2265  1.7479
 4716TIP3    H235564   3.206   0.911  15.906 -1.0777 -0.2299  1.0833
 4717TIP3   OH235565   5.543   4.740  15.790  0.7341  0.2378 -0.7077
 4717TIP3    H135566   5.574   4.723  15.701  0.4315  0.4594 -0.8548
 4717TIP3    H235567   5.596   4.682  15.845  0.4311 -0.4245 -1.1049
 4718TIP3   OH235568   2.866   6.097  15.709 -0.1140  0.1759 -0.0072
 4718TIP3    H135569   2.887   6.189  15.728 -2.0052  0.8117 -0.7605
 4718TIP3    H235570   2.951   6.057  15.689  0.6390  2.0247 -0.7454
 4719TIP3   OH235571   1.658   4.211  12.977 -0.2193 -0.2606 -0.0237
 4719TIP3    H135572   1.660   4.185  13.069  1.0743 -0.1637 -0.0093
 4719TIP3    H235573   1.681   4.304  12.977  0.1912 -0.3577 -0.4718
 4720TIP3   OH235574   1.724   4.969  17.310 -0.0572 -0.2309 -0.1021
 4720TIP3    H135575   1.685   5.016  17.236  1.8123  0.2479 -0.8326
 4720TIP3    H235576   1.731   4.878  17.279  0.1954 -0.1448 -0.2985
 4721TIP3   OH235577   1.088   0.000  15.648  0.6570  0.7371 -0.1761
 4721TIP3    H135578   1.059   0.058  15.719  1.3678  2.2794 -1.0986
 4721TIP3    H235579   1.137  -0.069  15.692 -1.7327 -0.2512  1.1327
 4722TIP3   OH235580   6.202   2.872   3.355 -0.4726  0.0156 -0.1121
 4722TIP3    H135581   6.135   2.922   3.402  0.3144  0.4011  0.6326
 4722TIP3    H235582   6.282   2.924   3.365 -0.2655  0.1030 -1.8843
 4723TIP3   OH235583   0.186   0.039  12.643  0.0140  0.1918 -0.2644
 4723TIP3    H135584   0.278   0.013  12.653  0.0001  0.2261 -0.0289
 4723TIP3    H235585   0.174   0.052  12.549  0.9203  2.5570 -0.1419
 4724TIP3   OH235586   4.546   3.234   2.203  0.4921 -0.8697 -0.4862
 4724TIP3    H135587   4.504   3.278   2.277 -0.4526 -3.3619  0.5637
 4724TIP3    H235588   4.635   3.268   2.202  0.5004 -0.6617  1.7618
 4725TIP3   OH235589   0.945   0.007   2.268  0.0411  0.5120 -0.4266
 4725TIP3    H135590   0.942   0.080   2.331  1.3234  0.2484 -0.0272
 4725TIP3    H235591   0.881   0.031   2.202 -0.3709  1.4639  0.2788
 4726TIP3   OH235592   0.896   6.243   5.498 -0.5541  0.2633 -0.1082
 4726TIP3    H135593   0.802   6.236   5.483 -0.6689  0.4323  0.5342
 4726TIP3    H235594   0.927   6.304   5.431 -1.2354  1.8839  1.0043
 4727TIP3   OH235595   3.081   4.615  10.987  0.1237 -0.4841 -0.5300
 4727TIP3    H135596   3.159   4.574  11.023  0.6159 -0.2421 -1.2831
 4727TIP3    H235597   3.101   4.627  10.894 -0.8324 -0.4694 -0.7505
 4728TIP3   OH235598   0.193   0.840  16.330 -0.1050  0.4278 -0.3024
 4728TIP3    H135599   0.188   0.754  16.287  0.3547  0.0163  0.4431
 4728TIP3    H235600   0.132   0.833  16.404  0.9805  0.2350  0.5994
 4729TIP3   OH235601   6.751   1.979  12.216 -0.2479  0.1176  0.0816
 4729TIP3    H135602   6.732   1.897  12.170  0.0186  0.7170 -1.1238
 4729TIP3    H235603   6.743   1.956  12.309 -3.9137 -0.3980 -0.2244
 4730TIP3   OH235604   4.998   3.393   0.927 -0.2129 -0.4151  0.6014
 4730TIP3    H135605   5.092   3.411   0.931  0.1617 -1.8930 -0.7568
 4730TIP3    H235606   4.958   3.480   0.921  1.0735  0.2256  0.8166
 4731TIP3   OH235607   4.224   6.341  14.667 -0.2412  0.1272  0.2011
 4731TIP3    H135608   4.251   6.255  14.636 -1.8253 -1.1392  2.0720
 4731TIP3    H235609   4.295   6.369  14.725 -0.3269 -0.5543  0.6442
 4732TIP3   OH235610   0.938   3.534   3.041 -0.1154 -0.1898  0.5248
 4732TIP3    H135611   0.976   3.565   3.124  0.3584  0.3765  0.1038
 4732TIP3    H235612   0.912   3.444   3.059  1.0404 -0.4552  0.9516
 4733TIP3   OH235613   0.742   3.349  11.137 -0.2953 -0.0250 -0.0040
 4733TIP3    H135614   0.753   3.364  11.044 -0.6564 -0.8518 -0.1899
 4733TIP3    H235615   0.811   3.286  11.159  0.2234  0.6819  0.4328
 4734TIP3   OH235616   3.711   1.570  12.844  0.7392  0.2952 -0.3947
 4734TIP3    H135617   3.776   1.629  12.881  1.9312 -1.0639 -0.2335
 4734TIP3    H235618   3.747   1.545  12.759 -0.6303  1.1888 -1.2909
 4735TIP3   OH235619   5.127   3.880   4.091  0.1911 -0.2371  0.3343
 4735TIP3    H135620   5.087   3.959   4.054 -1.7744  0.2165  3.1018
 4735TIP3    H235621   5.209   3.910   4.130  3.2341 -1.0102 -4.5748
 4736TIP3   OH235622   1.766   1.546  16.412  0.4224  0.2730  0.4952
 4736TIP3    H135623   1.679   1.528  16.449  0.0125 -0.3981 -0.7451
 4736TIP3    H235624   1.797   1.461  16.380  0.3544  0.9404 -1.4913
 4737TIP3   OH235625   3.615   2.402   3.995 -0.5558 -0.3226  0.4085
 4737TIP3    H135626   3.521   2.405   3.981 -0.7295 -1.1472  1.3440
 4737TIP3    H235627   3.650   2.360   3.916 -0.9535  0.0411  0.0352
 4738TIP3   OH235628   6.003   1.169  13.602 -0.0000 -0.4487 -0.7470
 4738TIP3    H135629   6.062   1.142  13.672  0.6973 -2.3470 -1.9809
 4738TIP3    H235630   5.992   1.264  13.615  1.6463 -0.4066  0.7493
 4739TIP3   OH235631   1.483   4.006   0.569 -0.7125 -0.4471 -0.0451
 4739TIP3    H135632   1.439   4.090   0.554 -0.0257  0.0539  0.6772
 4739TIP3    H235633   1.441   3.972   0.648  0.4882  0.2604  0.9288
 4740TIP3   OH235634   3.463   5.372  17.071  0.1292  0.7087  0.4257
 4740TIP3    H135635   3.441   5.280  17.086  0.5774  0.6117  0.5266
 4740TIP3    H235636   3.430   5.391  16.983 -0.9961  0.7856  0.8569
 4741TIP3   OH235637   3.790   2.875   4.808  0.4834 -0.0651 -0.0004
 4741TIP3    H135638   3.845   2.823   4.866 -1.3566 -0.9401  1.0584
 4741TIP3    H235639   3.728   2.812   4.771  0.2520  0.8559 -1.2640
 4742TIP3   OH235640   0.826   4.313   0.910  0.5141 -0.0672 -0.6489
 4742TIP3    H135641   0.782   4.398   0.911 -0.2468 -0.3194 -3.4981
 4742TIP3    H235642   0.756   4.249   0.923  0.9606 -0.3065  0.6779
 4743TIP3   OH235643   5.926   3.621  17.386 -0.1433 -0.2840  0.0549
 4743TIP3    H135644   5.956   3.550  17.328 -1.1087 -0.2622 -0.4966
 4743TIP3    H235645   5.835   3.598  17.405  0.2465 -0.4665  1.8590
 4744TIP3   OH235646   3.714   6.011   5.780 -1.0504 -0.0308  0.3491
 4744TIP3    H135647   3.700   6.055   5.696  0.1029  2.4711  1.3548
 4744TIP3    H235648   3.636   6.031   5.831 -0.7686  0.4372  0.6132
 4745TIP3   OH235649   4.044   5.827  14.526 -0.0855 -0.0743 -0.1368
 4745TIP3    H135650   4.101   5.798  14.598 -0.8982 -1.0305  0.1476
 4745TIP3    H235651   4.005   5.746  14.493 -1.1521  0.5515 -0.4247
 4746TIP3   OH235652   0.840   4.951  16.264 -0.2615  0.1265 -0.2720
 4746TIP3    H135653   0.899   5.003  16.209 -0.5124  1.0067  0.2656
 4746TIP3    H235654   0.894   4.880  16.297  0.2415  0.3687 -0.5622
 4747TIP3   OH235655   1.364   3.804   2.608 -0.5284  0.4195 -0.5369
 4747TIP3    H135656   1.374   3.733   2.545  1.0278 -0.0908  0.2307
 4747TIP3    H235657   1.335   3.761   2.688  0.8285  0.5540  0.0544
 4748TIP3   OH235658   0.789   4.590   6.311  0.5076 -0.0390  0.4765
 4748TIP3    H135659   0.720   4.538   6.352  0.0702  0.3607  0.2699
 4748TIP3    H235660   0.843   4.621   6.384  0.6222 -0.5673  0.6187
 4749TIP3   OH235661   6.383   5.578  10.838  0.0144 -0.1910  0.4430
 4749TIP3    H135662   6.375   5.559  10.745  2.4080 -0.6292  0.2814
 4749TIP3    H235663   6.372   5.494  10.882 -1.0308  0.0022  0.5840
 4750TIP3   OH235664   6.351   0.944  12.308 -0.7220  0.0521  0.1317
 4750TIP3    H135665   6.287   0.974  12.372 -1.4699 -0.3588 -0.4067
 4750TIP3    H235666   6.300   0.892  12.246  0.3653 -1.5706  0.5251
 4751TIP3   OH235667   1.891   1.919   3.394 -0.0758  0.4387 -0.0790
 4751TIP3    H135668   1.873   1.833   3.357 -1.6201  0.2382  1.0408
 4751TIP3    H235669   1.972   1.908   3.444 -1.5293 -1.0942  2.1317
 4752TIP3   OH235670   2.349   3.559   3.038  0.3055 -0.3222  0.0886
 4752TIP3    H135671   2.338   3.535   2.947  0.7825  0.1795 -0.1068
 4752TIP3    H235672   2.325   3.652   3.042  1.4636 -0.0181  0.2336
 4753TIP3   OH235673   0.811   2.527   5.200 -0.4465  0.1652 -0.3140
 4753TIP3    H135674   0.749   2.503   5.131 -1.5409 -0.1843  0.7443
 4753TIP3    H235675   0.783   2.615   5.226 -0.6218 -0.0598  0.2810
 4754TIP3   OH235676   6.569   4.739   3.247  0.4293 -0.9678 -0.3001
 4754TIP3    H135677   6.615   4.731   3.163  0.9663  1.0109 -0.2404
 4754TIP3    H235678   6.638   4.732   3.313 -0.0660 -3.1494  0.0591
 4755TIP3   OH235679   1.076   0.665  13.039 -0.2244  0.0993 -0.5189
 4755TIP3    H135680   1.042   0.749  13.009 -0.6498  0.3849  0.7140
 4755TIP3    H235681   1.016   0.638  13.108  1.6374  0.3053  1.2911
 4756TIP3   OH235682   5.584   0.927   5.871 -0.0485  0.8431  0.5448
 4756TIP3    H135683   5.673   0.905   5.846 -0.7963 -0.0367 -1.6460
 4756TIP3    H235684   5.540   0.843   5.880 -1.6521  1.1642 -2.7238
 4757TIP3   OH235685   3.505   2.928  16.303 -0.4430  0.3381  0.0278
 4757TIP3    H135686   3.561   3.000  16.272 -1.7002  1.1779 -0.3971
 4757TIP3    H235687   3.527   2.918  16.395  0.4459  0.6049 -0.1467
 4758TIP3   OH235688   5.433   0.419  15.140 -0.1875 -0.0789  0.1148
 4758TIP3    H135689   5.364   0.479  15.113 -0.4300 -0.6561 -0.5889
 4758TIP3    H235690   5.514   0.469  15.130 -0.3502  0.0087 -0.8762
 4759TIP3   OH235691   0.211   5.618   5.499  0.3051  0.4651  0.5946
 4759TIP3    H135692   0.279   5.685   5.506 -0.3288  1.2177 -0.2911
 4759TIP3    H235693   0.207   5.597   5.406  0.6364 -0.9809  0.8831
 4760TIP3   OH235694   0.508   6.311   3.233  0.0941 -0.1606 -0.3612
 4760TIP3    H135695   0.529   6.271   3.317  0.7362 -0.0288 -0.4516
 4760TIP3    H235696   0.497   6.404   3.253  0.3918 -0.1071 -0.4486
 4761TIP3   OH235697   4.619   5.049  14.977 -0.0329  0.4260  0.1915
 4761TIP3    H135698   4.529   5.073  14.999  0.1929  0.0068  1.6635
 4761TIP3    H235699   4.615   5.023  14.885 -1.2143  1.3629 -0.0542
 4762TIP3   OH235700   3.683   2.155  12.189  0.2118 -0.3445  0.5090
 4762TIP3    H135701   3.715   2.067  12.169 -1.0045 -0.7854  0.4539
 4762TIP3    H235702   3.589   2.144  12.204  0.3144  0.6623  2.1811
 4763TIP3   OH235703   2.789   2.810   2.156 -0.2186  0.5138  0.7526
 4763TIP3    H135704   2.793   2.784   2.248 -1.0922  0.7665  0.8756
 4763TIP3    H235705   2.869   2.860   2.141  0.1308  0.1133  1.2613
 4764TIP3   OH235706   2.123   3.194  11.177 -0.2876 -0.4098 -0.2387
 4764TIP3    H135707   2.117   3.118  11.119  3.8860  0.4573 -2.1582
 4764TIP3    H235708   2.094   3.267  11.123  1.2710  0.0811 -0.4410
 4765TIP3   OH235709   3.820   5.060   0.700 -0.1637 -0.2381 -0.1181
 4765TIP3    H135710   3.783   5.069   0.612 -1.3235  1.5886  0.4895
 4765TIP3    H235711   3.876   5.136   0.710 -4.0508  2.7142  2.4413
 4766TIP3   OH235712   6.375   3.390  17.390 -0.4858  0.2926  0.0852
 4766TIP3    H135713   6.335   3.426  17.468  1.2146  0.3487  0.9864
 4766TIP3    H235714   6.364   3.295  17.399 -0.7628  0.3274  0.1206
 4767TIP3   OH235715   6.645   2.215   0.939 -0.0872 -0.1146 -0.8462
 4767TIP3    H135716   6.598   2.279   0.885 -0.4596  0.3630  0.0149
 4767TIP3    H235717   6.729   2.204   0.895 -0.0834  0.8456 -1.1146
 4768TIP3   OH235718   4.248   6.079   1.407  0.0414  0.1315 -0.2066
 4768TIP3    H135719   4.320   6.019   1.428 -0.6911 -0.8263 -0.3304
 4768TIP3    H235720   4.274   6.162   1.446  1.1343 -0.2306 -0.1003
 4769TIP3   OH235721   2.755   3.852   0.570 -0.2082  0.0700  0.0162
 4769TIP3    H135722   2.660   3.847   0.579 -0.0598 -2.0033  0.9110
 4769TIP3    H235723   2.774   3.946   0.565 -2.2076  0.5652  0.9596
 4770TIP3   OH235724   1.448   2.334   4.840 -0.0926 -0.0512 -0.5467
 4770TIP3    H135725   1.400   2.358   4.920 -0.0263 -0.5430 -0.3594
 4770TIP3    H235726   1.453   2.239   4.842 -1.2781 -0.1732 -1.8195
 4771TIP3   OH235727   5.952   1.500   5.466  0.2837  0.6746 -0.0314
 4771TIP3    H135728   6.000   1.563   5.518  1.3801 -0.6969  0.6968
 4771TIP3    H235729   5.977   1.518   5.375  0.1133  1.6385  0.1073
 4772TIP3   OH235730   1.082   6.469   5.553  0.4025  0.1604  0.2448
 4772TIP3    H135731   1.125   6.390   5.583 -0.7812 -0.1234  1.3013
 4772TIP3    H235732   1.079   6.460   5.458  1.6061 -0.3398  0.2384
 4773TIP3   OH235733   4.048   1.571  10.081 -0.6112 -0.0636  0.1908
 4773TIP3    H135734   4.002   1.644  10.040 -0.7389 -0.6674 -0.7838
 4773TIP3    H235735   4.030   1.496  10.024  1.8845 -0.2616 -0.4686
 4774TIP3   OH235736   6.564   6.277   4.212 -0.1566  0.1475 -0.3797
 4774TIP3    H135737   6.485   6.328   4.224  0.1291  0.4850  0.1094
 4774TIP3    H235738   6.556   6.240   4.124 -0.7768  0.3071 -0.3937
 4775TIP3   OH235739   6.575   5.941  17.362  0.0767  0.0286 -0.1951
 4775TIP3    H135740   6.654   5.993  17.345  0.0445  0.4149  0.7774
 4775TIP3    H235741   6.597   5.890  17.440 -0.2902 -0.6047 -0.5035
 4776TIP3   OH235742   2.398   3.186  12.374  0.3351 -0.3507 -0.1184
 4776TIP3    H135743   2.339   3.244  12.423 -2.6672 -2.0292 -1.4641
 4776TIP3    H235744   2.477   3.238  12.361 -1.1269  2.4060  1.1185
 4777TIP3   OH235745   2.640   0.359   4.027  0.1791  0.2459 -0.0796
 4777TIP3    H135746   2.626   0.271   3.991 -2.3144  0.5908 -0.1142
 4777TIP3    H235747   2.634   0.347   4.122 -0.0973  0.3584 -0.0821
 4778TIP3   OH235748   2.017   3.877  12.083 -0.0415  0.0610 -0.0370
 4778TIP3    H135749   2.017   3.970  12.105 -1.2321  0.2671 -0.7970
 4778TIP3    H235750   1.994   3.875  11.990  0.3781 -0.9755 -0.1243
 4779TIP3   OH235751   5.004   2.046  13.751  0.0193  0.0084  0.4119
 4779TIP3    H135752   5.003   2.005  13.664  0.0173 -0.2156  0.5175
 4779TIP3    H235753   4.917   2.028  13.787 -0.5041  1.3327 -0.1070
 4780TIP3   OH235754   2.871   1.042   2.210  0.0188 -0.4658  0.0724
 4780TIP3    H135755   2.835   1.066   2.124  0.2669 -3.1885 -0.9005
 4780TIP3    H235756   2.796   1.044   2.269 -0.5480 -0.3931 -0.6323
 4781TIP3   OH235757   5.628   3.956  14.175  0.0077  0.4800  0.3235
 4781TIP3    H135758   5.707   3.919  14.135 -2.3960 -2.0196 -2.6409
 4781TIP3    H235759   5.610   4.036  14.126 -0.5564 -0.2545 -0.7011
 4782TIP3   OH235760   6.196   1.624  12.781  0.2694 -0.7577  0.2988
 4782TIP3    H135761   6.279   1.622  12.830 -1.1060 -2.1602  2.7471
 4782TIP3    H235762   6.182   1.533  12.756  0.1015 -0.3052 -1.3303
 4783TIP3   OH235763   2.085   1.478  13.689 -0.0155 -0.3701 -0.2969
 4783TIP3    H135764   2.036   1.413  13.740  0.0797  1.6942  2.7171
 4783TIP3    H235765   2.022   1.510  13.624 -0.1327 -3.1593 -1.7139
 4784TIP3   OH235766   2.391   3.851   2.810  0.3699 -0.3687  0.0796
 4784TIP3    H135767   2.343   3.915   2.757 -0.5033 -0.3201  0.9061
 4784TIP3    H235768   2.400   3.893   2.896  1.7728 -0.4445 -0.0205
 4785TIP3   OH235769   4.850   4.716   1.117  0.0907  0.1556 -0.3190
 4785TIP3    H135770   4.873   4.808   1.131 -1.5942  0.5009  0.3925
 4785TIP3    H235771   4.881   4.671   1.196 -0.6818  0.4243  0.1406
 4786TIP3   OH235772   0.405   2.687  10.957 -0.5824  0.3365 -0.4886
 4786TIP3    H135773   0.369   2.700  10.870  2.0658  2.1362 -1.4466
 4786TIP3    H235774   0.420   2.776  10.990  2.8286 -0.1894 -0.2270
 4787TIP3   OH235775   5.907   2.209  14.336  0.4722  0.0980 -0.7056
 4787TIP3    H135776   5.931   2.285  14.283 -1.4889  1.4113  0.2018
 4787TIP3    H235777   5.825   2.178  14.298 -0.0017 -0.0711  0.4121
 4788TIP3   OH235778   3.117   3.885   2.218 -0.3759 -0.5310  0.0948
 4788TIP3    H135779   3.213   3.881   2.214 -0.2352  0.9966  1.0628
 4788TIP3    H235780   3.099   3.953   2.283 -2.1210  1.2008 -2.0610
 4789TIP3   OH235781   1.576   2.023   3.287  0.3530  0.3545 -0.1089
 4789TIP3    H135782   1.503   1.962   3.281  0.4665  0.2013  0.0604
 4789TIP3    H235783   1.599   2.023   3.380  0.7011  0.2471 -0.1953
 4790TIP3   OH235784   3.407   2.816  16.055  0.8955  0.3431  0.3175
 4790TIP3    H135785   3.453   2.855  16.129  0.7046 -0.3711  0.8233
 4790TIP3    H235786   3.364   2.739  16.091 -0.4036  0.7842 -0.2202
 4791TIP3   OH235787   1.704   3.540   2.424 -0.6686  0.1088  0.9781
 4791TIP3    H135788   1.765   3.518   2.494  0.9260 -0.5296 -0.5420
 4791TIP3    H235789   1.648   3.608   2.462  0.6963  0.4130  2.5907
 4792TIP3   OH235790   5.175   0.723   4.022 -0.0806 -0.0695  0.8026
 4792TIP3    H135791   5.148   0.783   4.092  0.4750  1.6865 -0.4267
 4792TIP3    H235792   5.113   0.739   3.952  1.2093  0.4774 -0.2495
 4793TIP3   OH235793   5.430   1.049  12.317  0.0221  0.3552  0.2084
 4793TIP3    H135794   5.418   1.093  12.233  1.0938  0.1557 -0.0632
 4793TIP3    H235795   5.356   1.078  12.370  0.1849  1.7343 -0.2819
 4794TIP3   OH235796   3.799   0.129  15.268 -0.0955  0.0188  0.5262
 4794TIP3    H135797   3.716   0.168  15.241 -0.5680 -1.3333 -0.0975
 4794TIP3    H235798   3.851   0.126  15.188  1.0475  1.9150  1.1366
 4795TIP3   OH235799   5.912   1.522  16.684  0.2593  0.8525 -0.3313
 4795TIP3    H135800   5.922   1.427  16.681  1.2547  0.9216  0.2712
 4795TIP3    H235801   5.993   1.556  16.645  0.3508  1.4547  0.3592
 4796TIP3   OH235802   0.704   1.842  11.910  0.4560  0.0645 -0.0418
 4796TIP3    H135803   0.632   1.892  11.949  0.2068 -1.2236  1.2705
 4796TIP3    H235804   0.665   1.799  11.834  0.2456  0.5993 -0.2357
 4797TIP3   OH235805   6.096   1.938   2.164  0.4384  0.1063 -0.1197
 4797TIP3    H135806   6.143   1.906   2.241  0.6000  1.5352  0.4054
 4797TIP3    H235807   6.049   1.862   2.132  0.5822 -0.5917  1.2321
 4798TIP3   OH235808   6.673   1.969  14.726  0.3352 -0.3537 -0.0222
 4798TIP3    H135809   6.620   2.006  14.797 -1.0601 -1.6838 -0.3238
 4798TIP3    H235810   6.665   2.032  14.655  1.3443  0.7491  0.8024
 4799TIP3   OH235811   1.617   0.118   3.860 -0.5109  0.5380  0.1574
 4799TIP3    H135812   1.655   0.143   3.945  1.9054  1.8031 -1.1720
 4799TIP3    H235813   1.528   0.152   3.863 -0.5075  0.5087  2.1858
 4800TIP3   OH235814   0.480   2.668  14.740 -0.8548 -0.2364  0.6252
 4800TIP3    H135815   0.508   2.759  14.749 -1.5842  0.0217  0.2709
 4800TIP3    H235816   0.508   2.627  14.823  1.3122 -0.2027 -0.0197
 4801TIP3   OH235817   1.998   1.228  16.772  0.2565 -0.3901 -0.1875
 4801TIP3    H135818   2.073   1.224  16.832 -0.6449  0.6227  1.0770
 4801TIP3    H235819   1.985   1.322  16.757 -0.1466 -0.5974 -1.1966
 4802TIP3   OH235820   4.268   1.868   5.583 -0.6583 -1.0230  0.1853
 4802TIP3    H135821   4.350   1.851   5.630 -0.3822  0.5567  0.3244
 4802TIP3    H235822   4.207   1.898   5.650 -0.2778  1.1945 -0.3751
 4803TIP3   OH235823   3.933   3.664   5.726 -0.0544  0.4113  0.0919
 4803TIP3    H135824   4.000   3.711   5.677 -0.8148  2.1712  0.6443
 4803TIP3    H235825   3.878   3.624   5.659  1.4896 -1.0085 -0.3610
 4804TIP3   OH235826   4.740   4.238  17.286 -0.0406 -0.0538 -0.2814
 4804TIP3    H135827   4.765   4.146  17.273  1.2355  0.3934 -1.1902
 4804TIP3    H235828   4.683   4.258  17.212 -1.0483 -0.3453  0.3980
 4805TIP3   OH235829   1.583   1.005   0.636  0.2493 -0.2210 -0.5282
 4805TIP3    H135830   1.669   1.035   0.667 -0.6250  2.6754 -0.6547
 4805TIP3    H235831   1.529   1.001   0.715  0.0268 -0.2585 -0.6805
 4806TIP3   OH235832   6.554   5.923   0.936 -0.4264  0.0472  0.7704
 4806TIP3    H135833   6.476   5.900   0.885 -0.1308  1.8920 -0.6096
 4806TIP3    H235834   6.624   5.868   0.899 -0.5669  0.1452  0.3617
 4807TIP3   OH235835   6.343   6.450   4.190  0.3916 -0.0974 -0.5381
 4807TIP3    H135836   6.376   6.539   4.181 -0.3277  0.2911  0.5058
 4807TIP3    H235837   6.305   6.429   4.104 -2.0943  1.7372 -0.0098
 4808TIP3   OH235838   3.005   6.162  16.050  0.7671 -0.4725  0.2404
 4808TIP3    H135839   3.086   6.158  16.101 -0.1679 -0.4498  1.7754
 4808TIP3    H235840   2.983   6.070  16.034  0.1115 -0.5534  1.4818
 4809TIP3   OH235841   2.442   5.365   1.835 -0.2494  0.1347 -0.5141
 4809TIP3    H135842   2.402   5.451   1.851 -2.3682 -0.5428 -1.7184
 4809TIP3    H235843   2.459   5.330   1.922 -0.0473  1.4678  0.0077
 4810TIP3   OH235844   3.706   4.713   5.600  0.3558 -0.0736  0.1412
 4810TIP3    H135845   3.710   4.720   5.695  1.9707  0.2655  0.0790
 4810TIP3    H235846   3.659   4.791   5.572 -0.1614 -0.1948  0.6564
 4811TIP3   OH235847   3.432   1.977  10.313  0.2890  0.2838  0.3458
 4811TIP3    H135848   3.382   1.911  10.361 -1.7554  0.2947 -1.6291
 4811TIP3    H235849   3.517   1.980  10.359 -1.0363 -0.6132  3.0902
 4812TIP3   OH235850   3.259   4.157   1.297 -0.2665 -0.8194 -0.2097
 4812TIP3    H135851   3.275   4.133   1.205 -0.8163  1.5273 -0.9854
 4812TIP3    H235852   3.266   4.252   1.298  0.2007 -0.8218  2.3165
 4813TIP3   OH235853   3.120   0.764   2.957 -0.0636  0.1305  0.3219
 4813TIP3    H135854   3.104   0.858   2.946 -1.1446  0.1885  2.0203
 4813TIP3    H235855   3.059   0.737   3.026 -0.5815 -2.0687 -0.9037
 4814TIP3   OH235856   1.706   1.741  14.394  0.1703  0.7495  0.6323
 4814TIP3    H135857   1.667   1.759  14.480 -2.8056  0.9019 -0.6291
 4814TIP3    H235858   1.677   1.653  14.373  0.7134  0.7844 -0.3018
 4815TIP3   OH235859   0.871   5.611  11.344 -0.2847 -0.0988 -0.2728
 4815TIP3    H135860   0.825   5.530  11.367  0.6066 -0.1604  1.4489
 4815TIP3    H235861   0.810   5.657  11.286 -2.5832 -0.1759  1.8828
 4816TIP3   OH235862   1.020   1.863   3.994  0.0870  0.5884  0.4445
 4816TIP3    H135863   1.106   1.855   3.955  1.0181  1.0126  2.3062
 4816TIP3    H235864   1.031   1.836   4.085 -1.7598  0.5966  0.7276
 4817TIP3   OH235865   5.997   2.927   6.423 -0.1487 -0.4294  0.4262
 4817TIP3    H135866   5.934   2.922   6.496  0.4074 -1.9041  0.8436
 4817TIP3    H235867   5.948   2.897   6.347 -0.4219  0.0576  0.4068
 4818TIP3   OH235868   1.908   5.310  17.418  0.8696 -0.3327 -0.7614
 4818TIP3    H135869   1.974   5.339  17.480  1.2304  1.5121 -1.9530
 4818TIP3    H235870   1.947   5.234  17.375  1.9674  0.3513 -1.0020
 4819TIP3   OH235871   4.088   2.421   0.294  0.1421  0.2002  0.5692
 4819TIP3    H135872   4.053   2.341   0.334 -2.4609  1.2808  0.6502
 4819TIP3    H235873   4.016   2.455   0.241  1.6231  1.8305 -0.5196
 4820TIP3   OH235874   6.166   5.244  15.844  0.1801 -0.7388  0.0519
 4820TIP3    H135875   6.131   5.160  15.874 -0.0647 -0.6434  0.0296
 4820TIP3    H235876   6.254   5.223  15.813  0.0882 -1.0033 -0.0357
 4821TIP3   OH235877   5.936   0.173  15.522 -0.3923 -0.2695  0.4111
 4821TIP3    H135878   5.962   0.084  15.547 -1.4797 -0.0666  2.3958
 4821TIP3    H235879   5.873   0.160  15.451  2.1111 -0.8804 -1.9292
 4822TIP3   OH235880   3.208   1.530   4.588  0.1718  0.5286  0.3055
 4822TIP3    H135881   3.156   1.583   4.648 -0.3016 -0.5897  0.9084
 4822TIP3    H235882   3.278   1.589   4.559 -1.1924  1.9400 -0.2354
 4823TIP3   OH235883   5.128   5.092  17.185  0.2088  0.6930  0.0344
 4823TIP3    H135884   5.218   5.122  17.167  0.2841  0.2132 -0.4117
 4823TIP3    H235885   5.137   5.030  17.257  0.4076 -0.2960 -0.8137
 4824TIP3   OH235886   2.097   2.859  11.362  0.1311  0.0868  0.2906
 4824TIP3    H135887   2.192   2.859  11.365  0.1076  1.5685  2.1427
 4824TIP3    H235888   2.074   2.767  11.346  1.8302 -0.3735  0.3297
 4825TIP3   OH235889   1.835   2.036  17.423  0.3445  0.0108  0.3552
 4825TIP3    H135890   1.903   1.971  17.403  1.8979  1.4320  0.7349
 4825TIP3    H235891   1.815   2.022  17.515 -1.2397 -1.5721 -0.1811
 4826TIP3   OH235892   1.663   1.726   4.694  0.1898  0.1002  0.0068
 4826TIP3    H135893   1.749   1.759   4.720 -0.2727  1.1231  0.2846
 4826TIP3    H235894   1.651   1.755   4.604 -0.4127  1.1343  0.4015
 4827TIP3   OH235895   4.202   2.721  14.093 -0.1913 -0.1365 -0.2976
 4827TIP3    H135896   4.279   2.690  14.045  1.1935 -0.8897  2.2386
 4827TIP3    H235897   4.197   2.663  14.169 -2.4549  0.7996  0.3314
 4828TIP3   OH235898   0.975   2.633  13.628  0.0256  0.2492 -0.0494
 4828TIP3    H135899   1.066   2.616  13.649  0.2399 -0.2030 -1.2728
 4828TIP3    H235900   0.944   2.552  13.586 -0.5839  0.8211 -0.7356
 4829TIP3   OH235901   0.550   2.178  11.855  0.6050  0.2733 -0.3202
 4829TIP3    H135902   0.548   2.119  11.780  0.8271 -0.4692  0.2422
 4829TIP3    H235903   0.557   2.265  11.817 -2.7097  0.2532 -1.3053
 4830TIP3   OH235904   2.990   0.158   0.957 -0.1223 -0.0270  0.1122
 4830TIP3    H135905   3.053   0.229   0.939 -1.1483  0.7217 -0.6414
 4830TIP3    H235906   3.012   0.129   1.045  0.1586  1.4300  0.5506
 4831TIP3   OH235907   0.923   2.157  14.942  0.0563 -0.5030 -0.2414
 4831TIP3    H135908   0.932   2.068  14.975  0.9343 -0.0348  0.8661
 4831TIP3    H235909   0.986   2.162  14.869 -0.3401 -0.9210 -0.6149
 4832TIP3   OH235910   1.451   5.227  13.751 -0.0797  0.3790  0.4095
 4832TIP3    H135911   1.518   5.196  13.812  0.2336  1.9745  0.9204
 4832TIP3    H235912   1.375   5.245  13.805 -0.0741  1.0111  0.2158
 4833TIP3   OH235913   5.793   3.443   4.689 -0.8405 -0.7421 -0.2724
 4833TIP3    H135914   5.716   3.387   4.701 -1.7772  0.7581  1.0669
 4833TIP3    H235915   5.788   3.507   4.760  1.5202 -0.4277 -0.2931
 4834TIP3   OH235916   4.850   4.344   0.782 -0.1068  0.1829 -0.0786
 4834TIP3    H135917   4.841   4.249   0.785 -0.4816  0.2301  2.5807
 4834TIP3    H235918   4.790   4.376   0.850  2.0555  2.1297  1.0428
 4835TIP3   OH235919   0.571   5.535   6.654  0.0788 -0.0320  0.0147
 4835TIP3    H135920   0.614   5.552   6.570 -1.8718  1.2438 -0.8156
 4835TIP3    H235921   0.590   5.443   6.673 -1.1812 -1.0119 -2.9505
 4836TIP3   OH235922   2.227   1.506  14.988  0.3583 -0.1625  0.0830
 4836TIP3    H135923   2.255   1.567  15.056 -0.7050 -0.0388  0.4231
 4836TIP3    H235924   2.282   1.428  15.001  0.8276  0.2299  0.4601
 4837TIP3   OH235925   6.734   6.543   2.218 -0.6349  0.1981 -0.3919
 4837TIP3    H135926   6.824   6.548   2.189 -0.9448 -0.8078 -1.5816
 4837TIP3    H235927   6.733   6.590   2.302  1.2997 -1.0966  0.4098
 4838TIP3   OH235928   3.680   5.215   0.958 -0.2008 -0.0320 -0.2690
 4838TIP3    H135929   3.768   5.247   0.942  0.5633 -0.9459  1.7471
 4838TIP3    H235930   3.623   5.285   0.925  1.2398  0.6301 -1.4886
 4839TIP3   OH235931   4.397   1.189  11.719  0.2037 -0.3109  0.0357
 4839TIP3    H135932   4.359   1.257  11.663  0.9262  0.6226  0.6509
 4839TIP3    H235933   4.371   1.214  11.808  2.7054  0.7133  0.5486
 4840TIP3   OH235934   0.617   3.627   0.662  0.4942 -0.3867  0.4572
 4840TIP3    H135935   0.668   3.546   0.656 -0.5264 -1.0904  0.9368
 4840TIP3    H235936   0.681   3.694   0.684  1.5853 -0.7981 -1.2640
 4841TIP3   OH235937   2.125   1.394  14.258 -0.0644 -0.5081  0.3985
 4841TIP3    H135938   2.217   1.422  14.259 -0.2675  0.2145 -0.0883
 4841TIP3    H235939   2.097   1.408  14.167 -1.5897  2.4705  1.2131
 4842TIP3   OH235940   0.722   4.350   5.575 -0.5537 -0.2331  0.0027
 4842TIP3    H135941   0.671   4.381   5.650  0.4482 -1.4466  1.2281
 4842TIP3    H235942   0.810   4.383   5.590  0.1777 -2.2960  0.5567
 4843TIP3   OH235943   4.325   4.638   3.381  0.5095  0.0828  0.1175
 4843TIP3    H135944   4.381   4.561   3.371  0.4943  0.1030 -0.1104
 4843TIP3    H235945   4.369   4.691   3.447  1.0981  0.4175 -0.5351
 4844TIP3   OH235946   1.639   3.000  11.613 -0.6302 -0.1610  0.2485
 4844TIP3    H135947   1.590   3.016  11.532  0.2084  0.5894 -0.1399
 4844TIP3    H235948   1.710   3.065  11.611  0.5466 -1.3777  0.6481
 4845TIP3   OH235949   1.454   3.231  14.573  1.1745  0.0517  0.2037
 4845TIP3    H135950   1.421   3.308  14.525 -1.5834 -0.8940  0.4088
 4845TIP3    H235951   1.436   3.250  14.665  1.3293 -0.4718  0.3458
 4846TIP3   OH235952   5.718   5.828   3.289 -0.0385  0.2258 -0.5080
 4846TIP3    H135953   5.665   5.905   3.265 -0.2336  0.1387 -0.3638
 4846TIP3    H235954   5.756   5.798   3.207 -0.8706 -0.1979 -0.7527
 4847TIP3   OH235955   0.077   0.344   3.002 -0.8003 -0.0385 -0.9434
 4847TIP3    H135956   0.097   0.276   3.067  0.2848  1.8752  0.8530
 4847TIP3    H235957  -0.005   0.383   3.033 -2.8291 -2.0354 -3.3663
 4848TIP3   OH235958   0.774   0.773  17.346  0.4408  0.0846  0.4092
 4848TIP3    H135959   0.684   0.769  17.313  0.1208 -0.3209  1.2909
 4848TIP3    H235960   0.827   0.733  17.277 -0.3508 -1.7573  0.8075
 4849TIP3   OH235961   5.444   6.206  16.202  0.2757 -0.3572  0.3201
 4849TIP3    H135962   5.413   6.207  16.112 -1.2780  0.8824  0.8160
 4849TIP3    H235963   5.485   6.120  16.213  0.7300 -0.4345 -1.6112
 4850TIP3   OH235964   6.216   2.524   2.071  0.0034  0.1183  0.4372
 4850TIP3    H135965   6.265   2.451   2.110  0.4319 -0.1440 -0.5439
 4850TIP3    H235966   6.261   2.603   2.102 -0.8230  0.0242  1.9904
 4851TIP3   OH235967   3.515   0.932  15.527  0.2083  1.2710  0.0366
 4851TIP3    H135968   3.453   0.859  15.517  0.3885  1.1466 -0.1719
 4851TIP3    H235969   3.518   0.948  15.621 -0.3234  1.4340  0.0311
 4852TIP3   OH235970   3.275   2.541  11.406  0.1953 -0.2122 -0.8205
 4852TIP3    H135971   3.329   2.552  11.484  0.5122  0.3912 -1.1130
 4852TIP3    H235972   3.253   2.448  11.404 -0.9205 -0.0063  0.7035
 4853TIP3   OH235973   0.589   3.860  11.348  0.2453  0.5486  0.1936
 4853TIP3    H135974   0.623   3.794  11.286 -0.4422  0.5962 -0.2448
 4853TIP3    H235975   0.663   3.878  11.406  0.6138 -0.2093 -0.0177
 4854TIP3   OH235976   6.051   4.907   5.570  0.2816 -0.2262 -0.4241
 4854TIP3    H135977   6.117   4.838   5.577  0.6407 -0.0199 -1.6764
 4854TIP3    H235978   6.003   4.902   5.653  1.3121 -0.9379  0.1529
 4855TIP3   OH235979   1.035   6.477  16.601 -0.0638 -0.2893  0.0927
 4855TIP3    H135980   0.940   6.467  16.604 -0.0963 -1.5105 -2.3795
 4855TIP3    H235981   1.068   6.408  16.659 -0.7077 -2.8261 -2.3237
 4856TIP3   OH235982   6.583   3.240   0.441 -0.2097 -0.3628  0.1490
 4856TIP3    H135983   6.577   3.222   0.535  0.4039  0.3113  0.3247
 4856TIP3    H235984   6.520   3.180   0.401  1.9998 -3.2357  0.6657
 4857TIP3   OH235985   5.157   3.507  16.174  0.2305 -0.0134  0.2727
 4857TIP3    H135986   5.250   3.514  16.197  0.1494  0.8772  0.3808
 4857TIP3    H235987   5.114   3.486  16.256  0.5045 -2.1601 -0.0884
 4858TIP3   OH235988   5.621   2.248  15.450  0.2587 -0.2742  0.2298
 4858TIP3    H135989   5.530   2.254  15.421 -0.4532 -0.3418  2.2846
 4858TIP3    H235990   5.632   2.319  15.514  1.3368 -0.8728  0.7599
 4859TIP3   OH235991   0.698   0.097  14.257 -0.2839  0.2924 -0.2330
 4859TIP3    H135992   0.704   0.103  14.352 -0.7520  1.5226 -0.2609
 4859TIP3    H235993   0.713   0.005  14.238 -0.3859 -0.0097  1.0484
 4860TIP3   OH235994   4.282   4.350   4.832  0.0633 -0.0405  0.1251
 4860TIP3    H135995   4.313   4.335   4.922 -3.0124  1.3247  1.5774
 4860TIP3    H235996   4.305   4.441   4.814 -2.3007  0.8037  0.9971
 4861TIP3   OH235997   1.296   2.364  10.730  0.3125  0.9302  0.2774
 4861TIP3    H135998   1.362   2.376  10.799 -1.1398  2.2437  1.5358
 4861TIP3    H235999   1.315   2.279  10.692  0.5594 -0.3504  3.0344
 4862TIP3   OH236000   4.998   4.637  14.427  0.0450  0.1338  0.1275
 4862TIP3    H136001   5.010   4.726  14.395 -3.3961  0.7275  0.1776
 4862TIP3    H236002   5.041   4.636  14.513  0.5927  1.5589 -0.1048
 4863TIP3   OH236003   1.476   1.996  10.836  0.1968 -0.3560  0.2565
 4863TIP3    H136004   1.495   1.910  10.873 -0.9916 -0.3411  0.9778
 4863TIP3    H236005   1.447   2.048  10.911 -2.4063 -0.3674 -0.6365
 4864TIP3   OH236006   4.300   6.174   2.707 -0.5157 -0.6672 -0.3085
 4864TIP3    H136007   4.388   6.159   2.671  0.1541  0.3653  0.8108
 4864TIP3    H236008   4.257   6.089   2.703 -0.1090 -0.8265 -2.5285
 4865TIP3   OH236009   1.942   0.314   5.242  0.7440  0.4261  0.1704
 4865TIP3    H136010   2.025   0.280   5.274  0.3253 -1.1192 -0.3071
 4865TIP3    H236011   1.878   0.248   5.266 -0.2474  1.2641 -0.0840
 4866TIP3   OH236012   3.604   1.642   2.063 -0.1757 -0.1504  0.1242
 4866TIP3    H136013   3.651   1.715   2.104 -0.7796  0.7433 -0.7437
 4866TIP3    H236014   3.656   1.565   2.086  0.9168  0.6370  0.3861
 4867TIP3   OH236015   5.355   2.562  17.165 -0.4291 -0.5020  0.5308
 4867TIP3    H136016   5.277   2.582  17.216  0.0884 -1.2368  1.6338
 4867TIP3    H236017   5.322   2.512  17.090 -1.0920 -0.1128  0.5519
 4868TIP3   OH236018   1.124   3.229  13.540  0.0542 -0.3126 -0.3692
 4868TIP3    H136019   1.057   3.165  13.561  0.2550  0.1469  1.9016
 4868TIP3    H236020   1.104   3.304  13.596  0.7714  0.9919 -1.7829
 4869TIP3   OH236021   5.023   2.402   4.075  0.3580  0.2322  0.3715
 4869TIP3    H136022   5.094   2.438   4.127 -0.0072  0.4412  0.7295
 4869TIP3    H236023   5.061   2.326   4.031  1.3669  1.4503 -0.9823
 4870TIP3   OH236024   4.275   6.129  17.345  0.4311 -0.2691  0.6544
 4870TIP3    H136025   4.235   6.145  17.260 -1.0618 -4.0612  0.4479
 4870TIP3    H236026   4.369   6.117  17.326  0.5116  1.2232 -0.0269
 4871TIP3   OH236027   3.480   5.154   5.103  0.5385 -0.2404 -0.1974
 4871TIP3    H136028   3.524   5.128   5.022 -0.9424  1.4016 -1.5887
 4871TIP3    H236029   3.550   5.154   5.169  1.8578 -1.2108 -1.5325
 4872TIP3   OH236030   2.483   0.351  12.717 -0.3663  0.1007  0.2443
 4872TIP3    H136031   2.529   0.288  12.662 -1.7797 -0.9133  0.1459
 4872TIP3    H236032   2.511   0.330  12.806 -1.3553 -1.1920  0.2835
 4873TIP3   OH236033   5.987   4.330  17.109  0.0926  0.1644 -0.3700
 4873TIP3    H136034   6.045   4.255  17.095 -0.1442  0.4045 -3.3575
 4873TIP3    H236035   6.036   4.405  17.076 -0.8737  0.7945 -0.4328
 4874TIP3   OH236036   4.186   2.712   4.142 -0.3733  0.2441 -0.0812
 4874TIP3    H136037   4.253   2.738   4.078 -1.0314  1.6624 -0.2156
 4874TIP3    H236038   4.188   2.781   4.208  1.5447 -2.0541  2.4915
 4875TIP3   OH236039   1.828   2.469   4.048  0.3066 -0.1228 -0.0088
 4875TIP3    H136040   1.863   2.530   4.113 -0.0806 -0.4620  0.5318
 4875TIP3    H236041   1.870   2.494   3.966 -1.3809  2.2496 -0.2598
 4876TIP3   OH236042   5.531   5.193   0.054 -0.0011 -0.1764  0.0736
 4876TIP3    H136043   5.475   5.268   0.072 -3.0918 -1.7960 -2.0326
 4876TIP3    H236044   5.523   5.178  -0.040  1.7523 -2.2500  0.1659
 4877TIP3   OH236045   3.194   3.595  12.653  0.3214  0.4488 -0.1084
 4877TIP3    H136046   3.170   3.515  12.607 -2.6087  1.2065 -0.1048
 4877TIP3    H236047   3.206   3.567  12.744  0.7588 -0.2100 -0.3620
 4878TIP3   OH236048   4.355   0.834  15.739  0.2132  0.1067 -0.0165
 4878TIP3    H136049   4.432   0.823  15.683 -0.8802 -0.5258 -1.4941
 4878TIP3    H236050   4.342   0.928  15.744  1.7547  0.2870  1.2720
 4879TIP3   OH236051   1.733   6.325  12.427  0.6578  0.3577 -0.1700
 4879TIP3    H136052   1.718   6.355  12.517  1.6487 -2.0294  0.8676
 4879TIP3    H236053   1.653   6.279  12.403  1.1707 -0.8708  0.3607
 4880TIP3   OH236054   0.460   6.740  13.691  0.5080  0.7591 -0.2394
 4880TIP3    H136055   0.473   6.684  13.767 -0.4568 -0.9759 -1.2625
 4880TIP3    H236056   0.548   6.766  13.664  0.8995  0.7214  0.9653
 4881TIP3   OH236057   0.911   6.621   3.780 -0.2719 -0.1723 -0.3073
 4881TIP3    H136058   1.000   6.605   3.813 -0.8902  0.7984  2.0086
 4881TIP3    H236059   0.902   6.716   3.782 -1.5207 -0.2892 -0.0728
 4882TIP3   OH236060   2.461   4.813  17.200  0.0077  0.6254  0.1098
 4882TIP3    H136061   2.424   4.752  17.264 -0.9736  1.4638  0.3649
 4882TIP3    H236062   2.430   4.781  17.116  0.7136 -0.0703  0.1037
 4883TIP3   OH236063   4.351   1.038  12.896  0.8490 -0.0729 -0.1322
 4883TIP3    H136064   4.396   0.953  12.902 -0.4686 -0.7456  0.7873
 4883TIP3    H236065   4.284   1.025  12.830  0.7572  0.3100 -0.1123
 4884TIP3   OH236066   1.273   6.555   3.779 -0.2568  0.1146 -0.4607
 4884TIP3    H136067   1.267   6.473   3.730  1.4519 -0.9107  0.9173
 4884TIP3    H236068   1.269   6.623   3.712 -3.5154 -0.9208 -1.5150
 4885TIP3   OH236069   2.204   5.144  13.737 -0.5399  0.5835 -0.1521
 4885TIP3    H136070   2.124   5.157  13.686  0.1474 -2.4746 -2.3076
 4885TIP3    H236071   2.267   5.205  13.699 -0.8040  0.2344 -1.1830
 4886TIP3   OH236072   1.144   6.342   4.248  0.0928 -0.3321  0.5678
 4886TIP3    H136073   1.099   6.275   4.197 -1.6461  0.3207  1.1451
 4886TIP3    H236074   1.186   6.398   4.183  1.4532 -1.8602  0.0782
 4887TIP3   OH236075   5.984   4.713  15.629  0.5112  0.3340 -0.1249
 4887TIP3    H136076   5.901   4.741  15.669  0.0634 -1.1610  0.0443
 4887TIP3    H236077   5.976   4.741  15.538  0.3786  1.3349  0.1757
 4888TIP3   OH236078   6.390   6.527  15.552  0.0878  0.3570 -0.4132
 4888TIP3    H136079   6.424   6.487  15.632 -1.7309 -0.7095 -0.1187
 4888TIP3    H236080   6.468   6.548  15.501  1.2841  0.5704  1.3815
 4889TIP3   OH236081   4.268   0.182  13.672 -0.3099 -0.0790 -0.2345
 4889TIP3    H136082   4.255   0.166  13.578  1.1219  1.7633 -0.7937
 4889TIP3    H236083   4.359   0.156  13.689  0.1505  1.6749  0.1263
 4890TIP3   OH236084   6.166   4.705  14.786  0.3955 -0.2276 -1.1431
 4890TIP3    H136085   6.087   4.666  14.749 -0.1687  1.1536 -1.4625
 4890TIP3    H236086   6.149   4.799  14.785  1.3032 -0.0052  0.5075
 4891TIP3   OH236087   2.767   4.010  14.971 -0.0363  0.4188 -0.6485
 4891TIP3    H136088   2.796   4.099  14.993  0.2204  0.2967 -0.4823
 4891TIP3    H236089   2.676   4.007  15.000  0.1000  0.4746 -0.1950
 4892TIP3   OH236090   3.636   5.497   2.266  1.0801 -0.2736  0.0591
 4892TIP3    H136091   3.671   5.575   2.221 -0.2168  1.0480  1.2410
 4892TIP3    H236092   3.697   5.481   2.337  1.2410 -0.2092 -0.0638
 4893TIP3   OH236093   6.638   5.299  14.313  0.4857  0.4395  0.0619
 4893TIP3    H136094   6.637   5.203  14.308  1.7309  0.4348 -0.2486
 4893TIP3    H236095   6.549   5.324  14.288  0.0740 -0.6413  0.3693
 4894TIP3   OH236096   3.199   5.628   1.511  0.2038 -0.4639 -0.0317
 4894TIP3    H136097   3.258   5.555   1.496 -0.0279 -0.4543 -1.0301
 4894TIP3    H236098   3.184   5.628   1.606  1.7074 -0.5187  0.2280
 4895TIP3   OH236099   4.943   3.259   4.862  0.7193 -0.0670 -0.4594
 4895TIP3    H136100   4.887   3.187   4.890  0.6544  0.5226  1.0198
 4895TIP3    H236101   4.911   3.282   4.774 -0.7804 -0.3181 -0.0043
 4896TIP3   OH236102   6.746   1.198   2.284  0.2364 -0.0847 -0.1302
 4896TIP3    H136103   6.667   1.248   2.264  0.6915  1.2981  1.2605
 4896TIP3    H236104   6.756   1.138   2.211 -1.6008  0.3231 -0.7711
 4897TIP3   OH236105   0.401   6.402  14.644 -0.4705 -0.1782  0.2938
 4897TIP3    H136106   0.488   6.426  14.613 -0.6386 -0.2735 -0.2547
 4897TIP3    H236107   0.376   6.328  14.590 -0.8628 -0.1995  0.5028
 4898TIP3   OH236108   2.877   2.268  11.524 -0.0063  0.3143 -0.1140
 4898TIP3    H136109   2.889   2.179  11.490 -0.1725  0.5938 -0.9149
 4898TIP3    H236110   2.903   2.325  11.453 -1.1349  0.9119 -0.0751
 4899TIP3   OH236111   3.346   0.224  16.143 -0.4674 -0.2166  0.3944
 4899TIP3    H136112   3.418   0.245  16.203 -0.0459  0.9258 -0.4635
 4899TIP3    H236113   3.365   0.135  16.115  1.4551  0.4959 -0.8546
 4900TIP3   OH236114   4.025   5.795   0.531 -0.4521 -0.2664 -0.3201
 4900TIP3    H136115   3.974   5.715   0.546 -0.4913 -0.2393 -0.3084
 4900TIP3    H236116   4.017   5.810   0.437 -0.2365 -0.4151 -0.3612
 4901TIP3   OH236117   3.661   5.415  12.421 -0.6126 -0.0450  0.0272
 4901TIP3    H136118   3.723   5.364  12.473 -0.3111 -0.3740 -0.6426
 4901TIP3    H236119   3.710   5.493  12.396 -0.9836  0.4485  0.8149
 4902TIP3   OH236120   1.110   2.223  11.922 -0.8096  0.0631 -0.0280
 4902TIP3    H136121   1.195   2.240  11.964 -0.1831  0.2586 -1.3160
 4902TIP3    H236122   1.080   2.309  11.894 -1.2250 -0.0646  0.0254
 4903TIP3   OH236123   3.815   1.532   1.534  0.6771 -0.0647 -0.0169
 4903TIP3    H136124   3.833   1.550   1.626 -1.5884 -0.6218  0.5861
 4903TIP3    H236125   3.808   1.618   1.494 -0.8341  0.2656  0.8912
 4904TIP3   OH236126   2.910   3.385  13.746 -0.4555 -0.2341  0.0422
 4904TIP3    H136127   2.850   3.420  13.812 -0.9051 -0.5339 -0.2057
 4904TIP3    H236128   2.893   3.291  13.746 -1.6483 -0.0642 -1.6767
 4905TIP3   OH236129   3.736   0.879  12.824 -0.2277 -0.2874  0.2805
 4905TIP3    H136130   3.704   0.790  12.810 -0.8422 -0.0237 -0.0776
 4905TIP3    H236131   3.682   0.913  12.895  0.1214 -0.2567  0.5324
 4906TIP3   OH236132   3.793   5.358  17.196 -0.1122 -0.1679 -0.0786
 4906TIP3    H136133   3.706   5.328  17.223 -0.7096 -0.4646 -2.2084
 4906TIP3    H236134   3.780   5.450  17.172  0.7762  0.6046  2.0697
 4907TIP3   OH236135   6.623   4.125   2.150 -0.4609  0.2118 -0.3141
 4907TIP3    H136136   6.654   4.193   2.209 -2.0322 -0.1886  1.0324
 4907TIP3    H236137   6.684   4.053   2.162  0.2176  0.7537 -0.4731
 4908TIP3   OH236138   1.560   3.047   4.202  0.1756 -0.7059 -0.6160
 4908TIP3    H136139   1.615   3.106   4.151 -0.4783  0.0869 -0.4126
 4908TIP3    H236140   1.505   3.104   4.255 -1.9663 -1.3819 -1.9415
 4909TIP3   OH236141   4.879   0.056   5.451 -0.2576 -0.1649 -0.8338
 4909TIP3    H136142   4.851  -0.036   5.458  0.2082 -0.2577 -0.1832
 4909TIP3    H236143   4.851   0.082   5.363  1.8437 -1.7042 -2.0608
 4910TIP3   OH236144   0.536   0.014   1.636 -0.8619  0.1107 -0.5114
 4910TIP3    H136145   0.540  -0.055   1.702  0.1916 -0.5826 -1.2533
 4910TIP3    H236146   0.455   0.061   1.654 -1.4007 -1.0802  0.2654
 4911TIP3   OH236147   5.649   2.380   3.405 -0.0268 -0.3875  0.3235
 4911TIP3    H136148   5.688   2.328   3.476 -0.2370  0.6432  1.2198
 4911TIP3    H236149   5.641   2.468   3.442 -3.4824 -0.5775  0.3375
 4912TIP3   OH236150   1.711   1.635   4.402  0.1707  0.5912  0.5525
 4912TIP3    H136151   1.726   1.640   4.307  2.4368 -0.1727  0.7986
 4912TIP3    H236152   1.624   1.598   4.411  0.2480 -0.1285 -1.2684
 4913TIP3   OH236153   5.955   1.559  17.208 -0.4627  0.0763  0.3162
 4913TIP3    H136154   6.026   1.580  17.147 -0.0534 -0.7545  0.4993
 4913TIP3    H236155   5.875   1.579  17.159 -0.1121  1.3194  0.2159
 4914TIP3   OH236156   6.028   3.454  12.025  0.5617  0.6276  0.5597
 4914TIP3    H136157   5.997   3.465  11.935 -1.4663 -0.2414  1.1031
 4914TIP3    H236158   5.976   3.515  12.076  1.2517  0.6552  1.2558
 4915TIP3   OH236159   2.672   5.660   4.664 -0.1311  0.1643 -0.1224
 4915TIP3    H136160   2.753   5.621   4.632 -0.0667  0.6580 -0.5666
 4915TIP3    H236161   2.621   5.677   4.585 -0.7802 -0.3738  0.1656
 4916TIP3   OH236162   6.158   0.820  16.353 -0.3273 -0.5527  0.1542
 4916TIP3    H136163   6.247   0.813  16.318 -0.7421  0.6625 -1.2506
 4916TIP3    H236164   6.134   0.731  16.377  2.0707 -0.6656  2.7380
 4917TIP3   OH236165   5.769   1.601   3.355 -0.7366  0.1652 -0.6868
 4917TIP3    H136166   5.862   1.596   3.333 -0.5309  1.7533 -0.2940
 4917TIP3    H236167   5.732   1.665   3.294 -1.8794 -1.3623 -1.6895
 4918TIP3   OH236168   3.025   4.393  13.115  0.2307  1.1631  0.2015
 4918TIP3    H136169   3.077   4.442  13.051 -1.3879  0.2911 -1.9320
 4918TIP3    H236170   3.059   4.304  13.110  1.5614  1.4851  2.2946
 4919TIP3   OH236171   1.992   5.733  11.970 -0.3715  0.5350 -0.2770
 4919TIP3    H136172   1.939   5.654  11.971 -0.1215  0.3566  1.0486
 4919TIP3    H236173   2.070   5.708  11.919 -0.5436  0.0954 -0.3331
 4920TIP3   OH236174   2.169   4.463   1.344  0.0890  0.5490  0.7677
 4920TIP3    H136175   2.253   4.471   1.298 -0.0187 -0.5253  0.3586
 4920TIP3    H236176   2.147   4.553   1.370  2.3023  0.6502  2.5711
 4921TIP3   OH236177   4.792   6.663  16.146  0.0838 -0.2991  0.2870
 4921TIP3    H136178   4.797   6.568  16.151  1.2564 -0.2027  1.6573
 4921TIP3    H236179   4.829   6.694  16.229 -0.4292  1.3489 -0.0507
 4922TIP3   OH236180   3.358   5.567   4.125  0.3367  0.2525 -0.2130
 4922TIP3    H136181   3.378   5.524   4.208 -0.0300 -2.5184 -1.4233
 4922TIP3    H236182   3.292   5.633   4.147  0.6436 -0.0267  1.7457
 4923TIP3   OH236183   1.962   1.800  12.435 -0.7940  0.0868  0.2147
 4923TIP3    H136184   1.995   1.863  12.371 -0.0176  2.0036  2.3385
 4923TIP3    H236185   2.029   1.732  12.439  0.2145  1.0718  0.5009
 4924TIP3   OH236186   4.338   2.616  14.517 -0.0707 -0.2358 -0.1247
 4924TIP3    H136187   4.316   2.523  14.513  0.2274 -0.3360  0.4192
 4924TIP3    H236188   4.428   2.618  14.549  0.0035  0.2326 -0.3565
 4925TIP3   OH236189   5.175   5.458   1.133  0.6045 -0.1803 -1.3189
 4925TIP3    H136190   5.257   5.477   1.087 -0.6762  1.6534 -3.0217
 4925TIP3    H236191   5.110   5.451   1.064 -0.7160 -1.5433  0.0003
 4926TIP3   OH236192   6.471   5.578   3.846 -0.5099 -0.0471  0.4938
 4926TIP3    H136193   6.533   5.577   3.773 -2.4297 -0.0442 -1.2395
 4926TIP3    H236194   6.479   5.492   3.885 -0.2338 -0.4682 -0.4526
 4927TIP3   OH236195   3.327   4.979   1.277 -0.4691  0.2749  0.1014
 4927TIP3    H136196   3.401   4.941   1.231 -0.5338  0.9170 -0.5394
 4927TIP3    H236197   3.296   5.050   1.221 -1.6120 -0.0203  0.3153
 4928TIP3   OH236198   4.041   5.387   4.405  0.5545 -0.1056  0.2280
 4928TIP3    H136199   4.089   5.378   4.487  0.1492 -2.0175  0.3064
 4928TIP3    H236200   3.979   5.314   4.405 -1.7514  1.7275 -0.3060
 4929TIP3   OH236201   2.687   0.554  14.343  0.1653  0.2236 -0.1727
 4929TIP3    H136202   2.779   0.579  14.354 -0.8431  4.1901  0.9142
 4929TIP3    H236203   2.676   0.547  14.248  1.4100  0.3209 -0.3471
 4930TIP3   OH236204   1.999   5.300   2.540  0.4632 -0.0099 -0.3581
 4930TIP3    H136205   1.917   5.279   2.584 -0.2625  1.5239 -0.8995
 4930TIP3    H236206   1.972   5.340   2.457  1.7773 -0.5220 -1.0560
 4931TIP3   OH236207   1.995   4.029   4.676 -0.3154  0.3489 -0.7236
 4931TIP3    H136208   2.015   4.040   4.583 -3.5688  0.6427 -1.5260
 4931TIP3    H236209   1.899   4.039   4.681 -0.3959 -0.8554  2.4856
 4932TIP3   OH236210   5.125   6.733   5.343  0.5515  0.1457 -0.0437
 4932TIP3    H136211   5.052   6.761   5.399  1.3827  0.1386  1.0682
 4932TIP3    H236212   5.089   6.738   5.254 -0.7313  0.3666  0.4565
 4933TIP3   OH236213   4.550   3.055  11.972 -0.1409  0.2336 -0.4776
 4933TIP3    H136214   4.629   3.047  12.025 -0.1453 -0.7750 -0.6077
 4933TIP3    H236215   4.511   3.137  12.000 -0.1827 -0.2966  1.1274
 4934TIP3   OH236216   3.987   4.202   3.417 -0.4931  0.6664  0.0436
 4934TIP3    H136217   3.958   4.288   3.449 -0.4955  0.1569  1.4732
 4934TIP3    H236218   4.047   4.170   3.485 -1.4427 -0.9909  0.1556
 4935TIP3   OH236219   0.017   2.253  12.650 -0.3200  0.4992 -0.3042
 4935TIP3    H136220   0.075   2.178  12.659 -1.0900  0.1016  2.1698
 4935TIP3    H236221  -0.039   2.232  12.575 -0.8259 -1.6603  0.6079
 4936TIP3   OH236222   4.939   6.468   0.272  0.2374 -0.2053 -0.3386
 4936TIP3    H136223   4.963   6.561   0.278  0.7328 -0.4123  1.7157
 4936TIP3    H236224   4.906   6.457   0.183  0.6382  1.8281 -0.7818
 4937TIP3   OH236225   2.680   5.223  16.273  0.1018 -0.6207  0.6010
 4937TIP3    H136226   2.774   5.203  16.272 -0.0474 -1.3411 -0.3814
 4937TIP3    H236227   2.672   5.301  16.218  0.1471 -0.4516  0.8347
 4938TIP3   OH236228   2.680   4.793   5.404  0.2023  0.2071  0.7420
 4938TIP3    H136229   2.761   4.766   5.360 -0.3956  1.7618 -1.4754
 4938TIP3    H236230   2.647   4.713   5.444  1.5434 -1.0214 -0.4868
 4939TIP3   OH236231   4.391   0.786   4.133  0.1790 -0.0581 -0.0637
 4939TIP3    H136232   4.453   0.766   4.063  0.6383  0.1165  0.2852
 4939TIP3    H236233   4.447   0.802   4.210 -0.3240 -3.7650  1.2929
 4940TIP3   OH236234   3.809   0.312   5.023  0.4059  0.0461 -0.2106
 4940TIP3    H136235   3.768   0.260   5.092 -1.6529 -0.2723 -1.5552
 4940TIP3    H236236   3.869   0.371   5.068 -1.3480  0.3088  1.9277
 4941TIP3   OH236237   3.842   0.354   0.215 -0.2904 -0.1203  0.2550
 4941TIP3    H136238   3.854   0.347   0.310 -1.9794  0.2884  0.5381
 4941TIP3    H236239   3.831   0.447   0.199  0.9350 -0.0866 -0.4983
 4942TIP3   OH236240   0.384   1.338   4.888 -0.2635 -0.3939  0.7507
 4942TIP3    H136241   0.322   1.393   4.840 -0.4579 -0.7260  0.6208
 4942TIP3    H236242   0.329   1.280   4.940 -0.0620 -0.6700  0.6560
 4943TIP3   OH236243   0.118   1.581  16.928 -0.1461 -0.1391  0.2795
 4943TIP3    H136244   0.038   1.532  16.947 -0.6026  1.0710  1.6562
 4943TIP3    H236245   0.186   1.514  16.921 -0.6357 -0.9842  2.6877
 4944TIP3   OH236246   5.653   5.622   2.198 -0.1271  0.1490  0.1487
 4944TIP3    H136247   5.583   5.677   2.162 -0.9884 -1.0280 -0.0244
 4944TIP3    H236248   5.613   5.536   2.207  1.4185 -0.6375 -0.2800
 4945TIP3   OH236249   2.221   4.461   6.409  0.3881 -0.4159  0.6621
 4945TIP3    H136250   2.302   4.415   6.432  0.8296  0.6844  1.4125
 4945TIP3    H236251   2.227   4.544   6.457 -0.1391  0.6542 -1.0540
 4946TIP3   OH236252   6.505   0.777  16.053 -0.5474  0.2736  0.1186
 4946TIP3    H136253   6.430   0.726  16.086  0.1849 -0.5112  0.6226
 4946TIP3    H236254   6.550   0.717  15.994 -0.9930  1.1660 -1.1808
 4947TIP3   OH236255   2.332   5.392  12.727  0.2340 -0.2928  0.4318
 4947TIP3    H136256   2.386   5.336  12.784 -0.3190 -2.1464 -0.7793
 4947TIP3    H236257   2.384   5.403  12.648  0.1341  0.5230  0.4775
 4948TIP3   OH236258   0.669   1.112  11.990  0.2233 -0.1366 -0.5828
 4948TIP3    H136259   0.627   1.099  11.905 -1.1172  1.1114 -0.1408
 4948TIP3    H236260   0.761   1.129  11.969 -0.4121  2.0150 -1.9643
 4949TIP3   OH236261   3.345   6.188  16.648 -0.0909  0.7582  0.5470
 4949TIP3    H136262   3.390   6.107  16.672 -1.0634  0.4112  1.2640
 4949TIP3    H236263   3.374   6.251  16.714 -0.6477  0.5338  1.0115
 4950TIP3   OH236264   2.307   6.239   4.599 -0.0615  0.1310 -0.7726
 4950TIP3    H136265   2.347   6.324   4.577 -0.5471 -0.0964 -2.6416
 4950TIP3    H236266   2.228   6.235   4.546 -0.1567 -1.4209 -0.5532
 4951TIP3   OH236267   6.291   6.749   4.703 -0.8342  0.7509 -0.4975
 4951TIP3    H136268   6.222   6.798   4.748 -0.0863  0.2354  1.2933
 4951TIP3    H236269   6.259   6.659   4.700  0.0269  0.3606  1.0134
 4952TIP3   OH236270   4.223   2.140  14.000  0.5675  0.0339 -0.1588
 4952TIP3    H136271   4.296   2.084  14.026  0.8350  0.3471 -0.2350
 4952TIP3    H236272   4.158   2.128  14.070  1.3253  0.9654  0.7355
 4953TIP3   OH236273   2.036   4.856  12.888  0.1852  0.0392  0.1069
 4953TIP3    H136274   2.049   4.938  12.936  0.7306  0.1469 -0.2161
 4953TIP3    H236275   2.020   4.790  12.955 -2.7842  0.8260  0.3130
 4954TIP3   OH236276   4.687   1.729  15.958  0.2354 -0.0359 -0.4083
 4954TIP3    H136277   4.610   1.674  15.969 -0.9407  1.2152 -1.8982
 4954TIP3    H236278   4.663   1.812  16.000  1.6262 -0.2876  0.9986
 4955TIP3   OH236279   1.707   4.548   3.422 -0.3226 -0.7302  0.5112
 4955TIP3    H136280   1.653   4.561   3.344 -1.2826  0.3826  1.3280
 4955TIP3    H236281   1.727   4.636   3.452  2.5529 -1.0588 -0.0985
 4956TIP3   OH236282   2.615   1.952   5.930 -0.0596 -0.1661  0.1273
 4956TIP3    H136283   2.667   1.964   6.009 -0.8727  0.6977  0.5546
 4956TIP3    H236284   2.535   1.909   5.961  0.1086 -0.8796 -0.4133
 4957TIP3   OH236285   0.436   0.057   2.947 -0.2610  0.6199  0.0219
 4957TIP3    H136286   0.478   0.094   3.024 -3.9142  3.7480  0.8177
 4957TIP3    H236287   0.378  -0.011   2.981  0.5343 -0.3262 -0.4596
 4958TIP3   OH236288   2.568   3.719   2.645  0.1316  0.1675 -0.5261
 4958TIP3    H136289   2.509   3.768   2.702 -0.1731 -0.1911 -0.5302
 4958TIP3    H236290   2.514   3.648   2.610  0.5284 -0.0796 -0.6406
 4959TIP3   OH236291   5.135   1.312  15.678 -0.2057  1.0470  0.0101
 4959TIP3    H136292   5.155   1.371  15.604  0.5752 -1.7369 -2.1751
 4959TIP3    H236293   5.219   1.276  15.703 -0.7609  0.1477  0.6283
 4960TIP3   OH236294   6.738   5.802  13.779 -0.1611  0.2428  0.7891
 4960TIP3    H136295   6.726   5.796  13.873 -1.6772  0.1450  0.6260
 4960TIP3    H236296   6.651   5.825  13.745  0.8285  2.6967 -0.3860
 4961TIP3   OH236297   2.311   1.807  17.346  0.3115 -0.1202  0.9419
 4961TIP3    H136298   2.337   1.843  17.261 -0.6976 -1.2930  0.1057
 4961TIP3    H236299   2.324   1.879  17.407  1.2237  0.7009 -0.1687
 4962TIP3   OH236300   1.088   0.009  13.283  0.6561 -0.8049 -0.0973
 4962TIP3    H136301   1.161  -0.038  13.322  1.4317  0.3314 -0.1188
 4962TIP3    H236302   1.120   0.038  13.198  0.1938 -0.2900 -0.1037
 4963TIP3   OH236303   0.873   1.003  15.505 -0.3524  0.0168 -0.1280
 4963TIP3    H136304   0.797   1.026  15.559 -1.1732  1.0128 -1.6177
 4963TIP3    H236305   0.872   1.068  15.434  0.8799 -1.0073 -1.1336
 4964TIP3   OH236306   0.045   0.329   2.020 -0.1508 -0.4619 -0.1113
 4964TIP3    H136307   0.001   0.412   2.039  1.1602  0.2937 -0.2808
 4964TIP3    H236308   0.032   0.277   2.099 -2.0051 -0.5737 -0.4530
 4965TIP3   OH236309   5.096   5.936  11.156  0.0828 -0.1776 -0.0986
 4965TIP3    H136310   5.072   5.959  11.246 -0.7502  1.4835 -0.6895
 4965TIP3    H236311   5.030   5.872  11.128 -0.5421  0.4102  0.0093
 4966TIP3   OH236312   4.155   0.480   4.775  0.1548 -0.2344 -0.2289
 4966TIP3    H136313   4.136   0.438   4.859 -1.3445  0.9181  0.0524
 4966TIP3    H236314   4.231   0.535   4.793 -0.4620  0.3955  0.5372
 4967TIP3   OH236315   3.914   4.040  13.550 -0.8649 -0.1019  0.0649
 4967TIP3    H136316   3.992   4.095  13.562 -0.3261 -1.0384  1.0648
 4967TIP3    H236317   3.841   4.097  13.574 -0.7144  1.3516 -2.5460
 4968TIP3   OH236318   4.342   0.718  16.740  0.9455 -0.3714 -0.3632
 4968TIP3    H136319   4.415   0.737  16.800  0.5414 -0.6231  0.2168
 4968TIP3    H236320   4.377   0.736  16.653  1.7779 -0.7322 -0.1084
 4969TIP3   OH236321   6.572   5.016  13.604  0.2002  0.4454  0.2277
 4969TIP3    H136322   6.540   5.033  13.693  0.9209 -0.2005  0.6333
 4969TIP3    H236323   6.495   5.018  13.549 -0.2315  1.0794  0.8398
 4970TIP3   OH236324   1.305   0.305  10.629  0.4039 -0.0395  0.1533
 4970TIP3    H136325   1.398   0.284  10.641  0.9250 -0.8587 -3.8013
 4970TIP3    H236326   1.294   0.391  10.670  2.8935  0.0660  0.7777
 4971TIP3   OH236327   0.346   5.417  17.370  0.7481 -0.8332 -0.2844
 4971TIP3    H136328   0.292   5.346  17.405 -0.1800  0.3756  0.8087
 4971TIP3    H236329   0.288   5.464  17.310  0.1885  1.0763  1.6462
 4972TIP3   OH236330   4.548   0.272  16.615 -0.1209  0.7059 -0.1421
 4972TIP3    H136331   4.620   0.317  16.571  1.1435 -0.0065  1.1091
 4972TIP3    H236332   4.498   0.341  16.657  1.0909  1.0938  0.7389
 4973TIP3   OH236333   1.050   4.423   4.239  0.3251  0.5372  0.3098
 4973TIP3    H136334   1.004   4.504   4.262 -0.5802  0.1006  0.0480
 4973TIP3    H236335   1.065   4.430   4.145  3.0369  1.8105  0.7440
 4974TIP3   OH236336   3.851   2.457  13.934  0.2049 -0.1263  0.4808
 4974TIP3    H136337   3.838   2.533  13.991 -2.9592 -0.0812 -0.1309
 4974TIP3    H236338   3.938   2.425  13.956  1.4177  3.2952  1.1769
 4975TIP3   OH236339   5.751   0.209   2.473  0.1691  0.1941  0.4454
 4975TIP3    H136340   5.816   0.146   2.443 -0.1956  0.7758 -1.7486
 4975TIP3    H236341   5.801   0.283   2.507  0.6024 -0.4267  1.1784
 4976TIP3   OH236342   2.417   4.277  17.049  0.3341  0.0329  0.2129
 4976TIP3    H136343   2.341   4.226  17.020  0.1112  0.7311 -0.4500
 4976TIP3    H236344   2.492   4.225  17.022  0.1064 -0.2224  0.0664
 4977TIP3   OH236345   2.374   2.935  13.600  0.3848  0.0902 -0.7583
 4977TIP3    H136346   2.340   3.010  13.648  0.5020  1.1779 -2.2840
 4977TIP3    H236347   2.462   2.922  13.634  0.3563  0.6337 -0.4689
 4978TIP3   OH236348   5.160   4.079   4.990  0.0632 -0.0187 -0.9020
 4978TIP3    H136349   5.081   4.124   5.018 -0.5535 -1.2012 -0.6911
 4978TIP3    H236350   5.159   3.996   5.038  1.6037  0.0877 -0.6349
 4979TIP3   OH236351   0.761   6.641   2.755  0.4820  1.0724 -0.5855
 4979TIP3    H136352   0.763   6.661   2.661  1.1364  0.8633 -0.6203
 4979TIP3    H236353   0.672   6.609   2.770  0.9853 -0.9551 -1.5800
 4980TIP3   OH236354   1.473   5.749   0.847  0.5295 -0.2648 -0.8390
 4980TIP3    H136355   1.539   5.762   0.778  2.5311  0.2456  1.0595
 4980TIP3    H236356   1.446   5.838   0.870  0.5286 -0.3860 -0.3762
 4981TIP3   OH236357   4.101   0.212   3.334  0.1620 -0.4593  0.4161
 4981TIP3    H136358   4.019   0.165   3.351  0.2949 -0.4272  1.2188
 4981TIP3    H236359   4.169   0.151   3.362  0.3103  0.4528  2.1667
 4982TIP3   OH236360   4.942   2.931   4.066  0.2198  0.5521 -0.1530
 4982TIP3    H136361   5.019   2.956   4.118  0.0582  1.3646 -0.2923
 4982TIP3    H236362   4.927   2.839   4.088 -0.9918  1.3226  2.7827
 4983TIP3   OH236363   4.336   1.204   5.697  0.4937 -0.0067 -0.1734
 4983TIP3    H136364   4.330   1.232   5.788 -2.7689 -0.6721 -0.0580
 4983TIP3    H236365   4.406   1.259   5.660  2.5135 -0.2953  2.8351
 4984TIP3   OH236366   2.749   1.243  14.193 -0.1777 -0.9137 -0.4356
 4984TIP3    H136367   2.826   1.197  14.227 -1.6740 -2.8840  0.4604
 4984TIP3    H236368   2.755   1.233  14.098  1.0501 -0.3562 -0.4363
 4985TIP3   OH236369   2.929   2.725  15.152  0.1293 -0.0167 -0.5191
 4985TIP3    H136370   2.996   2.696  15.090 -0.4902 -1.9930 -0.3572
 4985TIP3    H236371   2.974   2.726  15.237  0.5716  1.1570 -0.7473
 4986TIP3   OH236372   1.896   3.241  15.886 -0.5114 -0.3225  0.3341
 4986TIP3    H136373   1.939   3.203  15.810  0.4464 -0.0815  0.7339
 4986TIP3    H236374   1.820   3.288  15.851  0.4197  0.5461 -0.5680
 4987TIP3   OH236375   2.704   6.501  13.660 -0.7137 -0.9202  0.3808
 4987TIP3    H136376   2.782   6.451  13.639 -0.6682 -0.9173  0.5404
 4987TIP3    H236377   2.723   6.590  13.629 -1.0136 -1.1230 -0.4116
 4988TIP3   OH236378   6.056   3.028   1.351  0.2585 -0.3845  0.3348
 4988TIP3    H136379   5.973   2.991   1.320  0.4229  0.3868 -1.1283
 4988TIP3    H236380   6.032   3.112   1.390  0.4917  0.8253 -1.9299
 4989TIP3   OH236381   0.221   5.735   2.322 -0.3581 -0.4053  0.4444
 4989TIP3    H136382   0.229   5.692   2.237 -1.5570  1.3270 -0.5934
 4989TIP3    H236383   0.280   5.685   2.379  1.7863 -0.5806 -1.7795
 4990TIP3   OH236384   4.686   3.123   2.870  0.3259  0.0218 -0.3798
 4990TIP3    H136385   4.674   3.215   2.891  1.4663  0.6531 -2.2110
 4990TIP3    H236386   4.780   3.114   2.852  0.0574 -1.2308 -1.3490
 4991TIP3   OH236387   4.917   4.372  15.502  0.4277 -0.1274 -0.1215
 4991TIP3    H136388   4.956   4.298  15.454  2.2268  0.8565 -0.2544
 4991TIP3    H236389   4.919   4.344  15.594 -2.3017 -1.6926 -0.4330
 4992TIP3   OH236390   3.895   2.145   2.677  0.0795  0.0820 -0.1112
 4992TIP3    H136391   3.861   2.198   2.604  0.3284  0.0991 -0.2146
 4992TIP3    H236392   3.988   2.133   2.657  0.5063  1.3588  0.9531
 4993TIP3   OH236393   3.340   6.106  15.887 -0.0610 -0.0247 -0.6113
 4993TIP3    H136394   3.294   6.157  15.820 -2.3839  0.2651  1.1066
 4993TIP3    H236395   3.411   6.063  15.839  1.4958  3.9838 -2.3603
 4994TIP3   OH236396   4.567   6.680  17.190  0.0728 -0.1314 -0.1264
 4994TIP3    H136397   4.625   6.691  17.265 -0.8868  1.2467  0.4636
 4994TIP3    H236398   4.493   6.629  17.225  0.4589 -1.0596 -0.6278
 4995TIP3   OH236399   3.367   0.846  13.983 -0.2423  0.3306  0.0246
 4995TIP3    H136400   3.360   0.765  14.033  0.8200 -0.7907 -1.5611
 4995TIP3    H236401   3.393   0.818  13.895  0.9737  2.4549 -0.3570
 4996TIP3   OH236402   2.621   3.897  11.939  0.0249 -0.1153  0.0312
 4996TIP3    H136403   2.636   3.898  12.034  1.7896  0.9273 -0.2013
 4996TIP3    H236404   2.710   3.900  11.901 -0.6682  0.5484 -1.6437
 4997TIP3   OH236405   5.751   6.311  11.658 -0.0832  0.1580  0.1536
 4997TIP3    H136406   5.789   6.224  11.667  1.3183  0.7652  0.5940
 4997TIP3    H236407   5.693   6.306  11.583 -0.2387 -1.2151  0.3494
 4998TIP3   OH236408   0.123   5.210   4.628 -0.2254 -0.4290 -0.2688
 4998TIP3    H136409   0.109   5.150   4.555 -0.8781  1.1562 -1.4874
 4998TIP3    H236410   0.053   5.190   4.689 -0.3666 -0.9695 -0.5976
 4999TIP3   OH236411   4.826   0.371   6.291  0.6864  0.3049  0.2353
 4999TIP3    H136412   4.741   0.414   6.284  0.1634 -0.5532  1.0182
 4999TIP3    H236413   4.858   0.394   6.379  0.2027 -1.1848  0.8360
 5000TIP3   OH236414   0.612   6.057   3.117 -0.6726  0.0622 -0.5812
 5000TIP3    H136415   0.620   6.147   3.147 -0.4681  0.0487 -0.5960
 5000TIP3    H236416   0.523   6.051   3.082  0.2011  1.1089 -3.3064
 5001TIP3   OH236417   0.862   4.915  14.523  0.8205  0.3751 -0.1228
 5001TIP3    H136418   0.955   4.904  14.544  0.5656 -1.0293  0.4162
 5001TIP3    H236419   0.850   4.863  14.443  0.1577 -0.9761  0.8187
 5002TIP3   OH236420   4.232   5.243  15.262  0.2058 -0.4233 -0.0613
 5002TIP3    H136421   4.257   5.237  15.354 -0.2294 -2.1807 -0.0211
 5002TIP3    H236422   4.146   5.202  15.257  1.3472 -2.8655 -1.6444
 5003TIP3   OH236423   3.380   3.578   5.168  0.0235  0.4246 -0.4355
 5003TIP3    H136424   3.466   3.550   5.136  0.1952  0.9168 -0.4033
 5003TIP3    H236425   3.386   3.570   5.263 -0.4657 -0.9758 -0.4901
 5004TIP3   OH236426   4.729   4.591   5.100 -0.1519  0.2750 -0.0907
 5004TIP3    H136427   4.748   4.532   5.174  0.1795  0.4955 -0.0003
 5004TIP3    H236428   4.633   4.600   5.101 -0.2145 -0.3087 -0.1413
 5005TIP3   OH236429   1.467   5.000  13.137 -0.2169  0.0469 -0.3973
 5005TIP3    H136430   1.384   5.043  13.156  0.1001  0.0706  1.0422
 5005TIP3    H236431   1.524   5.025  13.210  0.1635 -2.3423  0.1938
 5006TIP3   OH236432   2.128   1.329   5.999  0.1567  0.1439 -0.1998
 5006TIP3    H136433   2.207   1.328   6.053  0.7069  1.7135 -0.9312
 5006TIP3    H236434   2.138   1.405   5.942 -0.3108 -1.4917 -2.6533
 5007TIP3   OH236435   0.797   1.326   3.552  0.0217  0.2495 -0.2590
 5007TIP3    H136436   0.883   1.289   3.530 -0.3191 -0.1009 -1.0322
 5007TIP3    H236437   0.792   1.318   3.647  0.1934 -1.2144 -0.3446
 5008TIP3   OH236438   1.490   4.428   0.701  0.0009  0.7667 -0.1963
 5008TIP3    H136439   1.413   4.380   0.732  0.0750  0.1512 -0.9271
 5008TIP3    H236440   1.460   4.475   0.624  0.4853  0.0837 -0.8101
 5009TIP3   OH236441   6.196   4.848   4.581  0.1132  0.3826 -0.1897
 5009TIP3    H136442   6.203   4.929   4.631 -0.0423  0.6294 -0.5616
 5009TIP3    H236443   6.142   4.791   4.636 -2.1535  1.4960 -1.0937
 5010TIP3   OH236444   2.581   3.518   4.739  0.1472  0.2417 -0.0405
 5010TIP3    H136445   2.673   3.545   4.744  0.2648  0.8772 -3.4867
 5010TIP3    H236446   2.539   3.586   4.687 -1.3142 -2.1334 -2.1820
 5011TIP3   OH236447   2.652   2.470  11.571  0.3025 -0.1407 -0.6072
 5011TIP3    H136448   2.677   2.459  11.479  0.2299  1.0504 -0.7845
 5011TIP3    H236449   2.708   2.409  11.618  1.3325  0.2257 -1.3131
 5012TIP3   OH236450   5.886   5.976   3.726 -0.1123  0.8199 -0.1969
 5012TIP3    H136451   5.951   6.039   3.757  0.2582  0.6344 -0.6036
 5012TIP3    H236452   5.926   5.935   3.650  0.7332 -1.7355  1.5132
 5013TIP3   OH236453   6.482   1.066  11.953 -0.3283 -0.2102 -0.4308
 5013TIP3    H136454   6.542   1.122  11.904 -0.5224 -0.4651 -0.9577
 5013TIP3    H236455   6.469   0.990  11.897  1.8605 -1.9909  1.2854
 5014TIP3   OH236456   5.609   4.257   0.778  0.1184  0.3436  0.0509
 5014TIP3    H136457   5.597   4.294   0.866 -0.4431 -1.4929  0.8040
 5014TIP3    H236458   5.652   4.173   0.794  1.4607  0.6700 -1.5856
 5015TIP3   OH236459   0.058   5.782  13.370 -0.0268  0.2664 -0.0673
 5015TIP3    H136460   0.122   5.769  13.440 -0.1490  0.0351  0.0028
 5015TIP3    H236461  -0.001   5.707  13.378 -1.0442  1.1283  0.6464
 5016TIP3   OH236462   0.405   0.987  13.606  0.1643  0.2577  0.1375
 5016TIP3    H136463   0.494   1.012  13.632  0.9284 -0.2302 -1.7608
 5016TIP3    H236464   0.404   1.000  13.511 -1.4649 -0.7251 -0.0170
 5017TIP3   OH236465   2.356   1.481   1.030  0.9411 -0.2845 -0.4187
 5017TIP3    H136466   2.355   1.394   1.069  2.1208 -0.1966 -0.1440
 5017TIP3    H236467   2.349   1.541   1.105  1.6856 -0.1371 -0.4561
 5018TIP3   OH236468   2.205   3.868  10.471  0.1509  0.1312 -0.4663
 5018TIP3    H136469   2.275   3.868  10.406 -0.0463  1.4956 -0.7060
 5018TIP3    H236470   2.191   3.776  10.491  1.0017 -0.2428 -1.5073
 5019TIP3   OH236471   0.084   6.141  15.488  0.1415 -0.1028  0.7713
 5019TIP3    H136472  -0.011   6.138  15.501 -0.1732  0.8664 -1.0106
 5019TIP3    H236473   0.120   6.140  15.577 -1.5637  0.2812  1.5142
 5020TIP3   OH236474   6.047   2.541  14.993  0.0329 -0.0673  0.2323
 5020TIP3    H136475   6.088   2.476  15.049  1.3502  0.7488  0.2655
 5020TIP3    H236476   5.955   2.542  15.019  0.0713 -1.6175  0.4814
 5021TIP3   OH236477   3.105   3.441   2.149 -0.3730 -0.4021 -0.0335
 5021TIP3    H136478   3.157   3.478   2.221 -1.2119  0.9482 -0.0911
 5021TIP3    H236479   3.167   3.433   2.077  0.3007 -1.0586  0.5952
 5022TIP3   OH236480   5.363   2.242   3.697 -0.6953 -0.0401  0.2406
 5022TIP3    H136481   5.438   2.254   3.756 -1.2221 -0.7058  1.0632
 5022TIP3    H236482   5.292   2.291   3.738 -1.3047 -1.2147  0.6465
 5023TIP3   OH236483   3.884   4.832   5.309 -0.1796 -0.3015  0.1582
 5023TIP3    H136484   3.943   4.847   5.384 -0.8029 -0.8874  0.7808
 5023TIP3    H236485   3.818   4.771   5.343 -0.8932  0.0062 -0.6614
 5024TIP3   OH236486   2.419   5.265   0.419 -0.4302 -0.0126 -0.1259
 5024TIP3    H136487   2.408   5.209   0.342 -0.5317  1.1015 -0.9456
 5024TIP3    H236488   2.493   5.227   0.466 -0.0883 -0.4567 -1.0013
 5025TIP3   OH236489   6.267   1.859  13.038 -0.3022 -0.5461  0.3990
 5025TIP3    H136490   6.247   1.869  12.945  0.1564  0.6752  0.4059
 5025TIP3    H236491   6.186   1.882  13.084 -0.1588  0.1246  0.3249
 5026TIP3   OH236492   2.156   4.946  15.856  0.6239  0.3976 -0.1248
 5026TIP3    H136493   2.223   4.969  15.791  0.6628  0.0377 -0.2130
 5026TIP3    H236494   2.081   5.002  15.834  0.5644  0.1370 -0.6071
 5027TIP3   OH236495   5.119   2.527   3.653  0.1804 -0.6038 -0.3827
 5027TIP3    H136496   5.166   2.490   3.727 -1.4914 -1.6887  0.1894
 5027TIP3    H236497   5.053   2.585   3.692  0.8101  0.6890 -1.1501
 5028TIP3   OH236498   4.188   5.026   5.371  0.0670  0.4946  0.0518
 5028TIP3    H136499   4.147   4.942   5.389 -0.1827  0.7435  0.6951
 5028TIP3    H236500   4.181   5.074   5.454  1.4931  0.6143  0.1221
 5029TIP3   OH236501   2.178   0.758   4.309  0.3279  0.6564  0.1720
 5029TIP3    H136502   2.264   0.759   4.267  1.4328  1.5129  2.3133
 5029TIP3    H236503   2.170   0.844   4.350 -1.8004  0.7860 -0.3894
 5030TIP3   OH236504   5.620   5.303  11.089  0.8370  0.5396 -0.0290
 5030TIP3    H136505   5.645   5.305  11.181  0.1309 -1.1946  0.2365
 5030TIP3    H236506   5.543   5.359  11.084  1.4056  1.3586  0.2532
 5031TIP3   OH236507   6.618   5.172   3.226 -0.3770  0.2291  0.1915
 5031TIP3    H136508   6.532   5.202   3.255 -0.6135 -1.0567  0.9307
 5031TIP3    H236509   6.643   5.232   3.156 -1.1751  1.5692  1.0157
 5032TIP3   OH236510   2.924   2.024  17.032  0.5346 -0.0697  0.1443
 5032TIP3    H136511   2.894   2.095  16.975  1.7953  0.7316  0.4342
 5032TIP3    H236512   2.859   1.955  17.019 -0.6640  1.0682 -0.2468
 5033TIP3   OH236513   1.847   5.483   1.926  0.5634  0.2249 -0.1135
 5033TIP3    H136514   1.937   5.518   1.927  0.5415  0.2814  0.4312
 5033TIP3    H236515   1.857   5.393   1.898  0.9868 -0.2346  1.3957
 5034TIP3   OH236516   3.539   5.068  16.124 -0.1186  0.5736  0.0145
 5034TIP3    H136517   3.573   5.137  16.067  2.4195 -0.0923  0.5714
 5034TIP3    H236518   3.563   4.987  16.081 -2.0387 -0.0098 -0.0493
 5035TIP3   OH236519   2.708   6.714  17.096 -0.2085  0.2442 -0.2753
 5035TIP3    H136520   2.631   6.767  17.121  0.5595  2.0540 -1.5090
 5035TIP3    H236521   2.779   6.751  17.149 -0.2916 -2.1064  1.6397
 5036TIP3   OH236522   0.289   1.670   1.539 -0.1370 -0.0731 -0.1119
 5036TIP3    H136523   0.372   1.712   1.513 -0.8985  1.5353 -0.0509
 5036TIP3    H236524   0.247   1.647   1.457  0.4942 -1.1771 -0.1384
 5037TIP3   OH236525   4.594   0.875   5.218 -0.1425 -0.5184  0.0514
 5037TIP3    H136526   4.518   0.903   5.167  0.4593 -0.4227 -0.8343
 5037TIP3    H236527   4.570   0.892   5.309 -0.7822  0.4644 -0.2829
 5038TIP3   OH236528   2.396   0.439  14.994  0.0265  0.3891 -0.3050
 5038TIP3    H136529   2.485   0.419  15.023 -0.3609 -1.9892 -0.5617
 5038TIP3    H236530   2.376   0.523  15.034  1.9168  0.3584  0.8200
 5039TIP3   OH236531   2.630   2.540   2.420 -0.3487  0.2156  0.6175
 5039TIP3    H136532   2.685   2.618   2.419 -0.0619  0.0204  1.3024
 5039TIP3    H236533   2.546   2.570   2.384  0.1686  0.5225 -0.3868
 5040TIP3   OH236534   0.406   5.138   5.539  0.5118  0.0328  0.0785
 5040TIP3    H136535   0.423   5.114   5.630  1.8297  0.2396 -0.0973
 5040TIP3    H236536   0.323   5.185   5.542  0.3988 -0.2115  1.1333
 5041TIP3   OH236537   1.466   1.325  12.778 -0.0811 -0.8324  0.4322
 5041TIP3    H136538   1.492   1.416  12.791 -1.0501 -0.7782  2.3814
 5041TIP3    H236539   1.549   1.278  12.769  0.4742  0.0883  0.6002
 5042TIP3   OH236540   4.154   0.517   3.801  0.0034  0.1682  0.5547
 5042TIP3    H136541   4.152   0.468   3.719 -0.6624  2.3198 -0.8066
 5042TIP3    H236542   4.062   0.528   3.825  0.1416  0.6398  0.8915
 5043TIP3   OH236543   2.924   3.217   0.073  0.4376 -0.7811 -0.7364
 5043TIP3    H136544   2.836   3.223   0.112  1.9694 -1.3459  3.3050
 5043TIP3    H236545   2.918   3.142   0.013 -1.6393 -1.3434  0.0562
 5044TIP3   OH236546   0.897   4.918  11.931  0.3555  0.1184 -0.0121
 5044TIP3    H136547   0.961   4.936  11.862  0.6027  0.6524  0.3555
 5044TIP3    H236548   0.856   4.836  11.904  3.2389 -1.9046  1.2200
 5045TIP3   OH236549   5.050   5.287   5.339  0.2790 -0.3348 -0.5762
 5045TIP3    H136550   4.958   5.274   5.360  0.8306 -0.8343  1.7993
 5045TIP3    H236551   5.074   5.210   5.286 -0.5525 -0.4036 -0.8563
 5046TIP3   OH236552   5.705   6.658  11.425  0.1263  0.1430  0.3087
 5046TIP3    H136553   5.649   6.702  11.362  1.2187 -0.1595 -0.9258
 5046TIP3    H236554   5.777   6.622  11.372 -0.0983 -2.0812  1.4142
 5047TIP3   OH236555   3.547   3.675  14.684 -0.3881  0.1238 -0.3549
 5047TIP3    H136556   3.496   3.710  14.757 -1.1500 -1.1575 -0.2479
 5047TIP3    H236557   3.486   3.670  14.611 -0.0185  0.0089 -0.6614
 5048TIP3   OH236558   3.507   5.253   6.089 -0.0660 -0.4982 -0.7497
 5048TIP3    H136559   3.411   5.252   6.084 -0.0941 -1.7334 -0.3252
 5048TIP3    H236560   3.526   5.310   6.163 -0.5016 -0.8072 -0.3944
 5049TIP3   OH236561   6.481   0.308   5.126 -0.0836  0.0972  0.3546
 5049TIP3    H136562   6.440   0.353   5.052 -2.1263 -2.9797 -0.5759
 5049TIP3    H236563   6.415   0.309   5.195  0.8156  0.6518  1.2454
 5050TIP3   OH236564   3.073   4.623   1.351  0.2793  0.0063 -0.2520
 5050TIP3    H136565   2.981   4.599   1.347  0.3471 -0.2019 -0.6559
 5050TIP3    H236566   3.083   4.671   1.433 -0.6982  2.1009 -1.2630
 5051TIP3   OH236567   2.475   1.411   3.478 -0.6117 -0.4220 -0.3673
 5051TIP3    H136568   2.489   1.400   3.572 -0.0150 -0.4274 -0.4527
 5051TIP3    H236569   2.529   1.487   3.455  0.6547 -1.4727 -1.0239
 5052TIP3   OH236570   5.821   2.592   4.261 -0.5775 -0.1029  0.3071
 5052TIP3    H136571   5.872   2.645   4.200 -1.0469 -0.7471 -0.6588
 5052TIP3    H236572   5.850   2.622   4.348  0.4608  0.4772 -0.2151
 5053TIP3   OH236573   3.224   4.632   4.355  0.5173 -0.0986 -1.0244
 5053TIP3    H136574   3.234   4.596   4.267  2.8232  1.0544 -1.3122
 5053TIP3    H236575   3.206   4.725   4.341 -0.6027 -0.1818 -0.2590
 5054TIP3   OH236576   5.913   3.439  10.430 -0.2377  0.3303  0.4254
 5054TIP3    H136577   5.854   3.508  10.401  0.1104 -0.7419 -3.2791
 5054TIP3    H236578   5.867   3.357  10.410  1.7108 -0.5109 -0.8934
 5055TIP3   OH236579   3.042   2.747  14.290  0.2859 -0.4061  0.1916
 5055TIP3    H136580   3.091   2.820  14.329  0.2285 -1.2385  1.9433
 5055TIP3    H236581   2.950   2.774  14.296  0.3930  0.6334 -1.9752
 5056TIP3   OH236582   3.843   2.449   1.769 -0.4673 -0.3201  0.1631
 5056TIP3    H136583   3.902   2.406   1.831 -0.9092  0.8709  1.4523
 5056TIP3    H236584   3.896   2.517   1.727  0.0488 -1.6166 -1.3975
 5057TIP3   OH236585   1.020   4.126   4.088  0.0830 -0.5683 -0.3458
 5057TIP3    H136586   1.078   4.096   4.018 -1.3075  0.5542 -2.0616
 5057TIP3    H236587   1.022   4.222   4.081 -1.4103 -0.4844  0.0146
 5058TIP3   OH236588   3.195   6.061   1.590  0.6033 -0.4539 -0.4521
 5058TIP3    H136589   3.261   6.022   1.647  0.9780 -0.4221 -0.8631
 5058TIP3    H236590   3.116   6.066   1.645  1.1391  0.1861  0.2676
 5059TIP3   OH236591   0.736   3.053  11.260 -0.2166 -0.4041 -0.0679
 5059TIP3    H136592   0.761   3.011  11.178 -1.4484  0.0434 -0.6944
 5059TIP3    H236593   0.815   3.100  11.288 -0.3683  1.2145 -2.1278
 5060TIP3   OH236594   0.511   0.699  11.353  0.1538  0.0209 -0.2952
 5060TIP3    H136595   0.499   0.793  11.365  2.4518  0.8254 -3.1953
 5060TIP3    H236596   0.604   0.689  11.331  0.2507 -3.1126  1.0107
 5061TIP3   OH236597   1.196   6.128  12.294  0.1570 -0.0506  0.0573
 5061TIP3    H136598   1.202   6.060  12.227 -0.4658 -0.8375  0.7797
 5061TIP3    H236599   1.176   6.208  12.244  0.4116 -0.4819 -0.7575
 5062TIP3   OH236600   3.850   0.622   3.604 -0.3057 -0.0854  0.2175
 5062TIP3    H136601   3.902   0.599   3.681  0.8590  1.8458  0.0823
 5062TIP3    H236602   3.760   0.632   3.637  0.5498  3.2348  1.9942
 5063TIP3   OH236603   5.905   1.741  16.139 -0.3728  0.5436  0.3892
 5063TIP3    H136604   5.819   1.712  16.109  0.0595 -0.5799  0.2013
 5063TIP3    H236605   5.954   1.757  16.059 -0.4434  1.3225  0.4955
 5064TIP3   OH236606   0.833   2.976  17.341 -0.2821  0.5110 -0.6751
 5064TIP3    H136607   0.738   2.967  17.352 -0.1115 -1.1038 -0.3517
 5064TIP3    H236608   0.867   2.983  17.430 -0.1195  1.4964 -0.8060
 5065TIP3   OH236609   3.314   4.675  11.224 -0.5215 -0.6139  0.8407
 5065TIP3    H136610   3.403   4.680  11.259  0.1358  0.2442 -0.8605
 5065TIP3    H236611   3.325   4.636  11.137 -1.7317  0.1040  0.3529
 5066TIP3   OH236612   5.332   4.455   5.251 -0.2171  0.0369  0.1580
 5066TIP3    H136613   5.260   4.517   5.264 -0.6734 -0.2584 -0.8237
 5066TIP3    H236614   5.313   4.383   5.312 -1.0389 -0.2646 -0.4336
 5067TIP3   OH236615   5.307   3.689   4.923  0.3097 -0.3170 -0.4900
 5067TIP3    H136616   5.234   3.666   4.866  0.0098 -1.0944  0.1875
 5067TIP3    H236617   5.304   3.624   4.993 -0.1116  1.3562  1.1190
 5068TIP3   OH236618   4.515   6.266  14.263  0.1504 -0.5613  0.3962
 5068TIP3    H136619   4.556   6.253  14.178 -1.2542 -2.1363 -0.0935
 5068TIP3    H236620   4.555   6.199  14.320  0.8635  0.2835  0.9086
 5069TIP3   OH236621   1.399   1.408  11.956  0.0170 -0.3514 -0.4250
 5069TIP3    H136622   1.421   1.421  12.048  0.8059  0.8564 -0.7523
 5069TIP3    H236623   1.316   1.455  11.944 -1.0815 -2.0929  0.0627
 5070TIP3   OH236624   2.015   4.392   2.472  0.7322  0.4762 -0.0844
 5070TIP3    H136625   2.083   4.324   2.469  1.2605  1.0256 -0.9292
 5070TIP3    H236626   1.956   4.369   2.401  2.2911  2.2737 -2.0793
 5071TIP3   OH236627   0.169   2.801  13.401  0.0354 -1.0854  0.5089
 5071TIP3    H136628   0.217   2.775  13.322 -0.9261 -0.7457 -0.2011
 5071TIP3    H236629   0.226   2.864  13.444  0.1748 -0.5653 -0.4075
 5072TIP3   OH236630   5.721   5.225   5.486  0.4486 -0.0259  0.3916
 5072TIP3    H136631   5.700   5.270   5.568  2.1635 -0.7615  1.2934
 5072TIP3    H236632   5.638   5.187   5.458 -0.0525 -0.4480  2.2627
 5073TIP3   OH236633   4.034   4.104  17.058  0.3352 -0.3826 -0.5001
 5073TIP3    H136634   4.075   4.122  16.974  1.7436  2.4300  0.6935
 5073TIP3    H236635   3.951   4.152  17.055  0.2360 -0.5468 -0.4083
 5074TIP3   OH236636   6.082   0.295   1.730 -0.8915  0.4174  0.0815
 5074TIP3    H136637   6.110   0.251   1.650 -1.0464 -0.6327  0.5922
 5074TIP3    H236638   6.136   0.374   1.734 -0.6765  0.3378 -0.8962
 5075TIP3   OH236639   5.867   0.058   3.183  0.2257 -0.2383 -0.0825
 5075TIP3    H136640   5.896   0.020   3.266  1.8693 -0.7907 -0.8705
 5075TIP3    H236641   5.788   0.010   3.161  2.1149 -3.2075 -0.9333
 5076TIP3   OH236642   5.957   3.199  15.874 -0.1491 -0.6409 -0.1273
 5076TIP3    H136643   6.044   3.232  15.854 -0.0997 -0.3876  0.5060
 5076TIP3    H236644   5.953   3.194  15.969 -1.3885  0.9111 -0.0614
 5077TIP3   OH236645   4.050   1.143   3.126 -0.1759 -0.2250 -0.2478
 5077TIP3    H136646   4.018   1.189   3.048 -2.0153 -0.6092  0.2385
 5077TIP3    H236647   3.985   1.074   3.141  0.8859 -1.0106  0.8395
 5078TIP3   OH236648   3.300   0.226  15.658 -0.0896 -0.1720  0.2612
 5078TIP3    H136649   3.373   0.166  15.650 -0.7857 -0.8905 -0.8683
 5078TIP3    H236650   3.244   0.207  15.583 -1.0344  0.9165  0.6564
 5079TIP3   OH236651   0.355   3.356  13.468  0.3278 -0.0349 -0.2002
 5079TIP3    H136652   0.305   3.426  13.508 -0.4868 -0.3606 -0.6172
 5079TIP3    H236653   0.298   3.322  13.399  0.9601 -0.6865 -0.4208
 5080TIP3   OH236654   2.084   3.002   1.515  0.1660  0.3120  0.5240
 5080TIP3    H136655   1.996   3.032   1.490 -0.4548  1.3360  3.5697
 5080TIP3    H236656   2.142   3.071   1.483 -0.4685  1.0552  0.9125
 5081TIP3   OH236657   6.741   3.794  11.266 -0.1900 -0.6601  0.2461
 5081TIP3    H136658   6.805   3.861  11.292  0.0548 -0.6446 -0.3664
 5081TIP3    H236659   6.657   3.838  11.274  0.0897  0.5313 -2.3472
 5082TIP3   OH236660   2.130   3.732  11.217  0.1775  0.6670  0.5196
 5082TIP3    H136661   2.061   3.779  11.264 -0.5260  2.0378 -1.7276
 5082TIP3    H236662   2.182   3.801  11.176  1.2051 -0.4355 -0.1101
 5083TIP3   OH236663   4.172   6.134   1.950 -0.2249 -0.0212  1.0426
 5083TIP3    H136664   4.163   6.209   1.892  0.0073 -2.1161 -1.9357
 5083TIP3    H236665   4.108   6.070   1.917  1.7439 -2.3085  1.3301
 5084TIP3   OH236666   1.289   0.295   5.791 -0.6707  0.2971 -0.3457
 5084TIP3    H136667   1.216   0.234   5.803 -0.5657 -0.3099 -2.3394
 5084TIP3    H236668   1.254   0.363   5.733  0.7290 -0.8808 -2.7171
 5085TIP3   OH236669   3.567   1.210  12.381 -0.0483 -0.1283 -0.9153
 5085TIP3    H136670   3.539   1.268  12.452  1.5223 -1.0849  0.5811
 5085TIP3    H236671   3.496   1.215  12.317 -1.0344  1.6172  0.2095
 5086TIP3   OH236672   1.034   5.419  13.279  0.2718  0.0997 -0.4581
 5086TIP3    H136673   1.085   5.471  13.217  0.6909  0.9247  0.5482
 5086TIP3    H236674   1.080   5.430  13.363 -0.4047 -0.8050  0.0516
 5087TIP3   OH236675   6.201   2.127  13.163  0.6935  0.1838  0.0662
 5087TIP3    H136676   6.240   2.179  13.233 -0.2307  0.8660  0.0884
 5087TIP3    H236677   6.173   2.046  13.206 -3.1358  1.9619  1.4014
 5088TIP3   OH236678   5.311   2.590  14.264 -0.4273 -0.5653  0.4658
 5088TIP3    H136679   5.264   2.540  14.197  0.0398  0.0605 -0.3437
 5088TIP3    H236680   5.242   2.617  14.325 -0.8472 -1.2233  0.3023
 5089TIP3   OH236681   1.356   2.803   2.110 -0.0091  0.2068  0.0594
 5089TIP3    H136682   1.304   2.736   2.153 -0.1198 -0.3431 -0.9034
 5089TIP3    H236683   1.439   2.760   2.090  0.3148  0.6769  0.3842
 5090TIP3   OH236684   6.157   5.204   0.578 -0.9941  0.1795  0.5686
 5090TIP3    H136685   6.119   5.167   0.499  1.5374 -0.4967 -0.4298
 5090TIP3    H236686   6.089   5.193   0.645 -2.0191 -2.1867 -0.7493
 5091TIP3   OH236687   6.019   0.165  11.008  0.7232 -0.2410 -0.3242
 5091TIP3    H136688   5.973   0.105  10.950 -3.8908 -0.8434  3.3535
 5091TIP3    H236689   6.007   0.251  10.969 -1.6526 -0.6962 -0.7077
 5092TIP3   OH236690   3.419   3.088  14.868 -0.2509  0.2587  0.0704
 5092TIP3    H136691   3.427   3.090  14.963 -1.7597 -1.2543  0.2878
 5092TIP3    H236692   3.374   3.005  14.850  2.2380 -0.7587 -2.1655
 5093TIP3   OH236693   0.142   2.214  11.250 -0.5005  0.2971 -0.3519
 5093TIP3    H136694   0.071   2.185  11.193  0.6415 -1.2040 -1.0789
 5093TIP3    H236695   0.188   2.280  11.198 -2.3103  2.6094  0.7921
 5094TIP3   OH236696   3.279   4.870   0.686 -0.9537  0.2566  0.3929
 5094TIP3    H136697   3.361   4.856   0.639 -0.3359  2.0324  0.8564
 5094TIP3    H236698   3.214   4.819   0.638  0.4240 -1.2689  0.0743
 5095TIP3   OH236699   3.116   6.295   3.768 -0.0253  0.0179  0.2840
 5095TIP3    H136700   3.171   6.260   3.838  0.3594  0.9929  0.4846
 5095TIP3    H236701   3.085   6.217   3.721 -0.4378 -0.6651  1.6273
 5096TIP3   OH236702   4.126   6.555  10.970  0.2631  0.2544 -0.4335
 5096TIP3    H136703   4.160   6.503  10.898 -0.0635 -1.7691  0.8003
 5096TIP3    H236704   4.091   6.634  10.929  2.0562  0.1902 -2.2221
 5097TIP3   OH236705   6.425   0.578   0.791 -0.2655  0.0497  0.2343
 5097TIP3    H136706   6.379   0.494   0.801 -1.8306  0.7334 -0.8421
 5097TIP3    H236707   6.394   0.631   0.865  1.4503 -0.5685  1.4757
 5098TIP3   OH236708   5.464   2.293  16.887  0.1716  0.4339 -0.0185
 5098TIP3    H136709   5.447   2.200  16.873  0.4507  0.4465 -0.4907
 5098TIP3    H236710   5.541   2.295  16.943 -0.5992  0.3825  1.0666
 5099TIP3   OH236711   1.733   3.715  15.053  0.6455 -0.4681 -0.6756
 5099TIP3    H136712   1.815   3.697  15.098  0.5822  1.1210  0.1666
 5099TIP3    H236713   1.742   3.672  14.968  2.1193 -0.7657 -0.3961
 5100TIP3   OH236714   0.161   5.461  15.123 -0.4297  0.0288 -0.3580
 5100TIP3    H136715   0.203   5.537  15.162  2.2405  0.2919 -3.3340
 5100TIP3    H236716   0.071   5.463  15.156  0.8468  1.5678  3.5010
 5101TIP3   OH236717   3.140   2.414  12.127  0.3557 -0.1454  0.0388
 5101TIP3    H136718   3.157   2.351  12.197  0.1871 -2.3686 -1.8192
 5101TIP3    H236719   3.052   2.393  12.096 -0.6110  2.4459  0.7109
 5102TIP3   OH236720   5.427   6.725   4.132  0.3561  0.1730 -0.1044
 5102TIP3    H136721   5.348   6.771   4.160 -0.4839 -1.6210  0.6777
 5102TIP3    H236722   5.496   6.760   4.188 -0.0726  1.1047 -0.1508
 5103TIP3   OH236723   3.285   2.006  16.495 -0.3615 -0.5259  0.2358
 5103TIP3    H136724   3.318   2.054  16.420  0.1315 -0.1450  0.6849
 5103TIP3    H236725   3.333   2.042  16.570 -0.9090 -0.8250  0.7463
 5104TIP3   OH236726   6.450   5.897  10.484  0.3384 -0.0181  0.2772
 5104TIP3    H136727   6.365   5.870  10.448  0.9565 -1.4216 -0.2177
 5104TIP3    H236728   6.514   5.862  10.422  1.3535 -0.7635  1.7036
 5105TIP3   OH236729   5.897   1.587  12.004 -0.0429  0.0197 -0.5604
 5105TIP3    H136730   5.861   1.521  11.945 -2.5099  0.8362 -0.0825
 5105TIP3    H236731   5.885   1.670  11.957 -0.9512  0.5519  0.5727
 5106TIP3   OH236732   5.673   1.809   2.308  0.1268 -0.6371 -0.5977
 5106TIP3    H136733   5.591   1.773   2.342  0.8026 -0.6773  1.1090
 5106TIP3    H236734   5.680   1.895   2.350  1.2081 -0.8640 -0.2741
 5107TIP3   OH236735   2.274   3.897  11.847 -0.4585 -0.2553  0.0580
 5107TIP3    H136736   2.320   3.932  11.770  0.1604 -1.3040 -0.0721
 5107TIP3    H236737   2.190   3.866  11.812 -1.6245  2.2641  0.4087
 5108TIP3   OH236738   3.999   3.994   2.315 -0.3396 -0.1986 -0.0847
 5108TIP3    H136739   3.932   4.043   2.266  0.2813 -1.3068 -2.1850
 5108TIP3    H236740   4.040   4.059   2.371 -1.2026  1.1413 -0.9364
 5109TIP3   OH236741   5.395   1.881   0.316 -0.3539  0.2312  0.8006
 5109TIP3    H136742   5.374   1.788   0.312 -1.8191  0.4490  2.1883
 5109TIP3    H236743   5.455   1.896   0.243 -0.9302 -1.5728 -0.0964
 5110TIP3   OH236744   6.375   3.869  12.704 -0.2312  0.2652  0.2312
 5110TIP3    H136745   6.307   3.852  12.769 -0.3578  1.2644  0.3762
 5110TIP3    H236746   6.431   3.935  12.744  1.1217 -0.8746  0.3075
 5111TIP3   OH236747   6.176   2.213   0.490 -0.5561  1.2532 -0.0033
 5111TIP3    H136748   6.218   2.294   0.521  0.5255  0.8350 -0.3072
 5111TIP3    H236749   6.249   2.151   0.482 -0.6758  1.3895 -3.6487
 5112TIP3   OH236750   3.590   1.285  16.286  0.5439  0.9139 -0.6407
 5112TIP3    H136751   3.556   1.198  16.265  0.3115  0.7682  0.2706
 5112TIP3    H236752   3.513   1.341  16.288  0.0248  0.3420  2.6756
 5113TIP3   OH236753   1.088   2.340  14.717  0.9613  0.1775 -0.4662
 5113TIP3    H136754   1.084   2.265  14.659 -1.6692  0.3078 -0.5533
 5113TIP3    H236755   1.086   2.416  14.659 -1.7379  0.3090 -0.3359
 5114TIP3   OH236756   1.005   5.998  10.761 -0.1822  1.1304  0.6713
 5114TIP3    H136757   1.092   5.986  10.724 -0.6414  1.9001 -0.6945
 5114TIP3    H236758   0.982   6.088  10.742 -1.2836  0.9442  1.0307
 5115TIP3   OH236759   1.953   6.201  16.852 -0.0097  0.1167 -0.1831
 5115TIP3    H136760   1.944   6.291  16.821 -0.6672 -0.0789 -0.5773
 5115TIP3    H236761   2.043   6.195  16.883  0.6302  0.3933 -1.8615
 5116TIP3   OH236762   3.752   1.166   3.582  0.2216  0.2517 -0.1072
 5116TIP3    H136763   3.847   1.155   3.583  0.1390 -0.4089  1.0643
 5116TIP3    H236764   3.737   1.236   3.517  1.5598  0.9396  0.2938
 5117TIP3   OH236765   0.475   6.305  17.349  0.0333  0.4185 -0.1120
 5117TIP3    H136766   0.410   6.241  17.324 -0.4672  0.9306 -0.1442
 5117TIP3    H236767   0.429   6.389  17.347  0.1467  0.5728  1.8083
 5118TIP3   OH236768   3.786   3.265  12.776 -0.7490  0.3072 -0.0499
 5118TIP3    H136769   3.754   3.355  12.775 -0.1213  0.5326 -0.0671
 5118TIP3    H236770   3.850   3.261  12.705 -0.2812  0.0305  0.3830
 5119TIP3   OH236771   0.199   4.946  15.846 -0.6250  0.1392  0.1360
 5119TIP3    H136772   0.181   5.010  15.915  2.8823  2.3701 -0.7375
 5119TIP3    H236773   0.139   4.968  15.775 -1.9427  0.0268  1.1907
 5120TIP3   OH236774   3.626   6.177   4.496 -0.4465  0.2548 -0.2607
 5120TIP3    H136775   3.588   6.198   4.582 -2.6052 -0.7872 -0.9036
 5120TIP3    H236776   3.666   6.260   4.467 -0.6253  0.9077  1.2596
 5121TIP3   OH236777   2.365   5.980   2.516  0.0886  0.4453 -0.3526
 5121TIP3    H136778   2.374   6.043   2.444  2.0626 -0.0605 -0.5989
 5121TIP3    H236779   2.444   5.991   2.568  0.4242 -1.6914 -0.3071
 5122TIP3   OH236780   5.372   0.690  13.492  0.2234  0.0495 -0.1376
 5122TIP3    H136781   5.459   0.648  13.490 -1.0347 -2.7413 -2.0413
 5122TIP3    H236782   5.390   0.780  13.519  3.5633 -0.7230  0.7001
 5123TIP3   OH236783   1.140   3.718  14.822  0.4301  0.1150  0.2207
 5123TIP3    H136784   1.085   3.640  14.830  1.4121 -0.5614  0.4530
 5123TIP3    H236785   1.087   3.779  14.771 -0.2029 -0.8299 -0.2791
 5124TIP3   OH236786   2.040   4.743   0.163 -0.2000 -0.1390 -0.3115
 5124TIP3    H136787   1.945   4.741   0.148 -0.3872  0.2385  0.7607
 5124TIP3    H236788   2.075   4.785   0.085 -0.8771 -0.5455 -0.8598
 5125TIP3   OH236789   0.935   0.662  17.163 -0.3895 -0.1516 -0.4173
 5125TIP3    H136790   0.943   0.574  17.200  3.0684 -0.0835 -0.7138
 5125TIP3    H236791   0.967   0.653  17.073 -0.0933  1.4014 -0.4941
 5126TIP3   OH236792   2.596   0.374   5.632  0.1469  0.4559  0.2401
 5126TIP3    H136793   2.645   0.331   5.562 -1.5020 -0.2590 -0.5119
 5126TIP3    H236794   2.639   0.345   5.713 -0.9311 -2.7367 -0.2145
 5127TIP3   OH236795   2.095   6.641  13.502 -0.7261  0.3630  0.0931
 5127TIP3    H136796   2.145   6.709  13.547 -0.6160  1.0966 -1.0974
 5127TIP3    H236797   2.005   6.653  13.532 -0.4039 -0.1724  1.3067
 5128TIP3   OH236798   0.728   1.548  12.027 -0.3110  0.8686 -0.0997
 5128TIP3    H136799   0.717   1.641  12.007 -1.3479  0.7351 -0.1917
 5128TIP3    H236800   0.679   1.502  11.958  0.5435  0.2358 -0.3000
 5129TIP3   OH236801   4.545   0.241  10.830 -0.5560 -0.1591 -0.2153
 5129TIP3    H136802   4.555   0.154  10.868  2.3889  0.8809  1.7706
 5129TIP3    H236803   4.469   0.279  10.875  1.0118 -0.0827  2.5941
 5130TIP3   OH236804   5.671   3.967   4.234 -0.0164  0.1497  0.4019
 5130TIP3    H136805   5.667   4.044   4.177  1.1123 -0.7117 -0.8927
 5130TIP3    H236806   5.579   3.943   4.248 -0.3462  1.1235 -0.0113
 5131TIP3   OH236807   4.782   3.000  15.012 -0.0017 -0.8334  0.2456
 5131TIP3    H136808   4.724   2.963  14.945  0.5689 -0.5980 -0.3892
 5131TIP3    H236809   4.773   3.094  15.001  0.6041 -0.7973  0.0459
 5132TIP3   OH236810   2.658   1.360   0.063  0.4266 -0.2433 -0.1266
 5132TIP3    H136811   2.620   1.447   0.069 -0.9237 -0.8129 -0.1172
 5132TIP3    H236812   2.656   1.339  -0.030 -2.1393 -1.4494  0.1119
 5133TIP3   OH236813   5.138   5.923   1.922  0.6295 -0.0348  0.5416
 5133TIP3    H136814   5.192   5.961   1.852  0.2422  0.5910  0.5776
 5133TIP3    H236815   5.140   5.989   1.991 -0.7613  0.3284  0.2676
 5134TIP3   OH236816   3.363   4.378   5.790  0.4319  0.0334 -0.0663
 5134TIP3    H136817   3.295   4.389   5.724  1.3235  1.1727 -0.8228
 5134TIP3    H236818   3.321   4.405   5.872 -0.5265 -0.9048 -0.2215
 5135TIP3   OH236819   4.998   3.910  16.439  0.1678 -0.0062 -0.3043
 5135TIP3    H136820   5.008   3.989  16.491 -1.9866  0.5034 -0.5873
 5135TIP3    H236821   4.921   3.926  16.385 -0.3334 -2.2908 -0.3709
 5136TIP3   OH236822   5.996   1.268  12.274  0.4314 -0.0291  0.7291
 5136TIP3    H136823   6.039   1.192  12.235 -0.9266 -0.3709 -0.1396
 5136TIP3    H236824   6.065   1.335  12.279  1.2567 -0.8191  0.1236
 5137TIP3   OH236825   2.504   2.968  13.215 -0.4095  0.0812  0.0309
 5137TIP3    H136826   2.580   3.015  13.180  0.1632  0.3404  1.5528
 5137TIP3    H236827   2.541   2.894  13.264 -1.1056  0.3321  0.9823
 5138TIP3   OH236828   4.952   2.192   4.715 -0.1922  0.2723 -0.1029
 5138TIP3    H136829   4.874   2.247   4.706 -1.0086 -0.7617  0.4434
 5138TIP3    H236830   4.953   2.137   4.637  0.0993  0.4082 -0.1981
 5139TIP3   OH236831   2.678   4.545   2.031  0.0605 -0.0739 -0.2838
 5139TIP3    H136832   2.613   4.586   2.088  2.4884  1.3146  1.7305
 5139TIP3    H236833   2.724   4.483   2.088  0.3573 -1.2018 -1.6970
 5140TIP3   OH236834   5.984   1.576   0.666  0.2356  0.0985  0.1775
 5140TIP3    H136835   6.042   1.506   0.695  1.7269  0.1197 -2.4217
 5140TIP3    H236836   6.015   1.654   0.712  0.1487 -0.4821  1.2433
 5141TIP3   OH236837   4.858   0.817   4.354  0.0026  0.4323  0.2624
 5141TIP3    H136838   4.822   0.747   4.299  2.8145 -0.7951 -0.1985
 5141TIP3    H236839   4.870   0.890   4.294  0.4626  0.0536 -0.1110
 5142TIP3   OH236840   2.240   5.413  13.819 -0.2595 -0.1882 -0.2633
 5142TIP3    H136841   2.152   5.451  13.817  0.4611  1.5792 -0.3103
 5142TIP3    H236842   2.263   5.403  13.727  0.4023  1.4591 -0.3186
 5143TIP3   OH236843   6.590   2.871  14.790 -0.3915 -0.4637 -0.0638
 5143TIP3    H136844   6.579   2.906  14.878  1.3019 -0.7927  0.3218
 5143TIP3    H236845   6.573   2.945  14.731  0.0105  0.1730  0.6097
 5144TIP3   OH236846   0.361   0.546   3.825  0.2722  0.1132 -0.6907
 5144TIP3    H136847   0.268   0.524   3.818  0.0711  0.8366 -0.3784
 5144TIP3    H236848   0.367   0.597   3.906  1.0006 -0.2239 -0.5303
 5145TIP3   OH236849   2.363   1.614   4.492  0.0107 -0.5318  0.2264
 5145TIP3    H136850   2.450   1.597   4.456 -0.6784 -0.8562 -1.3655
 5145TIP3    H236851   2.340   1.534   4.537  0.2580 -0.6995  0.0591
 5146TIP3   OH236852   1.989   4.611   6.090  0.3164  0.2728 -0.2283
 5146TIP3    H136853   1.924   4.579   6.152 -0.4079 -1.6109 -1.8684
 5146TIP3    H236854   2.073   4.582   6.126  0.1399  1.2324  1.0210
 5147TIP3   OH236855   0.022   3.492  16.057 -0.2907 -0.1041  0.4956
 5147TIP3    H136856   0.116   3.484  16.072 -0.3695  0.4349  1.3336
 5147TIP3    H236857  -0.014   3.409  16.089 -0.1230 -0.2692  0.2691
 5148TIP3   OH236858   3.327   3.045  15.909  0.2111  0.3437 -0.2337
 5148TIP3    H136859   3.327   2.958  15.950 -1.5367 -0.1998 -1.2741
 5148TIP3    H236860   3.348   3.105  15.980 -2.3419 -0.5704  1.4458
 5149TIP3   OH236861   0.152   4.386  12.187 -0.3549 -0.5878 -0.0244
 5149TIP3    H136862   0.094   4.362  12.115 -0.9909 -3.0767  1.1760
 5149TIP3    H236863   0.241   4.370  12.153 -0.5609 -0.2252 -0.7465
 5150TIP3   OH236864   3.315   6.086  12.450 -0.5972  0.0803 -0.5747
 5150TIP3    H136865   3.244   6.038  12.407 -0.2412 -1.1557  0.1631
 5150TIP3    H236866   3.375   6.018  12.480  0.8223  1.0889 -1.0179
 5151TIP3   OH236867   0.900   1.657   5.693  0.2731 -0.3389 -0.1855
 5151TIP3    H136868   0.911   1.743   5.733  3.0206  0.1377 -1.7022
 5151TIP3    H236869   0.808   1.636   5.706 -0.5691  2.9424  0.0225
 5152TIP3   OH236870   4.048   0.338  13.991 -0.5628  0.3841 -0.1984
 5152TIP3    H136871   4.120   0.401  13.991  0.5515 -0.8011  1.4216
 5152TIP3    H236872   4.006   0.349  14.076  0.3060 -1.7073  0.5705
 5153TIP3   OH236873   2.324   5.391   6.818  0.0257 -0.1918 -0.0588
 5153TIP3    H136874   2.249   5.353   6.864 -1.1856  1.6506 -0.4330
 5153TIP3    H236875   2.292   5.407   6.729  1.0690  0.0368 -0.4038
 5154TIP3   OH236876   0.122   6.129  15.758 -0.2381 -0.4212 -0.2039
 5154TIP3    H136877   0.078   6.064  15.813 -0.4520  0.0467  0.1854
 5154TIP3    H236878   0.215   6.115  15.774 -0.3046 -0.0427  0.5739
 5155TIP3   OH236879   4.600   3.864   1.278  0.5585  0.5650 -0.6909
 5155TIP3    H136880   4.570   3.849   1.188 -0.3718 -1.4038 -0.1029
 5155TIP3    H236881   4.686   3.823   1.281 -0.3296 -1.3954 -0.1536
 5156TIP3   OH236882   5.551   3.778   4.516  0.0505  0.0459  0.0885
 5156TIP3    H136883   5.539   3.861   4.469  0.1229 -0.0334 -0.0710
 5156TIP3    H236884   5.530   3.799   4.607 -1.1641 -0.0504 -0.1489
 5157TIP3   OH236885   4.707   1.631  12.820  0.1021 -0.2819 -0.3301
 5157TIP3    H136886   4.622   1.590  12.840 -0.3115  0.7404  0.0393
 5157TIP3    H236887   4.717   1.617  12.725 -1.7595  1.8737 -0.9300
 5158TIP3   OH236888   2.606   1.787  12.341  0.7219 -0.0435  0.3064
 5158TIP3    H136889   2.669   1.782  12.413 -2.0122 -1.1591  2.8468
 5158TIP3    H236890   2.558   1.868  12.357 -0.9088 -1.0527  0.6947
 5159TIP3   OH236891   4.701   0.359   3.410  0.0186 -0.1446  0.3318
 5159TIP3    H136892   4.675   0.411   3.486 -2.3795 -0.2125 -0.3525
 5159TIP3    H236893   4.692   0.418   3.335  3.1111  0.1650  0.0704
 5160TIP3   OH236894   1.441   0.375   2.644 -0.1498  0.4114  0.0545
 5160TIP3    H136895   1.348   0.357   2.660  0.1584 -0.3922  1.0629
 5160TIP3    H236896   1.482   0.289   2.643  0.9062  0.8584  1.8000
 5161TIP3   OH236897   1.927   2.629   3.334  0.4891  0.2401 -0.3596
 5161TIP3    H136898   1.871   2.654   3.408  0.6611 -1.7082  0.4982
 5161TIP3    H236899   1.938   2.535   3.344  1.4884  0.1211 -2.2370
 5162TIP3   OH236900   4.074   2.584   5.400 -0.3629  0.2472  0.1746
 5162TIP3    H136901   4.001   2.528   5.373  0.1539 -0.1972 -0.3435
 5162TIP3    H236902   4.126   2.595   5.320  1.4162 -1.4061  1.0340
 5163TIP3   OH236903   5.438   6.599   5.212  0.2342 -0.0450  0.2944
 5163TIP3    H136904   5.401   6.659   5.276 -0.0916  0.3709 -0.2779
 5163TIP3    H236905   5.376   6.600   5.139  0.6671 -0.4113 -0.0832
 5164TIP3   OH236906   1.013   5.265  10.542 -0.2168  0.1722  0.3541
 5164TIP3    H136907   1.040   5.204  10.473  0.6304  0.0938  0.7369
 5164TIP3    H236908   1.069   5.242  10.616  2.4289  3.4589 -0.4113
 5165TIP3   OH236909   4.044   3.814  13.621 -0.1671 -0.3326  0.5784
 5165TIP3    H136910   3.994   3.744  13.578 -0.7341  0.5531 -0.2656
 5165TIP3    H236911   4.002   3.895  13.591  1.0637  0.4076  0.7671
 5166TIP3   OH236912   6.353   5.403   2.871 -0.4436 -0.4842 -0.9769
 5166TIP3    H136913   6.274   5.375   2.824 -0.6889 -0.6545 -0.4757
 5166TIP3    H236914   6.401   5.322   2.885 -1.7421 -0.9142  1.5628
 5167TIP3   OH236915   2.614   1.736  14.457  0.3083 -0.2742  0.3303
 5167TIP3    H136916   2.586   1.827  14.451  0.8567  0.0981  2.4192
 5167TIP3    H236917   2.536   1.690  14.489  0.7369 -0.0378  1.7908
 5168TIP3   OH236918   3.041   5.565  17.004  0.0341 -0.7784 -0.2365
 5168TIP3    H136919   3.094   5.567  17.084  2.6701 -1.9343 -1.8015
 5168TIP3    H236920   2.973   5.630  17.018  0.9272 -0.3162  2.5723
 5169TIP3   OH236921   6.075   1.590  14.633  0.1377 -0.4666  0.5121
 5169TIP3    H136922   6.060   1.567  14.725 -0.6126 -1.6005  0.1310
 5169TIP3    H236923   6.060   1.684  14.629 -0.3434 -0.4913  1.4467
 5170TIP3   OH236924   1.973   0.877   0.864  0.6180  0.0433  0.1950
 5170TIP3    H136925   1.947   0.786   0.878 -2.0649  0.8069  0.7794
 5170TIP3    H236926   1.954   0.920   0.947  1.2698  1.2795 -0.2772
 5171TIP3   OH236927   4.170   4.850   2.936 -0.2379  0.4081  0.3577
 5171TIP3    H136928   4.198   4.939   2.915  0.2313  0.3900  0.9023
 5171TIP3    H236929   4.129   4.818   2.855  0.3662  0.8053 -0.1067
 5172TIP3   OH236930   3.027   2.414  16.465 -0.0922 -0.1522 -0.1345
 5172TIP3    H136931   3.022   2.343  16.529  0.3226  1.2963  1.6235
 5172TIP3    H236932   3.026   2.371  16.380 -0.9605 -2.1690  0.8348
 5173TIP3   OH236933   0.649   0.336   6.244 -0.2894 -0.8874  0.4022
 5173TIP3    H136934   0.654   0.333   6.339 -0.2624  1.3549  0.5220
 5173TIP3    H236935   0.558   0.357   6.225 -0.1893 -0.8466 -0.0448
 5174TIP3   OH236936   2.901   4.279   4.990 -0.0037  0.3094  0.4516
 5174TIP3    H136937   2.867   4.283   4.901  0.5655 -1.5296  0.1205
 5174TIP3    H236938   2.993   4.305   4.981 -0.0453  0.5040  0.5739
 5175TIP3   OH236939   1.448   6.061  14.160 -0.8853 -0.0270 -0.0893
 5175TIP3    H136940   1.532   6.069  14.115  0.1136 -0.3020  1.6634
 5175TIP3    H236941   1.401   5.993  14.111  0.8287 -1.5005  0.2547
 5176TIP3   OH236942   0.387   6.432   5.217  0.3515  0.1370 -0.1485
 5176TIP3    H136943   0.460   6.488   5.245 -0.7509  1.0046  1.1290
 5176TIP3    H236944   0.315   6.457   5.275 -0.9334 -0.7757 -1.3063
 5177TIP3   OH236945   0.802   4.490  16.808  0.0417 -0.2330  0.3577
 5177TIP3    H136946   0.835   4.438  16.882  1.4927  2.0240  1.3916
 5177TIP3    H236947   0.865   4.473  16.737  1.4487  1.2310  1.1889
 5178TIP3   OH236948   0.708   5.295   6.094  0.0840 -0.5729 -0.3803
 5178TIP3    H136949   0.776   5.348   6.136 -1.2543 -1.3225  3.1330
 5178TIP3    H236950   0.728   5.205   6.121 -0.1696 -1.3297 -2.5622
 5179TIP3   OH236951   4.280   5.369  14.355  0.4052 -0.0268 -0.6066
 5179TIP3    H136952   4.357   5.425  14.369  1.3493 -1.3192 -0.3738
 5179TIP3    H236953   4.272   5.364  14.259  0.4137  0.3622 -0.6306
 5180TIP3   OH236954   0.556   1.076  11.753 -0.1416 -0.3825  0.1660
 5180TIP3    H136955   0.579   1.083  11.660 -1.1946  1.5459 -0.0010
 5180TIP3    H236956   0.461   1.076  11.755 -0.1382 -0.1480  1.2620
 5181TIP3   OH236957   1.387   3.601   3.133 -0.2374 -0.6145  0.1175
 5181TIP3    H136958   1.440   3.526   3.107 -0.5211  0.0768 -2.8648
 5181TIP3    H236959   1.414   3.621   3.222  1.7656 -2.5854  0.0237
 5182TIP3   OH236960   3.743   1.435  15.475 -0.4738 -0.4374  0.1737
 5182TIP3    H136961   3.800   1.512  15.472 -0.2557 -0.5882  0.3935
 5182TIP3    H236962   3.788   1.370  15.421 -0.4316 -0.5606  0.3575
 5183TIP3   OH236963   5.087   2.023   3.299 -0.2395 -0.1868  0.0702
 5183TIP3    H136964   5.073   2.004   3.392 -0.1512 -0.8481 -0.0450
 5183TIP3    H236965   5.031   1.960   3.254  0.9664 -0.9829 -0.3561
 5184TIP3   OH236966   6.396   6.127  17.272 -0.6393 -1.3522 -0.0815
 5184TIP3    H136967   6.446   6.059  17.317 -0.7907 -3.2366 -2.5069
 5184TIP3    H236968   6.460   6.171  17.216 -0.9983 -1.2236 -0.3984
 5185TIP3   OH236969   3.194   4.331  16.651  0.1143  0.2641 -0.4536
 5185TIP3    H136970   3.224   4.241  16.657  0.3510  0.4276  1.9726
 5185TIP3    H236971   3.263   4.382  16.694 -1.0106  1.3186  0.1551
 5186TIP3   OH236972   0.411   6.630  14.426  0.6021 -0.2127 -0.6619
 5186TIP3    H136973   0.461   6.599  14.502 -0.4964  0.0305  0.1766
 5186TIP3    H236974   0.333   6.671  14.463  0.8109  1.3471 -1.8598
 5187TIP3   OH236975   3.891   5.827  13.168 -0.2699  0.6367 -0.2426
 5187TIP3    H136976   3.804   5.832  13.129 -0.1996  1.7126 -0.2926
 5187TIP3    H236977   3.876   5.843  13.261 -0.0736  1.3918 -0.3338
 5188TIP3   OH236978   0.190   4.525  14.115  0.0163 -0.3795 -0.3589
 5188TIP3    H136979   0.123   4.546  14.180  1.3755 -0.3115  1.0621
 5188TIP3    H236980   0.153   4.450  14.067 -1.6552  0.5170 -0.5661
 5189TIP3   OH236981   3.186   3.544   3.176  0.2345 -0.3062 -0.1654
 5189TIP3    H136982   3.249   3.472   3.175  0.5316 -0.1023  1.5961
 5189TIP3    H236983   3.237   3.621   3.151  0.6420 -0.1935  0.9649
 5190TIP3   OH236984   5.267   4.966  16.694 -0.3894  0.2373 -0.4002
 5190TIP3    H136985   5.310   4.961  16.780 -2.1791  0.3341  0.5703
 5190TIP3    H236986   5.211   4.888  16.692 -0.3662  0.2414 -1.4855
 5191TIP3   OH236987   2.599   1.987  12.928 -1.1565  0.7516 -0.0296
 5191TIP3    H136988   2.585   2.068  12.880  0.3281  1.6443  0.9261
 5191TIP3    H236989   2.591   2.012  13.020  3.0594  0.8435  0.5472
 5192TIP3   OH236990   3.401   2.954  11.308 -0.1143  0.3575 -0.0971
 5192TIP3    H136991   3.346   3.032  11.311  0.5173  0.8190 -0.3724
 5192TIP3    H236992   3.476   2.979  11.253  0.2455 -0.3375  0.0645
 5193TIP3   OH236993   2.600   5.819   1.142 -0.6840  0.0777  0.3076
 5193TIP3    H136994   2.517   5.808   1.096 -0.1135  0.1155 -0.7420
 5193TIP3    H236995   2.577   5.806   1.234 -1.6665 -0.9476 -0.0545
 5194TIP3   OH236996   0.994   5.375   3.460  0.0666 -0.2437 -0.1876
 5194TIP3    H136997   1.078   5.416   3.439 -0.2364  0.3518 -0.2545
 5194TIP3    H236998   0.934   5.407   3.393 -0.0070 -1.3987 -0.6822
 5195TIP3   OH236999   6.019   5.893  11.418 -0.0585  0.5885 -0.1350
 5195TIP3    H137000   5.929   5.866  11.401 -0.7080  0.8754  2.4515
 5195TIP3    H237001   6.049   5.931  11.336 -1.7413 -0.9193 -1.5271
 5196TIP3   OH237002   5.898   0.809  12.288 -0.9323 -0.1851  0.6305
 5196TIP3    H137003   5.842   0.771  12.220 -0.5200  0.0504  0.1503
 5196TIP3    H237004   5.849   0.885  12.320 -1.2226 -0.4203  0.7412
 5197TIP3   OH237005   3.838   4.675  13.195 -0.0193  0.8234 -0.0393
 5197TIP3    H137006   3.802   4.702  13.279  0.3092 -2.1177  1.1496
 5197TIP3    H237007   3.932   4.665  13.211  0.2319  1.2644 -1.1010
 5198TIP3   OH237008   5.114   1.113  13.902  0.8752  0.4665 -0.1570
 5198TIP3    H137009   5.074   1.089  13.986  0.2911  0.5692 -0.4059
 5198TIP3    H237010   5.178   1.180  13.924  1.0652  0.1540  0.2691
 5199TIP3   OH237011   2.563   2.173  14.098  0.5550  0.1566 -0.1653
 5199TIP3    H137012   2.647   2.180  14.142  0.3435  1.1192  0.1021
 5199TIP3    H237013   2.499   2.174  14.168  0.3252 -0.7910 -0.3548
 5200TIP3   OH237014   3.808   1.030  10.828 -0.2147  0.3227 -0.4903
 5200TIP3    H137015   3.894   0.992  10.849 -0.9227 -1.0451  0.0492
 5200TIP3    H237016   3.828   1.119  10.800  1.2540  0.5856  1.2127
 5201TIP3   OH237017   6.131   5.603  14.620  0.4006  0.6223  0.0179
 5201TIP3    H137018   6.175   5.618  14.703  0.6141  1.6397 -0.2656
 5201TIP3    H237019   6.040   5.631  14.636  0.4920  1.0263 -0.1375
 5202TIP3   OH237020   4.001   2.940  11.183  0.1406 -0.2091 -0.1009
 5202TIP3    H137021   3.928   2.979  11.233 -0.8195 -0.0074 -1.6049
 5202TIP3    H237022   4.045   3.015  11.143  0.9008 -0.3729  0.4040
 5203TIP3   OH237023   3.459   5.099   2.421  0.2308  0.1906 -0.1752
 5203TIP3    H137024   3.444   5.036   2.491  1.4290  0.3689  0.2733
 5203TIP3    H237025   3.550   5.085   2.395  0.8386  2.2988  0.5606
 5204TIP3   OH237026   3.041   3.967   0.252  0.1977  0.3686 -0.4245
 5204TIP3    H137027   3.055   3.927   0.165 -1.3713  0.2405 -0.6386
 5204TIP3    H237028   3.127   4.002   0.276  0.7151  0.2049 -1.9316
 5205TIP3   OH237029   1.672   0.432   1.920 -0.2554 -0.4360  0.2267
 5205TIP3    H137030   1.747   0.488   1.897 -0.2932  0.0071  1.1292
 5205TIP3    H237031   1.656   0.380   1.842 -0.3098  0.9184 -0.7048
 5206TIP3   OH237032   0.939   6.051   0.264 -0.4569 -0.0255  0.5234
 5206TIP3    H137033   0.955   6.017   0.175  0.6538  1.0382  0.2889
 5206TIP3    H237034   0.859   6.007   0.292 -0.6495 -0.6357 -0.8789
 5207TIP3   OH237035   6.382   4.425  13.552  0.3906 -0.0874 -0.3778
 5207TIP3    H137036   6.470   4.400  13.581  0.4778  1.2640  0.6447
 5207TIP3    H237037   6.395   4.507  13.506 -0.3990  0.4844  0.3767
 5208TIP3   OH237038   0.163   6.405   6.136  0.3802  0.3535 -0.2458
 5208TIP3    H137039   0.076   6.368   6.127  0.4345  0.5930 -2.2984
 5208TIP3    H237040   0.148   6.498   6.153  0.2123  0.5330 -1.3239
 5209TIP3   OH237041   3.498   5.273  14.302 -0.2818  0.6077  0.4372
 5209TIP3    H137042   3.475   5.350  14.353 -1.3449 -0.0865  1.0443
 5209TIP3    H237043   3.518   5.307  14.214 -1.6275  1.4875  0.4439
 5210TIP3   OH237044   0.400   3.420  11.466  0.7682  0.1894  0.5592
 5210TIP3    H137045   0.344   3.365  11.520  1.3744  0.0639  1.0647
 5210TIP3    H237046   0.348   3.500  11.453  0.5881  0.2016  1.2781
 5211TIP3   OH237047   5.560   3.036   0.056  0.5290  0.1094 -0.1441
 5211TIP3    H137048   5.642   3.026   0.008  0.6791  0.3398  0.0592
 5211TIP3    H237049   5.493   3.000  -0.002  0.7327  0.2022 -0.4369
 5212TIP3   OH237050   1.580   2.953  17.182  0.5678 -0.5222  0.0432
 5212TIP3    H137051   1.651   2.891  17.164  0.6542 -0.7806  1.2040
 5212TIP3    H237052   1.563   2.995  17.098  1.5265 -1.0621 -0.4342
 5213TIP3   OH237053   4.485   1.139  16.268  0.0735 -0.5306 -0.0437
 5213TIP3    H137054   4.443   1.054  16.280 -0.2549 -0.1953  1.5155
 5213TIP3    H237055   4.423   1.201  16.306  0.7798  0.2838 -0.1970
 5214TIP3   OH237056   4.248   1.440   1.313  0.0057 -0.5550  0.2130
 5214TIP3    H137057   4.328   1.391   1.294 -0.1104 -1.4532  1.8572
 5214TIP3    H237058   4.277   1.517   1.361 -0.0288 -0.3293 -0.1271
 5215TIP3   OH237059   1.054   2.900  13.895 -0.1676  0.1554 -0.0282
 5215TIP3    H137060   0.975   2.950  13.874  0.0498 -0.1536 -1.7921
 5215TIP3    H237061   1.119   2.966  13.917 -0.0895  0.6571 -1.6132
 5216TIP3   OH237062   2.894   4.797   2.001  0.4325 -0.2731 -0.3264
 5216TIP3    H137063   2.820   4.786   2.061 -0.5745 -0.2050 -1.5385
 5216TIP3    H237064   2.940   4.713   2.006  1.1257  0.1537  1.4896
 5217TIP3   OH237065   4.624   3.870  17.310  0.5800  0.2647  0.5245
 5217TIP3    H137066   4.714   3.882  17.279  0.5968 -3.1694 -1.2082
 5217TIP3    H237067   4.632   3.810  17.384 -0.2637  0.1621  0.5385
 5218TIP3   OH237068   3.222   2.856  16.329 -0.7486 -0.3342  0.9256
 5218TIP3    H137069   3.309   2.888  16.303 -0.4128 -1.2326  0.8937
 5218TIP3    H237070   3.165   2.932  16.318  0.1041  0.3926  1.3348
 5219TIP3   OH237071   0.601   3.621   2.421 -0.1535  0.1742  0.2704
 5219TIP3    H137072   0.527   3.666   2.462 -1.0284 -0.7182 -0.2560
 5219TIP3    H237073   0.660   3.691   2.393  1.0773  0.7944  3.9842
 5220TIP3   OH237074   0.880   5.186   0.921  0.3929  0.1304 -0.4677
 5220TIP3    H137075   0.903   5.262   0.975 -1.0990 -0.1938  0.7040
 5220TIP3    H237076   0.786   5.197   0.902 -0.1332 -1.8906  0.6154
 5221TIP3   OH237077   5.178   4.990  11.662  0.1712  0.2335 -0.2312
 5221TIP3    H137078   5.173   5.018  11.571 -0.7006  1.4142  0.1469
 5221TIP3    H237079   5.091   4.958  11.683  0.4748 -0.4123  0.0829
 5222TIP3   OH237080   3.054   5.780   4.641  0.0228 -0.2475  0.2099
 5222TIP3    H137081   3.097   5.763   4.725  1.6039 -0.1762 -0.5618
 5222TIP3    H237082   2.966   5.809   4.665 -0.4900 -2.7852  1.7829
 5223TIP3   OH237083   4.935   5.228  14.342  0.1627  0.1960 -0.2639
 5223TIP3    H137084   4.899   5.166  14.405 -1.4746  0.4690 -0.8984
 5223TIP3    H237085   5.030   5.215  14.349 -0.0117 -0.4729  1.5233
 5224TIP3   OH237086   1.068   3.954  12.274 -0.0695 -0.1819 -0.0813
 5224TIP3    H137087   1.067   3.933  12.181 -0.1374 -0.6667  0.0214
 5224TIP3    H237088   1.136   4.021  12.283 -0.1967  0.0076 -0.5040
 5225TIP3   OH237089   6.606   1.906  15.539  0.0191 -0.0606 -0.2920
 5225TIP3    H137090   6.516   1.901  15.508  0.8886 -1.9514 -2.9118
 5225TIP3    H237091   6.633   1.995  15.521 -0.5568 -0.2108 -2.0414
 5226TIP3   OH237092   3.326   3.622  16.232  0.3762 -0.2974  0.6143
 5226TIP3    H137093   3.344   3.630  16.138  0.8007  2.1821  0.8237
 5226TIP3    H237094   3.398   3.670  16.273 -0.8681  0.3881  2.0843
 5227TIP3   OH237095   0.189   3.596  11.447 -0.2774 -0.8058  0.1451
 5227TIP3    H137096   0.137   3.516  11.436 -1.5545  0.0195 -0.0394
 5227TIP3    H237097   0.190   3.636  11.361 -0.7946  0.0416  0.5187
 5228TIP3   OH237098   2.980   3.211   2.235 -0.5905  0.0571  0.3435
 5228TIP3    H137099   3.012   3.298   2.208 -1.3434  0.5320  0.9512
 5228TIP3    H237100   3.049   3.178   2.292 -1.2388  1.1985  1.8730
 5229TIP3   OH237101   5.178   0.946  16.422  0.1052 -0.1505  0.2462
 5229TIP3    H137102   5.251   0.938  16.483 -1.2620  0.4563  2.0532
 5229TIP3    H237103   5.149   0.856  16.407  0.5243 -0.3097  0.3712
 5230TIP3   OH237104   5.833   3.605  12.254 -0.6253  0.1247  0.2947
 5230TIP3    H137105   5.759   3.658  12.225  0.6130  2.7145  1.5907
 5230TIP3    H237106   5.893   3.667  12.297  1.8599 -2.0002  0.1744
 5231TIP3   OH237107   3.470   1.475  15.567 -0.5656 -0.1398  0.3684
 5231TIP3    H137108   3.565   1.462  15.572 -0.3402  1.5645  1.1468
 5231TIP3    H237109   3.436   1.391  15.534  1.1647 -0.8811  0.3648
 5232TIP3   OH237110   6.040   4.971  17.072 -0.2067 -0.1035  0.2582
 5232TIP3    H137111   6.002   4.893  17.113  0.4952 -0.6382 -0.0937
 5232TIP3    H237112   6.015   5.043  17.130 -0.5979 -0.6314  0.7524
 5233TIP3   OH237113   0.422   3.638  13.181 -0.3773 -0.0705 -0.1398
 5233TIP3    H137114   0.442   3.647  13.274  1.6221 -1.3432 -0.3688
 5233TIP3    H237115   0.486   3.694  13.137  0.6010 -1.6386 -0.8059
 5234TIP3   OH237116   4.523   0.813   4.388  0.3523 -0.3759 -0.0347
 5234TIP3    H137117   4.438   0.852   4.411  0.9804  1.1905 -0.2153
 5234TIP3    H237118   4.586   0.856   4.447  1.0464 -1.4548  0.0392
 5235TIP3   OH237119   2.387   3.970  15.705 -0.2531 -0.2695  0.2588
 5235TIP3    H137120   2.348   3.960  15.792 -0.2264  0.5739  0.3774
 5235TIP3    H237121   2.349   4.051  15.671 -0.1048 -0.4871 -0.4300
 5236TIP3   OH237122   1.328   2.754   0.652  0.2672 -0.0119 -0.3485
 5236TIP3    H137123   1.256   2.767   0.590  1.9974 -0.1151 -2.4866
 5236TIP3    H237124   1.322   2.662   0.677  1.3221 -0.8327 -2.8240
 5237TIP3   OH237125   1.756   4.993   1.105  0.2662 -0.8275 -0.0677
 5237TIP3    H137126   1.708   5.059   1.153 -1.6914 -0.9726 -1.7180
 5237TIP3    H237127   1.732   5.006   1.014  1.0993 -2.7765 -0.6353
 5238TIP3   OH237128   5.307   6.192  15.441  0.0081  0.7325  0.0099
 5238TIP3    H137129   5.281   6.241  15.519  2.8573  1.6403  0.5262
 5238TIP3    H237130   5.351   6.257  15.385  0.3293 -0.4379 -1.1509
 5239TIP3   OH237131   5.536   4.358  15.257 -0.3309 -0.4413 -0.2128
 5239TIP3    H137132   5.611   4.344  15.314 -1.5416 -1.3533  1.2148
 5239TIP3    H237133   5.471   4.295  15.287 -2.0156  0.9602 -0.8048
 5240TIP3   OH237134   4.370   1.721   3.655 -0.7329  0.1085  0.7721
 5240TIP3    H137135   4.277   1.747   3.653 -1.1532 -1.2052  1.6082
 5240TIP3    H237136   4.384   1.677   3.572  0.1356  3.2684 -0.9080
 5241TIP3   OH237137   1.983   6.529  12.482  0.5387 -0.1104 -0.3333
 5241TIP3    H137138   1.961   6.602  12.539 -0.3680  0.2869 -1.1523
 5241TIP3    H237139   1.922   6.460  12.507  0.4822 -0.1128 -0.4769
 5242TIP3   OH237140   3.207   3.663  13.470  0.3623  0.1281  0.1065
 5242TIP3    H137141   3.180   3.585  13.518 -0.6857 -0.9777 -2.1180
 5242TIP3    H237142   3.298   3.678  13.498  0.4062 -1.5443  1.0024
 5243TIP3   OH237143   4.145   1.097  10.754  0.3874  0.0521 -0.5812
 5243TIP3    H137144   4.105   1.065  10.673 -0.4737 -0.7602  0.1390
 5243TIP3    H237145   4.239   1.091  10.738  0.2947  1.6609 -2.1875
 5244TIP3   OH237146   5.205   0.698   2.466  0.3858 -0.4116 -0.2189
 5244TIP3    H137147   5.170   0.672   2.381  0.3409  2.4828 -1.1782
 5244TIP3    H237148   5.298   0.715   2.449  0.9378 -1.9954  0.9014
 5245TIP3   OH237149   5.633   2.362   9.974  0.6288 -0.6840 -0.3615
 5245TIP3    H137150   5.605   2.280   9.933 -0.3113 -0.3455 -0.4014
 5245TIP3    H237151   5.570   2.377  10.044  2.6430 -1.6778  1.8060
 5246TIP3   OH237152   0.218   2.973  12.360  0.0064  0.1375  0.5102
 5246TIP3    H137153   0.126   2.971  12.386  0.1491  1.3849  1.2083
 5246TIP3    H237154   0.256   2.895  12.402 -1.4442 -2.7073 -2.9911
 5247TIP3   OH237155   2.176   3.299  12.719 -0.4510  0.2917 -0.4380
 5247TIP3    H137156   2.263   3.338  12.725 -1.2606  1.9879  1.7621
 5247TIP3    H237157   2.124   3.363  12.669 -1.0629  0.6430  0.6163
 5248TIP3   OH237158   6.047   1.342  14.456 -0.8433  0.6048 -0.3736
 5248TIP3    H137159   6.126   1.300  14.425 -1.1727  0.6032 -1.2303
 5248TIP3    H237160   6.076   1.398  14.528 -0.0487  0.7005 -0.7596
 5249TIP3   OH237161   4.792   0.340  12.044 -0.3054  0.1796  0.7638
 5249TIP3    H137162   4.783   0.351  12.139 -0.5118 -0.9032  0.8791
 5249TIP3    H237163   4.794   0.430  12.010 -0.2080  0.5831  1.7883
 5250TIP3   OH237164   5.941   0.650   6.033  0.5107  0.1129  0.3182
 5250TIP3    H137165   6.007   0.594   5.993  0.4091  0.5621 -0.5046
 5250TIP3    H237166   5.983   0.686   6.111  0.8013 -0.5798  0.4810
 5251TIP3   OH237167   4.874   0.272  12.728  0.1304  0.1347  0.3988
 5251TIP3    H137168   4.891   0.181  12.703 -0.4045 -0.3224  1.5998
 5251TIP3    H237169   4.783   0.287  12.701 -0.7128 -0.6078  2.5830
 5252TIP3   OH237170   2.790   1.090   1.067 -0.0961 -0.2911  0.7656
 5252TIP3    H137171   2.877   1.130   1.062 -0.0790 -0.4372 -0.5141
 5252TIP3    H237172   2.735   1.146   1.012 -0.3700 -1.2511  0.0244
 5253TIP3   OH237173   4.888   0.045   2.003 -0.9763  0.2507 -0.1285
 5253TIP3    H137174   4.850   0.093   2.076  1.3997  1.7901  0.1893
 5253TIP3    H237175   4.973   0.086   1.988 -0.9817 -0.5927 -3.1976
 5254TIP3   OH237176   1.253   0.671  11.165 -0.1271 -0.3962 -0.0443
 5254TIP3    H137177   1.174   0.723  11.152  0.7423  0.6350 -1.4383
 5254TIP3    H237178   1.280   0.690  11.255  0.0132  1.3741 -0.4395
 5255TIP3   OH237179   4.124   1.395  13.310 -0.4308 -0.1281  0.0322
 5255TIP3    H137180   4.119   1.337  13.386 -0.6167  2.3621  2.0513
 5255TIP3    H237181   4.037   1.435  13.304 -0.2747  0.0784 -1.2084
 5256TIP3   OH237182   4.484   4.326   2.592 -0.4968 -0.0365  0.1767
 5256TIP3    H137183   4.576   4.351   2.604 -0.2841  0.1383 -1.4670
 5256TIP3    H237184   4.444   4.404   2.554 -1.3082 -0.1541  0.7775
 5257TIP3   OH237185   6.461   0.827  11.828 -0.0331 -0.2944  0.4083
 5257TIP3    H137186   6.389   0.768  11.805 -1.5301  1.8179 -0.6393
 5257TIP3    H237187   6.479   0.876  11.747  1.8312  0.0363  0.9654
 5258TIP3   OH237188   2.378   6.580   1.545 -0.4155 -0.0565 -0.0233
 5258TIP3    H137189   2.395   6.672   1.565 -0.4260 -0.2104  0.6921
 5258TIP3    H237190   2.403   6.572   1.452 -0.7495  0.7432 -0.1969
 5259TIP3   OH237191   0.726   1.719  16.991  0.0586 -0.0505 -0.4737
 5259TIP3    H137192   0.753   1.810  16.981 -0.7601  0.1905 -0.5627
 5259TIP3    H237193   0.649   1.711  16.935 -0.7130 -0.4227  0.6222
 5260TIP3   OH237194   3.412   1.208  11.045  0.1569 -0.1871  0.1621
 5260TIP3    H137195   3.380   1.141  10.984 -1.4597  1.0102 -0.3856
 5260TIP3    H237196   3.473   1.260  10.993  0.9617 -0.8630  0.4164
 5261TIP3   OH237197   1.425   5.042  12.541  0.3953  0.0590  0.5787
 5261TIP3    H137198   1.425   5.137  12.546 -1.7332  0.1086  0.2830
 5261TIP3    H237199   1.461   5.022  12.454  1.4597  0.5343  0.8914
 5262TIP3   OH237200   3.444   4.936  14.542  0.2943 -0.4014 -0.3052
 5262TIP3    H137201   3.531   4.962  14.513  0.3280  0.6995  0.7464
 5262TIP3    H237202   3.386   4.964  14.471  0.4872  1.4182  0.2154
 5263TIP3   OH237203   1.667   6.100  15.676 -0.0319 -0.1052 -0.3830
 5263TIP3    H137204   1.599   6.035  15.656 -0.0337 -1.1920  2.6789
 5263TIP3    H237205   1.733   6.051  15.725  0.6246  1.9404  0.8841
 5264TIP3   OH237206   4.062   6.409  16.663  0.6358 -0.4354 -0.0528
 5264TIP3    H137207   4.083   6.421  16.570  0.5328  0.1678 -0.0013
 5264TIP3    H237208   4.078   6.495  16.702 -0.0243 -0.4923  0.3557
 5265TIP3   OH237209   3.526   3.471  12.206 -0.2392  0.0146  0.4638
 5265TIP3    H137210   3.560   3.382  12.216  0.4209  0.1033 -0.8538
 5265TIP3    H237211   3.474   3.486  12.285 -0.1058 -1.4267  0.8411
 5266TIP3   OH237212   4.535   6.122   0.342  0.3000 -0.7276  0.0012
 5266TIP3    H137213   4.597   6.145   0.272  1.0262 -0.2667  0.7768
 5266TIP3    H237214   4.456   6.172   0.321  0.1912 -1.2976 -0.9857
 5267TIP3   OH237215   5.242   0.828  15.446  0.5016 -0.7337  0.1045
 5267TIP3    H137216   5.186   0.752  15.460  0.8284 -1.3147 -1.5234
 5267TIP3    H237217   5.187   0.890  15.398  1.3530 -1.5434 -2.0305
 5268TIP3   OH237218   0.899   2.922   4.789  0.1090  0.1129  0.0516
 5268TIP3    H137219   0.960   2.904   4.718  1.2489  3.0325  0.1502
 5268TIP3    H237220   0.914   2.852   4.853  2.4375  0.0126 -0.5169
 5269TIP3   OH237221   2.763   4.407   0.220 -0.5654 -0.2464  0.2532
 5269TIP3    H137222   2.689   4.452   0.179  0.9208  1.1576 -0.9862
 5269TIP3    H237223   2.794   4.346   0.153  0.8500  0.8738 -0.1487
 5270TIP3   OH237224   6.451   5.703  13.807 -0.5796  0.7053 -0.4093
 5270TIP3    H137225   6.416   5.727  13.893 -2.1239  1.0788 -1.1112
 5270TIP3    H237226   6.403   5.758  13.746  1.0784  1.0452 -1.4752
 5271TIP3   OH237227   0.117   2.158  12.996  0.2812 -0.3726  0.4513
 5271TIP3    H137228   0.043   2.182  12.940  0.3168  0.4540  0.7375
 5271TIP3    H237229   0.154   2.242  13.024  2.0003 -0.7412 -0.5386
 5272TIP3   OH237230   1.213   1.573   6.105 -0.0532  0.2142 -0.3387
 5272TIP3    H137231   1.191   1.636   6.174 -1.1369 -0.5768  0.0730
 5272TIP3    H237232   1.296   1.535   6.133 -0.8207 -0.6053  0.9384
 5273TIP3   OH237233   4.679   0.249   4.056 -0.3922  0.2095  0.6269
 5273TIP3    H137234   4.727   0.261   3.974 -0.3431  0.0795  0.6354
 5273TIP3    H237235   4.723   0.175   4.098  0.1830  0.8622  1.2021
 5274TIP3   OH237236   5.670   1.512   5.493 -0.2331  0.6147  0.1165
 5274TIP3    H137237   5.760   1.544   5.491 -0.3192  0.9260  0.7385
 5274TIP3    H237238   5.616   1.590   5.476 -0.4683  0.9809  2.1751
 5275TIP3   OH237239   6.673   6.478  11.988  0.2958 -0.0994 -1.1350
 5275TIP3    H137240   6.650   6.570  11.976  0.7174  0.1749  0.0284
 5275TIP3    H237241   6.630   6.433  11.915 -2.2541  0.6481 -0.2098
 5276TIP3   OH237242   0.873   1.754   6.118 -0.0240  0.2348  0.3525
 5276TIP3    H137243   0.937   1.809   6.164 -0.1503  1.0571 -0.4428
 5276TIP3    H237244   0.927   1.695   6.064  0.1448 -1.0055  1.7853
 5277TIP3   OH237245   4.689   5.819  11.333  0.2644 -0.3426 -0.7413
 5277TIP3    H137246   4.618   5.837  11.271  1.1936  1.8656 -1.2688
 5277TIP3    H237247   4.732   5.741  11.298 -1.3573 -1.2305 -0.8667
 5278TIP3   OH237248   1.359   0.537   4.488 -0.6597  0.3098  0.0640
 5278TIP3    H137249   1.307   0.486   4.425 -1.3056 -0.1150  0.9266
 5278TIP3    H237250   1.325   0.512   4.574  1.4519 -0.5376  0.7358
 5279TIP3   OH237251   2.974   3.772  11.926  0.7607 -0.3046 -0.1216
 5279TIP3    H137252   2.929   3.739  11.848 -4.4068  1.3207  1.7513
 5279TIP3    H237253   3.002   3.693  11.972 -0.0259 -1.4787 -1.5489
 5280TIP3   OH237254   1.815   5.099  12.295 -0.0428  0.4819  1.0105
 5280TIP3    H137255   1.757   5.027  12.269  2.7813 -2.2699  1.6467
 5280TIP3    H237256   1.871   5.112  12.218  0.4311  0.9297  1.4295
 5281TIP3   OH237257   0.586   1.860   5.505  0.5033  0.5947 -0.4940
 5281TIP3    H137258   0.597   1.766   5.520 -0.6288  0.6141  0.6536
 5281TIP3    H237259   0.573   1.897   5.592 -1.7752  1.4169 -1.0911
 5282TIP3   OH237260   6.305   5.913   0.815  0.0501 -0.3227  0.0030
 5282TIP3    H137261   6.225   5.861   0.808  0.1742 -0.3668 -1.2781
 5282TIP3    H237262   6.291   5.987   0.757  0.1812  0.7129  1.2421
 5283TIP3   OH237263   4.429   3.315   2.449 -0.6183  0.2308 -0.5416
 5283TIP3    H137264   4.377   3.291   2.525  0.5124 -1.6940 -0.3308
 5283TIP3    H237265   4.499   3.370   2.485 -0.1945 -0.5181 -0.2047
 5284TIP3   OH237266   0.783   5.510  12.424  0.3339 -0.2694  0.2008
 5284TIP3    H137267   0.853   5.503  12.359 -0.2561 -3.2903 -0.2702
 5284TIP3    H237268   0.710   5.549  12.376  1.3075  2.0571  0.4571
 5285TIP3   OH237269   3.101   4.232   6.324 -0.1932 -0.7320 -0.6425
 5285TIP3    H137270   3.124   4.303   6.263  2.2528 -1.4611 -0.6659
 5285TIP3    H237271   3.109   4.152   6.272  0.4186 -1.2584  0.2443
 5286TIP3   OH237272   5.004   6.430  12.660  0.3700  0.3733  0.2946
 5286TIP3    H137273   4.984   6.387  12.577 -0.3614  0.9460  0.1719
 5286TIP3    H237274   5.093   6.400  12.681 -0.4730 -2.0885  0.7607
 5287TIP3   OH237275   2.997   4.853   5.595  0.0921 -0.2272  0.5320
 5287TIP3    H137276   3.001   4.848   5.499  1.9122 -0.1880  0.5834
 5287TIP3    H237277   2.972   4.944   5.613 -1.5098 -0.5425  0.1156
 5288TIP3   OH237278   3.080   6.305  16.604  0.1333 -0.7398 -0.3940
 5288TIP3    H137279   3.077   6.401  16.611 -1.0831 -0.5761 -2.2108
 5288TIP3    H237280   3.173   6.284  16.602  0.4390  0.2631  1.2245
 5289TIP3   OH237281   2.798   0.229  11.602 -0.2600  0.0069 -0.1183
 5289TIP3    H137282   2.808   0.314  11.559  0.8318  0.4437  0.9530
 5289TIP3    H237283   2.796   0.166  11.530 -0.6794  0.8953 -0.9048
 5290TIP3   OH237284   4.436   1.209   1.251 -0.6046  0.8491 -0.1923
 5290TIP3    H137285   4.503   1.215   1.183 -0.9224 -2.7701 -1.0611
 5290TIP3    H237286   4.482   1.171   1.326 -1.3902 -0.6389 -0.4261
 5291TIP3   OH237287   3.972   0.541  11.306  0.3602  0.7752 -0.1827
 5291TIP3    H137288   3.887   0.513  11.337 -0.1113  1.5090 -0.7750
 5291TIP3    H237289   4.017   0.574  11.384  0.3816 -0.2348  0.2541
 5292TIP3   OH237290   6.036   6.187  12.537 -0.0010  0.0753 -0.2266
 5292TIP3    H137291   6.015   6.255  12.601  0.4705 -1.7735  2.0310
 5292TIP3    H237292   5.983   6.209  12.460 -1.3720  1.8529  1.1372
 5293TIP3   OH237293   1.536   4.132   2.774  0.3785 -0.1929 -0.0507
 5293TIP3    H137294   1.479   4.196   2.732 -0.6553 -1.5253 -0.7374
 5293TIP3    H237295   1.500   4.122   2.862  2.1676  2.1231  1.0671
 5294TIP3   OH237296   6.177   3.406   2.617 -0.2651 -0.3130 -0.7085
 5294TIP3    H137297   6.166   3.401   2.522 -1.4712 -1.7988 -0.5369
 5294TIP3    H237298   6.177   3.499   2.637 -0.4569  0.0056 -2.1211
 5295TIP3   OH237299   1.088   5.966  17.161 -0.2627  0.4194  0.3466
 5295TIP3    H137300   1.056   5.884  17.125  0.3636  0.3906 -0.1728
 5295TIP3    H237301   1.032   6.033  17.122 -0.4859  0.2747  0.4186
 5296TIP3   OH237302   2.980   6.665   4.896 -0.6901 -0.2527  0.1049
 5296TIP3    H137303   3.062   6.617   4.900 -0.6027 -0.3473 -1.7860
 5296TIP3    H237304   2.972   6.706   4.982  1.4122 -0.1187  0.2924
 5297TIP3   OH237305   2.030   0.153   5.630  0.2931  0.1146  0.0144
 5297TIP3    H137306   1.996   0.066   5.609 -0.9825  0.6720 -0.3091
 5297TIP3    H237307   2.124   0.140   5.641 -0.1324 -1.7490  2.2063
 5298TIP3   OH237308   4.365   1.749  13.052  0.3840  0.1768  0.8161
 5298TIP3    H137309   4.420   1.754  13.131  0.6806  0.5621  0.5896
 5298TIP3    H237310   4.406   1.682  12.998  1.1900  1.1107  0.2344
 5299TIP3   OH237311   5.251   6.542   3.850 -0.0973 -0.4537 -0.3457
 5299TIP3    H137312   5.164   6.505   3.865 -0.0052 -0.6227 -0.2187
 5299TIP3    H237313   5.305   6.504   3.919 -0.2762  0.9091  0.5962
 5300TIP3   OH237314   4.365   4.695  12.631 -0.2037 -0.0612  0.5397
 5300TIP3    H137315   4.357   4.610  12.588  2.1696 -0.5992  1.0427
 5300TIP3    H237316   4.386   4.674  12.722  0.4678  1.0585  0.6619
 5301TIP3   OH237317   1.885   1.948  10.460  0.4575 -0.0815 -0.3129
 5301TIP3    H137318   1.839   1.916  10.383  0.5986  0.3835 -0.5942
 5301TIP3    H237319   1.818   1.995  10.510  0.5171  0.1887 -0.4857
 5302TIP3   OH237320   5.528   5.099  17.230 -0.2805 -0.0809 -0.4329
 5302TIP3    H137321   5.500   5.007  17.235  1.4325 -0.6395 -0.2222
 5302TIP3    H237322   5.452   5.146  17.197 -0.5813 -1.9141 -2.6127
 5303TIP3   OH237323   1.685   0.021  12.270  0.2746 -0.2002  0.0955
 5303TIP3    H137324   1.731   0.087  12.322 -0.9729 -0.7128  1.9484
 5303TIP3    H237325   1.658  -0.046  12.334 -1.3900 -0.8361 -1.1919
 5304TIP3   OH237326   1.054   2.764  16.246 -0.4102 -0.1919 -0.9771
 5304TIP3    H137327   1.051   2.859  16.257 -0.3073 -0.3481  0.6911
 5304TIP3    H237328   1.101   2.750  16.164  3.1067  1.1627  0.6269
 5305TIP3   OH237329   6.445   4.548  16.826  0.4180 -0.2444  0.3367
 5305TIP3    H137330   6.427   4.501  16.745 -3.2571 -1.3743  1.6259
 5305TIP3    H237331   6.519   4.502  16.865 -0.0353 -1.9293 -0.7071
 5306TIP3   OH237332   4.414   1.986  11.000 -0.3876  0.0677 -0.0893
 5306TIP3    H137333   4.484   1.921  11.001 -0.6256 -0.1850  0.7987
 5306TIP3    H237334   4.427   2.037  11.079 -0.6852  0.5885 -0.3702
 5307TIP3   OH237335   1.234   5.898   1.615  0.2896  0.2521  0.5406
 5307TIP3    H137336   1.196   5.886   1.702 -1.3658  0.6203 -0.0933
 5307TIP3    H237337   1.210   5.987   1.590  0.0938 -0.0974 -0.5869
 5308TIP3   OH237338   1.478   4.207  14.914  0.2196 -0.0393 -0.0098
 5308TIP3    H137339   1.557   4.254  14.940  0.3044 -0.9787  1.5191
 5308TIP3    H237340   1.433   4.268  14.855  1.7445  0.7721 -0.4049
 5309TIP3   OH237341   2.946   4.254   3.363 -0.3891 -0.5682 -0.4407
 5309TIP3    H137342   2.861   4.280   3.399  0.0767 -1.6621  1.6321
 5309TIP3    H237343   2.946   4.289   3.274 -3.9027 -2.3766 -1.3594
 5310TIP3   OH237344   6.189   3.365   1.730  0.5625 -0.1676  0.4835
 5310TIP3    H137345   6.229   3.292   1.777  2.0592 -0.4209 -1.0826
 5310TIP3    H237346   6.240   3.372   1.649 -1.8151  0.3212 -1.0588
 5311TIP3   OH237347   5.775   0.205   5.384  0.5350  0.2583  0.6228
 5311TIP3    H137348   5.700   0.219   5.442  0.5552  0.4850  0.5930
 5311TIP3    H237349   5.744   0.142   5.319  0.3549  0.3928  0.5784
 5312TIP3   OH237350   0.166   1.929  17.328  0.2962  0.0646  0.1483
 5312TIP3    H137351   0.246   1.897  17.371  0.2006 -0.3150  0.0462
 5312TIP3    H237352   0.184   2.021  17.310  0.9281 -0.1481 -0.3706
 5313TIP3   OH237353   4.128   3.673  12.337 -0.3500 -0.1533 -0.1588
 5313TIP3    H137354   4.066   3.678  12.263 -1.8593 -0.3575  1.0324
 5313TIP3    H237355   4.174   3.756  12.335 -0.5917 -0.0233 -1.1432
 5314TIP3   OH237356   5.132   3.541  12.447  0.0436 -0.2449 -0.4690
 5314TIP3    H137357   5.061   3.517  12.388 -1.1819  0.0756  0.8360
 5314TIP3    H237358   5.113   3.496  12.528  0.4452  1.0966  0.4059
 5315TIP3   OH237359   5.766   1.457   2.345  0.1872 -0.1256  0.1906
 5315TIP3    H137360   5.816   1.380   2.317  0.9624  0.3001  0.3683
 5315TIP3    H237361   5.790   1.524   2.281  0.3501  0.2638  0.6604
 5316TIP3   OH237362   3.720   0.975   5.218 -0.8542  0.8609  0.0729
 5316TIP3    H137363   3.693   0.936   5.135 -0.0534 -0.5535  0.4479
 5316TIP3    H237364   3.787   0.915   5.253  0.3655  2.5144  0.7388
 5317TIP3   OH237365   4.216   4.588  13.708 -0.6216  0.0939  0.0924
 5317TIP3    H137366   4.200   4.679  13.681 -1.2077  0.1564  0.6283
 5317TIP3    H237367   4.287   4.559  13.651 -0.8188  0.7028 -0.4927
 5318TIP3   OH237368   6.310   1.470  12.127 -0.0174 -0.1641  0.2095
 5318TIP3    H137369   6.223   1.441  12.099 -0.0525 -0.3195  0.4752
 5318TIP3    H237370   6.366   1.395  12.112  0.0820 -0.0424 -0.0203
 5319TIP3   OH237371   3.917   5.840   4.213  0.5850 -0.7429 -0.0153
 5319TIP3    H137372   3.943   5.815   4.302 -0.9909 -0.0630  0.6815
 5319TIP3    H237373   3.835   5.794   4.198  0.4320 -0.2414 -0.8135
 5320TIP3   OH237374   1.722   3.227  14.087 -0.4093  0.3480 -0.5926
 5320TIP3    H137375   1.721   3.322  14.097  0.1312  0.2750  0.1743
 5320TIP3    H237376   1.810   3.207  14.057 -0.4888  0.0743 -0.6475
 5321TIP3   OH237377   2.226   0.809  12.773  0.1369  0.2558  0.0138
 5321TIP3    H137378   2.290   0.780  12.708 -0.5803 -0.6555 -0.3051
 5321TIP3    H237379   2.272   0.803  12.856  0.2915 -0.9892 -0.1448
 5322TIP3   OH237380   6.694   1.068  15.005 -0.1842  0.2263 -0.9290
 5322TIP3    H137381   6.675   1.049  14.913 -0.3822  2.3069 -1.3709
 5322TIP3    H237382   6.664   1.158  15.017  0.4226  0.2051  1.0207
 5323TIP3   OH237383   3.449   4.216  12.144 -0.6497  1.1192 -0.4838
 5323TIP3    H137384   3.489   4.300  12.119 -1.8310  1.4202 -1.4090
 5323TIP3    H237385   3.373   4.208  12.088  0.1706 -1.2387 -1.3534
 5324TIP3   OH237386   1.030   5.736  14.067  0.6144  0.0747 -0.3240
 5324TIP3    H137387   1.091   5.706  13.999  1.5811 -1.8495  1.2862
 5324TIP3    H237388   0.980   5.807  14.025  1.4748 -0.7069 -2.8539
 5325TIP3   OH237389   3.466   4.821   5.847  0.1437  0.1753  0.3969
 5325TIP3    H137390   3.492   4.905   5.885  0.7722 -0.1802  0.7611
 5325TIP3    H237391   3.549   4.778   5.825 -0.1855 -0.0520 -0.4442
 5326TIP3   OH237392   3.888   5.164   4.457 -0.1149  0.0251  0.0102
 5326TIP3    H137393   3.856   5.185   4.544 -0.3891 -3.0754  0.7636
 5326TIP3    H237394   3.834   5.090   4.428  0.6024  0.3380 -2.3911
 5327TIP3   OH237395   3.455   2.642  12.559  0.1655 -0.1036  0.6974
 5327TIP3    H137396   3.437   2.648  12.653  0.8283 -1.3277  0.9232
 5327TIP3    H237397   3.403   2.567  12.530 -2.1910  1.8458 -0.5124
 5328TIP3   OH237398   1.449   2.203   3.798  0.2792  0.1283  0.1496
 5328TIP3    H137399   1.536   2.181   3.831 -0.3388  0.9115  2.5763
 5328TIP3    H237400   1.389   2.155   3.856 -0.9247 -0.7068 -1.7199
 5329TIP3   OH237401   5.085   2.685  15.864  0.0710 -0.0727  0.1922
 5329TIP3    H137402   5.153   2.678  15.931  0.6926  0.2354 -0.4012
 5329TIP3    H237403   5.132   2.701  15.783 -0.5151 -2.3021 -0.6725
 5330TIP3   OH237404   0.200   1.307  11.366  0.5265 -0.0607  0.3485
 5330TIP3    H137405   0.239   1.390  11.339 -0.9261  0.8212  0.8536
 5330TIP3    H237406   0.106   1.320  11.355  0.3058 -1.9598 -0.4006
 5331TIP3   OH237407   1.117   5.010  14.356  0.0448  0.8292  0.0611
 5331TIP3    H137408   1.185   5.070  14.326  0.3976  0.6961  0.5829
 5331TIP3    H237409   1.035   5.057  14.339  0.2420  0.8990 -0.7823
 5332TIP3   OH237410   4.434   5.683  17.205  0.0170  0.5038  0.0714
 5332TIP3    H137411   4.467   5.716  17.121  1.5639 -0.0486  0.4316
 5332TIP3    H237412   4.380   5.754  17.239 -0.6924  0.7147 -1.4095
 5333TIP3   OH237413   2.832   0.335  15.972  0.1031 -0.0582  0.3343
 5333TIP3    H137414   2.876   0.276  16.034  1.0714 -0.3796 -0.6351
 5333TIP3    H237415   2.806   0.410  16.026  1.5624 -0.0030  1.0072
 5334TIP3   OH237416   1.382   6.140  13.725  0.3847 -0.0212  0.1340
 5334TIP3    H137417   1.403   6.053  13.690 -0.1826  0.0390 -0.3773
 5334TIP3    H237418   1.467   6.179  13.745  0.6314 -0.9132  0.9332
 5335TIP3   OH237419   2.425   0.077  11.433  0.3212 -0.0010 -0.1996
 5335TIP3    H137420   2.404  -0.015  11.415 -0.9256  0.2846 -0.3064
 5335TIP3    H237421   2.521   0.081  11.429  0.4081 -1.3263 -0.0268
 5336TIP3   OH237422   0.606   3.817  14.748  0.5457 -0.3001 -0.1579
 5336TIP3    H137423   0.515   3.789  14.758  0.4747  0.6112  2.3516
 5336TIP3    H237424   0.601   3.894  14.690 -0.4756  0.4689  0.8984
 5337TIP3   OH237425   5.972   6.613   4.465 -0.0655  0.4953 -0.1634
 5337TIP3    H137426   6.049   6.559   4.452  0.8765  1.4957  1.0349
 5337TIP3    H237427   5.981   6.684   4.402  0.1271  0.7371  0.1317
 5338TIP3   OH237428   0.015   2.105  10.769 -0.5835  0.4090 -0.2023
 5338TIP3    H137429   0.097   2.127  10.814 -0.1710 -2.7052  0.7912
 5338TIP3    H237430   0.031   2.126  10.677  1.9729 -1.5264 -0.2952
 5339TIP3   OH237431   4.653   3.345  16.645  1.1029 -0.4201 -0.1424
 5339TIP3    H137432   4.646   3.395  16.564 -0.9180  1.3083  1.0154
 5339TIP3    H237433   4.662   3.411  16.714 -1.4765 -1.5516  1.4276
 5340TIP3   OH237434   3.214   1.842  15.930 -0.4893 -0.5281 -0.5508
 5340TIP3    H137435   3.198   1.748  15.917  0.6230 -0.5938 -1.6395
 5340TIP3    H237436   3.281   1.846  15.998 -0.9915 -0.4819 -0.0493
 5341TIP3   OH237437   6.232   3.573   5.225  0.1636  0.2063  0.0459
 5341TIP3    H137438   6.179   3.647   5.256 -1.3899 -0.5475 -0.6746
 5341TIP3    H237439   6.311   3.576   5.279 -0.0345  2.1346  0.3079
 5342TIP3   OH237440   6.139   3.224   5.740  0.3851 -0.6697 -0.0645
 5342TIP3    H137441   6.213   3.278   5.711  0.4333 -0.8216 -0.2219
 5342TIP3    H237442   6.070   3.241   5.676  0.2643 -0.4865  0.1125
 5343TIP3   OH237443   1.778   3.576  12.437  0.6776  0.2006 -0.2056
 5343TIP3    H137444   1.831   3.600  12.361  1.4778  1.5201  0.7189
 5343TIP3    H237445   1.742   3.660  12.468  1.3873 -0.1279  1.5999
 5344TIP3   OH237446   2.835   2.856  12.993  0.4251 -0.1731  0.4097
 5344TIP3    H137447   2.841   2.839  13.087  1.2420 -2.2620  0.0256
 5344TIP3    H237448   2.798   2.776  12.956 -0.7192  0.9323 -0.9838
 5345TIP3   OH237449   3.067   3.349  16.497  0.2508  0.4426  0.1943
 5345TIP3    H137450   3.030   3.436  16.481  0.4168  0.4357 -0.2348
 5345TIP3    H237451   2.992   3.290  16.498  0.1039  0.6306  0.8051
 5346TIP3   OH237452   0.623   5.567  16.770 -0.3370 -0.3952  0.6360
 5346TIP3    H137453   0.617   5.596  16.861  1.7549 -1.7685  1.2898
 5346TIP3    H237454   0.644   5.647  16.722  0.4941  0.0419  1.6674
 5347TIP3   OH237455   2.851   2.319   1.714  0.4180  0.1054 -0.8634
 5347TIP3    H137456   2.924   2.380   1.703 -2.1047  3.2102 -1.9239
 5347TIP3    H237457   2.827   2.327   1.807  2.0886 -1.9301 -0.1729
 5348TIP3   OH237458   0.715   0.750   3.628  0.1930 -0.2783 -0.5568
 5348TIP3    H137459   0.799   0.706   3.636 -0.5841 -2.0262 -1.4685
 5348TIP3    H237460   0.736   0.843   3.633  2.3203 -0.6301 -1.7337
 5349TIP3   OH237461   4.862   2.665   4.849  0.2756 -0.3447  0.1754
 5349TIP3    H137462   4.902   2.600   4.791  2.2876  1.5974 -0.7717
 5349TIP3    H237463   4.892   2.642   4.937 -1.3291 -2.2573  0.2850
 5350TIP3   OH237464   4.736   6.259   0.944  0.3629 -0.1301 -0.0769
 5350TIP3    H137465   4.807   6.207   0.906  0.0065  0.7954 -2.1806
 5350TIP3    H237466   4.779   6.314   1.009  0.9106 -2.2478  1.4501
 5351TIP3   OH237467   1.073   4.472  14.857 -0.4881  0.0940  0.3533
 5351TIP3    H137468   1.027   4.554  14.843  0.0306  0.5235  1.0994
 5351TIP3    H237469   1.021   4.425  14.923 -0.1337  0.3647  0.8318
 5352TIP3   OH237470   3.160   4.462   2.675 -0.0201 -0.5236 -0.5996
 5352TIP3    H137471   3.161   4.503   2.589  0.3261  3.3207  1.0377
 5352TIP3    H237472   3.252   4.457   2.702 -0.1209 -1.6722 -0.3996
 5353TIP3   OH237473   4.780   0.512   3.887  0.0206  0.1036  0.2375
 5353TIP3    H137474   4.843   0.582   3.868  1.7806 -1.3887  0.2334
 5353TIP3    H237475   4.719   0.551   3.949  1.6626  1.3159  1.1877
 5354TIP3   OH237476   0.128   4.369  13.163  0.7868  0.8357 -0.2355
 5354TIP3    H137477   0.188   4.438  13.191  0.9092 -0.3204  2.7909
 5354TIP3    H237478   0.167   4.288  13.198 -0.5631 -0.4727 -1.5751
 5355TIP3   OH237479   4.360   3.461   0.846  0.0005 -0.1779  0.3060
 5355TIP3    H137480   4.377   3.522   0.918  0.6656 -1.1462  1.0061
 5355TIP3    H237481   4.306   3.392   0.886 -1.0370  0.1215 -0.5571
 5356TIP3   OH237482   2.610   5.563  15.802 -0.1896 -0.6426 -0.1426
 5356TIP3    H137483   2.627   5.476  15.839  0.6596  0.1018  1.2983
 5356TIP3    H237484   2.575   5.614  15.875  0.6752  0.6137 -0.5725
 5357TIP3   OH237485   0.143   3.197   1.466 -0.3652  0.0354  0.0531
 5357TIP3    H137486   0.084   3.136   1.511 -0.8325  0.6025  0.2060
 5357TIP3    H237487   0.086   3.246   1.407  0.2114 -0.5836 -1.0607
 5358TIP3   OH237488   6.270   2.273   2.832 -0.5521 -0.2364  0.0664
 5358TIP3    H137489   6.353   2.305   2.797  0.3196 -0.6769  1.6283
 5358TIP3    H237490   6.287   2.258   2.925 -2.0025 -1.6219  0.1574
 5359TIP3   OH237491   3.256   1.913   5.517  0.0998 -0.3112  0.5854
 5359TIP3    H137492   3.182   1.970   5.539  0.1935 -0.2419  0.7202
 5359TIP3    H237493   3.286   1.879   5.601  0.7606  0.3274  0.6213
 5360TIP3   OH237494   6.155   1.592  16.593  0.0685  0.2159 -0.1421
 5360TIP3    H137495   6.215   1.539  16.646 -1.2051 -0.9678  0.1882
 5360TIP3    H237496   6.190   1.587  16.504 -0.0772 -1.3127 -0.1378
 5361TIP3   OH237497   1.569   1.766   1.322  0.3307 -0.2331 -0.0597
 5361TIP3    H137498   1.630   1.793   1.254 -0.0663  0.8441 -0.0181
 5361TIP3    H237499   1.528   1.848   1.351  1.4680 -0.4782  2.4440
 5362TIP3   OH237500   2.350   2.626  10.748  0.2200  0.3776  0.1654
 5362TIP3    H137501   2.320   2.714  10.728  0.6090  0.2662 -0.9961
 5362TIP3    H237502   2.269   2.576  10.760 -0.0343  0.6049 -0.5343
 5363TIP3   OH237503   1.739   1.139  16.146 -0.0927 -0.1556  0.1038
 5363TIP3    H137504   1.720   1.223  16.102 -2.4105  0.3051  1.7692
 5363TIP3    H237505   1.691   1.074  16.095 -3.3767  0.4733  2.0772
 5364TIP3   OH237506   2.557   5.796   0.830 -0.1770 -0.0163 -0.0868
 5364TIP3    H137507   2.632   5.851   0.852  1.0783 -1.4819 -0.4734
 5364TIP3    H237508   2.570   5.717   0.883  1.3039 -2.3734 -3.5752
 5365TIP3   OH237509   6.404   1.500   4.800 -0.5971  0.3173  0.5084
 5365TIP3    H137510   6.351   1.455   4.735  1.2472 -2.5696  0.8594
 5365TIP3    H237511   6.383   1.457   4.883  0.6041  0.6774  1.0267
 5366TIP3   OH237512   5.017   1.212   3.738 -0.0741  0.6392  0.0805
 5366TIP3    H137513   4.944   1.265   3.707 -0.4738  0.3727  0.5545
 5366TIP3    H237514   5.003   1.204   3.832 -0.2248 -0.5914 -0.0248
 5367TIP3   OH237515   5.492   3.160   2.153 -0.1213  0.5167  0.4744
 5367TIP3    H137516   5.522   3.203   2.233 -0.3548 -2.2575  2.1853
 5367TIP3    H237517   5.402   3.132   2.173 -1.0840  1.7778 -1.6787
 5368TIP3   OH237518   6.240   5.699   3.878 -0.1683  0.1592 -0.3506
 5368TIP3    H137519   6.272   5.789   3.874  0.2845 -0.0021 -4.4260
 5368TIP3    H237520   6.316   5.645   3.856 -1.1165 -0.9445 -1.0497
 5369TIP3   OH237521   6.138   1.296   2.535 -0.3935 -0.2065  0.2412
 5369TIP3    H137522   6.219   1.256   2.568 -0.5518 -1.0794 -0.3990
 5369TIP3    H237523   6.168   1.371   2.484 -0.0333 -0.0959  0.6077
 5370TIP3   OH237524   4.799   5.581  11.700 -1.3405  0.2134  0.3637
 5370TIP3    H137525   4.760   5.548  11.782 -2.2885 -0.3526 -0.2882
 5370TIP3    H237526   4.746   5.657  11.678  0.8376  2.2951  1.8570
 5371TIP3   OH237527   3.021   4.347   3.805  1.0466  0.2340 -0.9008
 5371TIP3    H137528   3.081   4.336   3.880 -0.4618 -0.0785  0.3031
 5371TIP3    H237529   2.996   4.440   3.808 -2.7331 -0.6341  2.0600
 5372TIP3   OH237530   1.129   4.118  14.194  0.8702  0.2725 -0.3877
 5372TIP3    H137531   1.060   4.071  14.147  0.3669 -0.0477  0.6315
 5372TIP3    H237532   1.201   4.056  14.199  0.6946  0.0811 -0.1986
 5373TIP3   OH237533   6.334   4.210   3.471 -0.1564  0.1240 -0.6037
 5373TIP3    H137534   6.328   4.259   3.553 -0.5749  0.3060 -0.7419
 5373TIP3    H237535   6.244   4.202   3.440 -0.0175 -0.0761 -0.9697
 5374TIP3   OH237536   6.390   0.128  14.452  0.4661 -0.6560  0.6858
 5374TIP3    H137537   6.447   0.144  14.527  0.0466 -1.2607  1.1388
 5374TIP3    H237538   6.415   0.042  14.420  0.2898 -0.6216  0.4451
 5375TIP3   OH237539   6.727   1.408   4.015  0.0831  0.9008 -0.2510
 5375TIP3    H137540   6.676   1.327   4.009 -0.8230  1.5284 -1.6580
 5375TIP3    H237541   6.786   1.405   3.940  1.3626  0.7185  0.7292
 5376TIP3   OH237542   2.676   1.667   2.003  0.0645  0.2181  0.3367
 5376TIP3    H137543   2.616   1.741   2.016  0.7518  1.0701 -1.0436
 5376TIP3    H237544   2.714   1.652   2.089 -0.9587  0.7012  0.8933
 5377TIP3   OH237545   1.785   1.633  11.567 -0.5570  0.2810  0.0843
 5377TIP3    H137546   1.782   1.592  11.481  3.5166 -0.8834  0.2588
 5377TIP3    H237547   1.721   1.585  11.619 -2.3866  0.3543 -1.9751
 5378TIP3   OH237548   4.672   6.110   2.847 -0.3865 -0.5362 -0.1107
 5378TIP3    H137549   4.757   6.090   2.885 -0.2491  0.4001  0.1006
 5378TIP3    H237550   4.610   6.098   2.919 -0.0040  2.3395  0.8226
 5379TIP3   OH237551   1.763   2.716   5.850 -0.0148 -0.3838  0.2464
 5379TIP3    H137552   1.714   2.730   5.931 -1.3782 -2.3874 -0.1631
 5379TIP3    H237553   1.801   2.629   5.859  0.0936 -0.5042 -1.1017
 5380TIP3   OH237554   0.686   5.418  11.386  0.2891 -0.3539 -0.2456
 5380TIP3    H137555   0.605   5.447  11.427 -0.0312 -0.9122 -0.4783
 5380TIP3    H237556   0.659   5.375  11.305  0.6056 -2.5115  0.7060
 5381TIP3   OH237557   1.760   1.460  15.417 -0.3460 -0.1773  0.3567
 5381TIP3    H137558   1.668   1.440  15.433 -0.4444  1.1845  1.6625
 5381TIP3    H237559   1.771   1.551  15.443  0.6667  0.7606 -2.8851
 5382TIP3   OH237560   3.201   1.375  10.644 -0.2320 -0.0748  0.1712
 5382TIP3    H137561   3.265   1.335  10.586 -2.0087  0.1657 -2.1032
 5382TIP3    H237562   3.145   1.302  10.672 -0.3696  0.0558  0.2404
 5383TIP3   OH237563   3.928   1.799   4.758  0.4509 -0.3836 -0.0860
 5383TIP3    H137564   3.874   1.869   4.722 -0.8874 -1.2957  0.0909
 5383TIP3    H237565   3.956   1.748   4.682  0.7863 -0.1199 -0.1444
 5384TIP3   OH237566   0.382   3.455   3.009 -0.8397  0.3604 -0.1430
 5384TIP3    H137567   0.356   3.543   3.037 -0.2235  0.8764 -1.1223
 5384TIP3    H237568   0.477   3.458   3.004 -0.8201 -0.3303 -0.2788
 5385TIP3   OH237569   4.676   2.612  12.473 -0.2561 -0.0575 -0.3862
 5385TIP3    H137570   4.600   2.554  12.468 -1.1134  0.7340  2.1331
 5385TIP3    H237571   4.747   2.563  12.432 -1.1483 -2.5501  0.8683
 5386TIP3   OH237572   0.548   3.560  12.366  0.1437 -0.2205  0.5994
 5386TIP3    H137573   0.629   3.518  12.335  0.3126 -0.4963  1.3893
 5386TIP3    H237574   0.486   3.488  12.376 -0.5641  0.1191 -1.0580
 5387TIP3   OH237575   2.913   2.072   5.353  0.0416  0.5705  0.2967
 5387TIP3    H137576   2.894   2.166   5.363  0.9746  0.7009  0.9477
 5387TIP3    H237577   2.870   2.048   5.271 -1.2008  1.2980  0.7098
 5388TIP3   OH237578   1.675   6.184  13.460  0.1524 -0.0051  0.5110
 5388TIP3    H137579   1.704   6.268  13.424  0.9275 -0.5596 -0.2014
 5388TIP3    H237580   1.674   6.198  13.555  0.4144  0.7611  0.4129
 5389TIP3   OH237581   0.422   6.510  14.891 -0.1574  0.1752  0.0549
 5389TIP3    H137582   0.422   6.455  14.812 -1.0226 -0.7516  0.6749
 5389TIP3    H237583   0.515   6.522  14.912  0.0508 -1.4109  0.1355
 5390TIP3   OH237584   1.009   5.503   3.723  0.0292  0.0357  0.1839
 5390TIP3    H137585   1.024   5.481   3.632  1.0921 -0.1463  0.3903
 5390TIP3    H237586   0.973   5.423   3.762  1.3610 -0.5062  0.3381
 5391TIP3   OH237587   4.731   4.802  15.686 -0.0655 -0.1737  0.0784
 5391TIP3    H137588   4.656   4.756  15.650 -0.1627  1.3084 -1.8256
 5391TIP3    H237589   4.807   4.754  15.653 -0.1317 -1.4002  1.6225
 5392TIP3   OH237590   6.151   6.726   1.463 -0.9471  0.0771 -0.7873
 5392TIP3    H137591   6.177   6.797   1.521 -0.9179 -0.5987  0.0433
 5392TIP3    H237592   6.077   6.684   1.507  0.1852 -1.5465 -0.3432
 5393TIP3   OH237593   5.619   2.135   6.109 -0.0950 -0.9382 -0.3824
 5393TIP3    H137594   5.668   2.078   6.168 -1.6854 -0.7131  1.2473
 5393TIP3    H237595   5.544   2.081   6.081 -0.3674 -0.4169 -0.6718
 5394TIP3   OH237596   6.652   0.538   5.319  0.1488  0.4861  0.8197
 5394TIP3    H137597   6.708   0.521   5.242  0.7450  0.4577  1.2550
 5394TIP3    H237598   6.624   0.451   5.347  0.1099  0.4831  0.7738
 5395TIP3   OH237599   2.150   5.969  14.446 -0.4054 -0.4756 -0.0518
 5395TIP3    H137600   2.170   5.998  14.357  0.0428 -1.0197 -0.1387
 5395TIP3    H237601   2.236   5.962  14.489 -0.6186 -0.2068  0.4249
 5396TIP3   OH237602   6.551   2.827  15.937 -0.4498  0.1577  0.0013
 5396TIP3    H137603   6.504   2.821  16.020  1.3416  1.1043  1.1563
 5396TIP3    H237604   6.560   2.921  15.922  0.1212 -0.0061 -0.7345
 5397TIP3   OH237605   1.244   2.372   4.656 -0.2308  0.5118 -0.2905
 5397TIP3    H137606   1.319   2.353   4.714  0.3825  1.9378 -0.5666
 5397TIP3    H237607   1.179   2.412   4.714 -1.5630 -2.2801  0.3127
 5398TIP3   OH237608   2.291   5.599   5.024 -0.2010 -0.0943  0.0267
 5398TIP3    H137609   2.351   5.604   4.949 -1.1126  3.3828 -0.6434
 5398TIP3    H237610   2.305   5.681   5.071 -1.9546 -0.7821  1.8961
 5399TIP3   OH237611   6.355   6.457   2.092  0.0804  0.2090 -0.0796
 5399TIP3    H137612   6.358   6.493   2.181  1.2875  0.4665 -0.1988
 5399TIP3    H237613   6.290   6.388   2.096 -1.1774  1.3902  0.5570
 5400TIP3   OH237614   6.209   1.719  13.611 -0.4315  0.2337  0.0807
 5400TIP3    H137615   6.216   1.809  13.578  2.5033  0.2445  0.4237
 5400TIP3    H237616   6.130   1.719  13.664 -0.1881  2.8205  0.6056
 5401TIP3   OH237617   0.290   3.481  13.909 -0.3674 -0.9085 -0.0037
 5401TIP3    H137618   0.340   3.401  13.895  1.0494 -0.2242  0.9509
 5401TIP3    H237619   0.350   3.552  13.886 -0.6243 -0.0284  1.8823
 5402TIP3   OH237620   5.414   4.563  12.221  0.6741  0.3183 -0.4215
 5402TIP3    H137621   5.344   4.500  12.237  2.0920 -2.0088 -2.5716
 5402TIP3    H237622   5.387   4.608  12.140  0.7741  0.8219 -0.1800
 5403TIP3   OH237623   0.767   1.769   2.235  0.4238 -0.1364  0.4414
 5403TIP3    H137624   0.766   1.741   2.327 -0.9907 -1.2235  0.1281
 5403TIP3    H237625   0.827   1.707   2.192  0.7341  0.0891  0.5481
 5404TIP3   OH237626   3.514   2.150  10.659 -0.1406  0.3659  0.3117
 5404TIP3    H137627   3.425   2.160  10.691 -1.0774  0.5115 -2.1718
 5404TIP3    H237628   3.544   2.068  10.697 -0.6818  1.1173  2.5009
 5405TIP3   OH237629   4.146   3.886  10.484  0.0818  0.6364  0.2484
 5405TIP3    H137630   4.094   3.826  10.430  0.4412  0.8688 -0.3719
 5405TIP3    H237631   4.081   3.934  10.535 -0.4949  2.0947 -1.7166
 5406TIP3   OH237632   0.248   5.589  16.980  0.0496  0.2870 -0.6401
 5406TIP3    H137633   0.167   5.602  16.931 -0.7214  2.9082  1.0961
 5406TIP3    H237634   0.228   5.518  17.041 -0.9161  0.7807 -0.3576
 5407TIP3   OH237635   2.467   5.041   1.230 -0.0752 -0.1486  0.8149
 5407TIP3    H137636   2.550   5.071   1.194 -0.0912 -1.6472 -0.5765
 5407TIP3    H237637   2.401   5.097   1.190 -0.0299 -1.3582 -1.0559
 5408TIP3   OH237638   6.117   0.768  14.938 -0.3445 -0.3687  0.6730
 5408TIP3    H137639   6.113   0.863  14.954 -1.9125 -0.7432  2.8916
 5408TIP3    H237640   6.046   0.732  14.991  1.2531 -2.9692  1.1703
 5409TIP3   OH237641   1.554   2.407   2.351 -0.3807 -0.3727 -0.1565
 5409TIP3    H137642   1.529   2.359   2.430 -0.0592 -0.4087 -0.0780
 5409TIP3    H237643   1.531   2.347   2.279 -0.3807 -0.4672 -0.0786
 5410TIP3   OH237644   5.424   1.107   2.175 -0.6891 -0.3069 -0.6648
 5410TIP3    H137645   5.414   1.130   2.083  0.6616 -0.8024 -0.9478
 5410TIP3    H237646   5.335   1.110   2.210 -0.9981  2.0446 -1.4494
 5411TIP3   OH237647   0.931   0.262   0.675  0.0686  0.3525 -0.8596
 5411TIP3    H137648   0.975   0.333   0.628 -0.4420  2.0727  1.1555
 5411TIP3    H237649   0.852   0.244   0.624  0.9360  0.1811 -2.1832
 5412TIP3   OH237650   4.515   4.346  15.083  0.2066  0.5794 -0.0875
 5412TIP3    H137651   4.472   4.418  15.129  1.1237  1.1058 -0.0162
 5412TIP3    H237652   4.470   4.341  14.999  1.3614  2.5690 -0.9090
 5413TIP3   OH237653   6.357   3.295   3.749  0.0737 -0.1471  0.5148
 5413TIP3    H137654   6.278   3.342   3.722  0.1126 -0.0657  0.5426
 5413TIP3    H237655   6.336   3.203   3.735 -0.7180 -0.2771  2.2917
 5414TIP3   OH237656   0.580   5.041  12.130 -0.4321  0.5608 -0.0205
 5414TIP3    H137657   0.519   5.073  12.196 -2.0649  1.4614 -1.8428
 5414TIP3    H237658   0.533   5.052  12.047  0.8018 -2.2112 -1.2052
 5415TIP3   OH237659   1.504   6.305   3.436 -0.2566  0.2164 -0.6118
 5415TIP3    H137660   1.445   6.347   3.499  0.1063 -0.3013  0.0784
 5415TIP3    H237661   1.591   6.316   3.474 -0.1798 -1.4451 -0.2407
 5416TIP3   OH237662   6.485   6.212   1.675 -0.2942 -0.3997  0.1840
 5416TIP3    H137663   6.497   6.263   1.755 -0.8777  0.2086 -0.1021
 5416TIP3    H237664   6.529   6.129   1.693  0.0507 -0.0714  0.9303
 5417TIP3   OH237665   1.337   0.201  13.885  0.7905  0.4760 -0.3673
 5417TIP3    H137666   1.252   0.192  13.843  0.7339  0.9837 -0.3707
 5417TIP3    H237667   1.317   0.233  13.973  0.9164 -0.4542  0.0106
 5418TIP3   OH237668   4.183   5.183   5.605  0.1463  0.3117  0.0162
 5418TIP3    H137669   4.223   5.270   5.607  0.7343  0.0435  0.0112
 5418TIP3    H237670   4.157   5.167   5.695 -1.0063  0.9633 -0.1775
 5419TIP3   OH237671   4.534   5.240  11.553  0.5790 -0.1192  0.1148
 5419TIP3    H137672   4.503   5.321  11.513  1.6183  0.1354 -0.2016
 5419TIP3    H237673   4.517   5.173  11.486  0.7365  0.0264 -0.0730
 5420TIP3   OH237674   5.222   1.844  14.817  0.5477 -0.2564 -0.3518
 5420TIP3    H137675   5.262   1.906  14.878  0.3230 -0.9249  0.4938
 5420TIP3    H237676   5.206   1.895  14.738  3.8150 -0.1352 -1.0603
 5421TIP3   OH237677   5.251   3.580  12.810 -0.3519 -0.1608  0.6020
 5421TIP3    H137678   5.176   3.556  12.755  1.4419 -1.9777 -1.2283
 5421TIP3    H237679   5.258   3.508  12.873 -0.1587  0.0206  0.7878
 5422TIP3   OH237680   0.403   1.944  15.901 -0.6471  0.6605 -0.1494
 5422TIP3    H137681   0.486   1.898  15.884 -0.3009  1.6884 -1.3387
 5422TIP3    H237682   0.336   1.877  15.889  0.0133 -0.4821  1.9121
 5423TIP3   OH237683   3.425   3.804   0.330 -0.0385 -0.0975 -0.3430
 5423TIP3    H137684   3.346   3.812   0.383  0.5734  0.0403  0.5627
 5423TIP3    H237685   3.495   3.837   0.386  0.4048  1.5455 -1.7974
 5424TIP3   OH237686   0.239   0.641  14.618 -0.4066 -0.0131 -0.1742
 5424TIP3    H137687   0.237   0.565  14.677  2.0497  0.7004  0.9802
 5424TIP3    H237688   0.255   0.716  14.676  3.4542  0.5586 -1.6931
 5425TIP3   OH237689   1.662   4.153  15.672  0.8462 -0.0527  0.3355
 5425TIP3    H137690   1.600   4.213  15.713 -1.1202 -0.3424 -2.0186
 5425TIP3    H237691   1.738   4.208  15.652 -1.1303  1.9668 -2.3219
 5426TIP3   OH237692   0.183   5.322   5.599  0.4091 -0.2328  0.4605
 5426TIP3    H137693   0.223   5.333   5.686  0.2183  1.2630  0.3834
 5426TIP3    H237694   0.199   5.405   5.555 -1.3778 -0.1933 -0.1596
 5427TIP3   OH237695   5.193   0.216   0.720  0.0432 -0.0218 -0.0535
 5427TIP3    H137696   5.282   0.214   0.754 -0.6464 -1.3837  1.8487
 5427TIP3    H237697   5.169   0.309   0.722  0.8108  0.1720  1.1298
 5428TIP3   OH237698   4.805   3.721   3.753 -0.3403  0.1716 -0.0023
 5428TIP3    H137699   4.776   3.690   3.839  0.3844  1.9548  0.9423
 5428TIP3    H237700   4.738   3.784   3.726 -0.1239  0.2728 -0.3160
 5429TIP3   OH237701   3.941   4.860  14.428  0.3419 -0.1177 -0.5527
 5429TIP3    H137702   3.970   4.926  14.491  1.5161 -0.6447 -0.5201
 5429TIP3    H237703   3.873   4.812  14.475  0.5426  0.1022 -0.0239
 5430TIP3   OH237704   2.955   0.308  12.162 -0.0950  0.8507 -0.3909
 5430TIP3    H137705   2.909   0.381  12.121 -0.9130  0.2965 -0.4661
 5430TIP3    H237706   2.985   0.253  12.089  1.9466  1.9123 -0.4338
 5431TIP3   OH237707   6.107   4.164   1.776  0.1216 -0.2054  0.4716
 5431TIP3    H137708   6.043   4.097   1.803 -0.7609  0.2139 -0.5023
 5431TIP3    H237709   6.157   4.182   1.855 -1.3751 -0.1235  1.4541
 5432TIP3   OH237710   5.944   2.785   0.622  0.1375  0.3058  0.0938
 5432TIP3    H137711   5.860   2.745   0.648  0.4010 -1.2235 -1.2378
 5432TIP3    H237712   5.931   2.879   0.635 -1.4442  0.0165  0.8450
 5433TIP3   OH237713   0.913   0.840   5.122  0.4723  0.0963  0.1490
 5433TIP3    H137714   0.963   0.829   5.203  0.0327 -0.0256  0.4081
 5433TIP3    H237715   0.977   0.826   5.052  0.7098 -0.4877  0.4745
 5434TIP3   OH237716   6.617   1.639  15.506  0.0002  0.5012 -0.3154
 5434TIP3    H137717   6.523   1.619  15.508 -0.3172  1.9225  0.5445
 5434TIP3    H237718   6.621   1.735  15.512  1.5107  0.4560 -0.2793
 5435TIP3   OH237719   3.462   6.574  12.122  0.0947 -0.0301  0.2552
 5435TIP3    H137720   3.405   6.649  12.106 -0.5071 -0.3607  0.8025
 5435TIP3    H237721   3.421   6.502  12.075  1.1966  0.1842 -1.0831
 5436TIP3   OH237722   2.245   4.466  15.841 -0.5488 -0.4132  0.0264
 5436TIP3    H137723   2.278   4.446  15.929  2.7086 -0.9733 -1.1614
 5436TIP3    H237724   2.198   4.549  15.851 -0.0217 -0.3072  2.2348
 5437TIP3   OH237725   1.310   4.904  12.727  0.4591 -0.3139 -0.2354
 5437TIP3    H137726   1.380   4.863  12.779  0.0290  1.0629  1.5231
 5437TIP3    H237727   1.357   4.962  12.667  0.8901  0.3617  0.7168
 5438TIP3   OH237728   4.878   5.810   0.847  0.1378 -0.1793  0.2891
 5438TIP3    H137729   4.792   5.851   0.861 -0.4908 -0.4606 -2.1722
 5438TIP3    H237730   4.869   5.764   0.763  1.9119 -2.4480  1.2363
 5439TIP3   OH237731   4.047   0.243   4.677  0.3827  0.6862 -0.1173
 5439TIP3    H137732   4.097   0.321   4.698 -0.0153  0.8809  0.1264
 5439TIP3    H237733   4.112   0.174   4.666  0.8761  1.3566 -1.8465
 5440TIP3   OH237734   0.952   1.022  12.099 -0.7821 -0.5564  0.0089
 5440TIP3    H137735   0.942   1.068  12.183  1.0638 -1.4004  0.7440
 5440TIP3    H237736   1.033   0.973  12.109 -1.3258 -1.8766 -1.7370
 5441TIP3   OH237737   1.705   6.143   0.756  0.1266 -0.3165  0.1898
 5441TIP3    H137738   1.775   6.208   0.756  0.4204 -0.6229 -0.7042
 5441TIP3    H237739   1.750   6.058   0.759 -0.2052 -0.5160 -0.3219
 5442TIP3   OH237740   4.492   3.783   2.100 -0.2032  0.3735  0.7166
 5442TIP3    H137741   4.574   3.809   2.142  0.3469  1.5821 -1.0097
 5442TIP3    H237742   4.429   3.776   2.172  1.3500 -0.4742  2.0692
 5443TIP3   OH237743   1.281   6.473   6.648 -0.1504 -0.1600  0.0273
 5443TIP3    H137744   1.305   6.563   6.671 -2.0522  0.2586  0.5933
 5443TIP3    H237745   1.209   6.483   6.586 -0.3977 -1.2809  0.1182
 5444TIP3   OH237746   6.175   4.720  13.295  0.2356  0.3108 -0.4145
 5444TIP3    H137747   6.193   4.723  13.201  0.3217  0.5424 -0.3907
 5444TIP3    H237748   6.168   4.812  13.322  0.3596  0.2485 -0.1647
 5445TIP3   OH237749   4.901   4.311   1.392 -0.5969  0.0113 -0.6040
 5445TIP3    H137750   4.973   4.303   1.455 -0.8349 -0.2284 -0.3598
 5445TIP3    H237751   4.889   4.223   1.358 -3.1506 -0.8023  2.0038
 5446TIP3   OH237752   0.656   1.448   2.217  0.1658 -0.2084 -0.2635
 5446TIP3    H137753   0.705   1.435   2.136 -2.1224  0.4204 -1.8556
 5446TIP3    H237754   0.584   1.507   2.193 -1.3405 -0.9987  1.9235
 5447TIP3   OH237755   5.070   0.502  11.886 -0.5042  0.6547  0.1287
 5447TIP3    H137756   5.056   0.429  11.947  1.7319 -1.0693 -1.2433
 5447TIP3    H237757   5.005   0.490  11.818 -0.3545  0.0960  0.0776
 5448TIP3   OH237758   1.086   3.134   4.330 -0.1046  0.0667  0.0552
 5448TIP3    H137759   1.089   3.194   4.255 -2.3935 -1.3332 -1.2659
 5448TIP3    H237760   1.015   3.074   4.309  1.3589 -2.4399  1.8498
 5449TIP3   OH237761   3.388   0.428  13.153  0.0458 -0.7008 -0.0498
 5449TIP3    H137762   3.405   0.347  13.201  0.5423  0.0270  1.0569
 5449TIP3    H237763   3.422   0.497  13.210  0.8609  0.1951 -1.5455
 5450TIP3   OH237764   3.907   3.543  13.425 -0.4070  0.3964 -0.0169
 5450TIP3    H137765   3.920   3.530  13.331  0.6643 -1.0024  0.2850
 5450TIP3    H237766   3.979   3.495  13.466 -1.0588  0.6792  1.5315
 5451TIP3   OH237767   0.009   4.316  13.631  0.5456 -0.4747  0.4410
 5451TIP3    H137768  -0.051   4.259  13.582  0.3155  0.3557 -0.2540
 5451TIP3    H237769   0.055   4.256  13.690 -0.2979 -1.2601  0.3230
 5452TIP3   OH237770   6.129   5.769   4.979 -0.3258 -0.6726 -0.0670
 5452TIP3    H137771   6.155   5.743   4.890 -1.5068 -2.0541 -0.0365
 5452TIP3    H237772   6.076   5.848   4.967 -1.0075 -1.2133 -0.6581
 5453TIP3   OH237773   4.084   1.252  15.032  0.8118 -0.0983  0.5001
 5453TIP3    H137774   4.136   1.306  15.091  1.3146 -0.4570  0.3978
 5453TIP3    H237775   4.024   1.313  14.989  2.7360  0.7393 -1.1375
 5454TIP3   OH237776   3.872   4.092  17.359  0.3865  0.0589 -0.4954
 5454TIP3    H137777   3.943   4.130  17.410  0.5073  0.0953 -0.6918
 5454TIP3    H237778   3.821   4.167  17.329 -0.6372 -0.0227  0.9431
 5455TIP3   OH237779   1.586   3.555   1.248  0.3935  0.2144  0.6030
 5455TIP3    H137780   1.589   3.474   1.197 -1.5291  0.0135  0.7729
 5455TIP3    H237781   1.546   3.619   1.190  1.8254  1.0714  0.4969
 5456TIP3   OH237782   4.422   1.954  15.801 -0.1460  0.1610  0.2585
 5456TIP3    H137783   4.498   2.006  15.776 -0.8397  0.7058 -0.7982
 5456TIP3    H237784   4.411   1.892  15.730 -0.6790  0.0729  0.4146
 5457TIP3   OH237785   1.179   3.460  16.604 -0.1254 -0.1714  0.0803
 5457TIP3    H137786   1.263   3.423  16.577  0.4745 -0.6787  2.4222
 5457TIP3    H237787   1.122   3.384  16.616 -0.3025  0.0141  0.4339
 5458TIP3   OH237788   0.342   1.895   3.995  0.1796  0.0431  0.1790
 5458TIP3    H137789   0.290   1.841   3.937 -0.7934  1.5765 -0.4393
 5458TIP3    H237790   0.341   1.982   3.955  0.4659  0.8788  1.8713
 5459TIP3   OH237791   2.750   0.967  12.295 -0.1334 -0.1645 -0.4597
 5459TIP3    H137792   2.668   0.917  12.288 -0.3007 -0.4689  2.4407
 5459TIP3    H237793   2.729   1.054  12.261 -1.3885 -0.4897 -0.5499
 5460TIP3   OH237794   3.092   3.650  16.356  0.2880 -0.2989 -0.5735
 5460TIP3    H137795   3.176   3.621  16.319 -0.2321 -1.8313 -0.6462
 5460TIP3    H237796   3.074   3.733  16.313  1.4403 -0.2877 -1.0708
 5461TIP3   OH237797   5.924   6.678   2.805 -0.1660  0.2666 -0.8646
 5461TIP3    H137798   5.948   6.759   2.760  0.0677  0.8227  0.2245
 5461TIP3    H237799   5.837   6.696   2.842 -0.0592  0.0618 -0.5127
 5462TIP3   OH237800   0.673   5.659  13.444  0.4143 -0.0468  0.2390
 5462TIP3    H137801   0.639   5.748  13.449 -1.3280 -0.5342 -1.7345
 5462TIP3    H237802   0.596   5.603  13.443  1.4070 -1.4666 -0.4634
 5463TIP3   OH237803   5.898   2.206   0.030 -0.0813  0.5190 -0.2302
 5463TIP3    H137804   5.816   2.202   0.079 -0.4538 -0.5378 -0.9076
 5463TIP3    H237805   5.873   2.184  -0.060  0.9119  0.4076 -0.4875
 5464TIP3   OH237806   2.328   3.022   1.760 -0.1663 -0.4114 -0.0921
 5464TIP3    H137807   2.400   2.961   1.776 -0.8972 -1.1135  0.5825
 5464TIP3    H237808   2.346   3.058   1.673  0.3695 -1.4640 -0.4327
 5465TIP3   OH237809   6.405   3.942  15.572  0.2599  0.4486 -0.4243
 5465TIP3    H137810   6.418   3.850  15.550  0.4781 -0.0473  1.5514
 5465TIP3    H237811   6.310   3.954  15.568  0.2471  0.2146 -0.9275
 5466TIP3   OH237812   3.362   0.703  11.739 -0.0108  0.4712  0.2999
 5466TIP3    H137813   3.333   0.792  11.718 -0.2448  0.1206 -0.9271
 5466TIP3    H237814   3.412   0.675  11.663  0.2503 -0.3771  0.7716
 5467TIP3   OH237815   3.990   1.735  12.042  0.5359  0.2993  0.2239
 5467TIP3    H137816   4.017   1.746  11.951 -0.2128  0.2027 -0.0194
 5467TIP3    H237817   3.950   1.648  12.045 -0.4499  0.7423  0.3818
 5468TIP3   OH237818   6.501   3.262   2.351  1.0609 -0.1019  0.1329
 5468TIP3    H137819   6.418   3.231   2.315  2.1095 -1.7532 -0.9769
 5468TIP3    H237820   6.568   3.210   2.307  2.6104 -0.0556  2.2625
 5469TIP3   OH237821   1.249   4.553  15.950  0.3969  0.0930  0.7274
 5469TIP3    H137822   1.180   4.609  15.985 -1.4521 -2.1266  0.8323
 5469TIP3    H237823   1.281   4.601  15.873  0.1584  2.0815  1.7849
 5470TIP3   OH237824   5.828   6.608   0.745 -0.1868 -0.2110  0.4238
 5470TIP3    H137825   5.887   6.609   0.820  1.1441 -0.5315 -0.5781
 5470TIP3    H237826   5.885   6.591   0.670 -1.5073 -0.1242 -0.6375
 5471TIP3   OH237827   0.501   5.413   1.174  0.6978  0.4598  0.4557
 5471TIP3    H137828   0.490   5.433   1.081  0.4564 -1.1432  0.1157
 5471TIP3    H237829   0.435   5.346   1.192  1.0822  0.3874  1.6674
 5472TIP3   OH237830   0.190   3.109   4.934 -0.5419 -0.1573  0.1790
 5472TIP3    H137831   0.117   3.145   4.884  1.4980  1.8225 -1.6182
 5472TIP3    H237832   0.226   3.040   4.879 -0.7850 -0.8490  0.8702
 5473TIP3   OH237833   2.960   5.594  17.278 -0.1663  0.6822 -0.4004
 5473TIP3    H137834   2.865   5.603  17.278 -0.1860  0.5075 -0.5941
 5473TIP3    H237835   2.992   5.670  17.326 -0.4515  0.1392  0.6647
 5474TIP3   OH237836   3.692   2.810  12.587  0.4605  0.5275 -0.1860
 5474TIP3    H137837   3.663   2.893  12.625 -0.8786  1.0518 -2.2010
 5474TIP3    H237838   3.619   2.750  12.603  1.1083 -0.0826  0.5845
 5475TIP3   OH237839   6.319   0.905   2.847 -0.5096  0.1852 -0.2444
 5475TIP3    H137840   6.224   0.904   2.832 -0.5345  0.2390 -0.0956
 5475TIP3    H237841   6.347   0.992   2.821 -0.4298  0.0214 -0.7143
 5476TIP3   OH237842   6.564   1.448   6.030  0.3170 -0.3149  0.1664
 5476TIP3    H137843   6.612   1.518   5.986  0.9334 -0.4203  0.6486
 5476TIP3    H237844   6.574   1.372   5.974 -0.3904 -0.0104 -0.3814
 5477TIP3   OH237845   6.721   5.503   5.266 -0.0976 -0.4649 -0.2597
 5477TIP3    H137846   6.812   5.477   5.259  0.5242  1.0063  1.6025
 5477TIP3    H237847   6.719   5.595   5.239 -1.0048 -0.4485 -0.1978
 5478TIP3   OH237848   3.953   0.112   6.035  0.0243 -0.1340  0.3139
 5478TIP3    H137849   3.914   0.070   6.112  1.0571  0.1142  0.9948
 5478TIP3    H237850   3.948   0.206   6.054 -3.2145  0.2749 -1.6425
 5479TIP3   OH237851   4.910   1.990  16.555  0.2792 -0.4741  0.2126
 5479TIP3    H137852   4.888   1.964  16.466  0.1687  0.2796  0.0053
 5479TIP3    H237853   4.885   2.083  16.560  1.5002 -0.1353  0.6089
 5480TIP3   OH237854   2.167   3.474   5.280  0.1413 -0.1026  0.6660
 5480TIP3    H137855   2.118   3.466   5.362  0.0795  0.0065  0.6403
 5480TIP3    H237856   2.246   3.521   5.304 -0.9147  2.0133  0.2597
 5481TIP3   OH237857   3.467   5.212  10.916  0.0517 -0.1795  0.1831
 5481TIP3    H137858   3.396   5.147  10.918 -0.1660  0.0626  0.3160
 5481TIP3    H237859   3.440   5.278  10.979 -0.8550  1.2289 -1.5812
 5482TIP3   OH237860   4.022   2.032   0.068 -0.5442  0.2959  0.4187
 5482TIP3    H137861   4.035   1.937   0.066  0.1509  0.3635  0.9815
 5482TIP3    H237862   4.092   2.064   0.125  3.3548  1.8297 -4.5075
 5483TIP3   OH237863   3.227   1.247  16.488 -0.0574  0.1909 -0.0059
 5483TIP3    H137864   3.210   1.205  16.404  1.5751 -0.1108 -0.2265
 5483TIP3    H237865   3.140   1.269  16.522 -0.9449 -2.3793 -0.3760
 5484TIP3   OH237866   0.917   0.663  12.784 -0.0371 -0.2029 -0.2587
 5484TIP3    H137867   0.837   0.688  12.737 -1.3263 -2.1341  0.7598
 5484TIP3    H237868   0.987   0.674  12.720 -1.3120  0.0876 -1.6743
 5485TIP3   OH237869   4.516   0.586  12.386 -0.0700  0.5996  0.1767
 5485TIP3    H137870   4.569   0.529  12.331 -0.3887 -0.3793  0.8615
 5485TIP3    H237871   4.580   0.638  12.436  0.2617 -0.3402  0.7543
 5486TIP3   OH237872   1.528   3.795  13.419  0.5214  0.3203 -0.3505
 5486TIP3    H137873   1.576   3.756  13.493 -0.6494 -0.2625  0.1306
 5486TIP3    H237874   1.463   3.851  13.460  1.4727  1.9675 -1.0247
 5487TIP3   OH237875   1.294   3.321  11.797  0.5473 -0.4156  0.2380
 5487TIP3    H137876   1.330   3.323  11.708 -0.6036 -1.9976 -0.3058
 5487TIP3    H237877   1.354   3.264  11.845  1.0506  0.2732  0.4565
 5488TIP3   OH237878   2.307   0.849  15.960  0.0655  0.5685 -0.2550
 5488TIP3    H137879   2.266   0.935  15.957  1.7941  1.3964 -1.1279
 5488TIP3    H237880   2.254   0.795  15.901 -1.1053  0.9594  0.4004
 5489TIP3   OH237881   2.514   3.767   5.032 -0.6035 -0.0043 -0.3319
 5489TIP3    H137882   2.539   3.848   5.077 -0.6950  0.8452 -1.7673
 5489TIP3    H237883   2.540   3.781   4.941 -0.0686 -1.8356 -0.4993
 5490TIP3   OH237884   1.390   3.074   6.391  0.3432 -0.4366 -0.1414
 5490TIP3    H137885   1.451   3.021   6.339  1.5253 -0.8642  1.6025
 5490TIP3    H237886   1.406   3.164   6.362 -1.5019 -0.8637 -2.9479
 5491TIP3   OH237887   5.853   4.972  13.210  0.0261 -0.0510  0.2335
 5491TIP3    H137888   5.763   4.980  13.177 -0.0014  1.3094  0.5662
 5491TIP3    H237889   5.881   5.063  13.223  1.2241 -0.4835  0.7504
 5492TIP3   OH237890   0.349   3.205  15.002  0.4125 -0.4197 -0.4566
 5492TIP3    H137891   0.346   3.172  15.091  0.5290 -1.1190 -0.7065
 5492TIP3    H237892   0.418   3.272  15.002 -0.7679  0.8542  0.3857
 5493TIP3   OH237893   5.113   0.855  12.074  0.4341 -0.3777  0.0371
 5493TIP3    H137894   5.156   0.792  12.016 -1.2346 -0.9701 -0.6334
 5493TIP3    H237895   5.130   0.822  12.162  1.5959 -0.4033 -0.1818
 5494TIP3   OH237896   6.236   0.042  11.841  0.7167  0.0957 -0.1999
 5494TIP3    H137897   6.183  -0.005  11.905  0.0663  0.5639 -0.3873
 5494TIP3    H237898   6.326   0.025  11.868  0.5801 -2.6190 -1.2184
 5495TIP3   OH237899   6.245   0.391  11.572  0.5323  0.5373 -0.2358
 5495TIP3    H137900   6.273   0.333  11.501  0.4621 -1.4281  1.2684
 5495TIP3    H237901   6.186   0.338  11.625 -1.0101  2.5823  0.2344
 5496TIP3   OH237902   1.039   2.462  14.473 -0.0054  0.0624 -0.1979
 5496TIP3    H137903   0.951   2.482  14.441 -0.1344 -0.0127  0.1032
 5496TIP3    H237904   1.098   2.514  14.417 -0.1384 -0.9846 -1.3446
 5497TIP3   OH237905   2.764   4.432  16.550 -0.1301 -0.8793  0.2520
 5497TIP3    H137906   2.825   4.410  16.479  1.1189  0.3715  0.8752
 5497TIP3    H237907   2.787   4.522  16.574 -0.5737 -1.2336  2.1820
 5498TIP3   OH237908   2.045   5.589   0.458 -0.4115  0.3415 -0.0326
 5498TIP3    H137909   2.106   5.564   0.527 -0.8851  0.2453  0.3554
 5498TIP3    H237910   2.025   5.507   0.412 -1.3318  0.1237  0.7268
 5499TIP3   OH237911   4.993   6.050  13.791 -0.1296 -0.2579 -0.1951
 5499TIP3    H137912   5.062   6.113  13.814 -0.2816  0.3147 -1.2500
 5499TIP3    H237913   5.041   5.975  13.756  0.0068 -0.3103  0.1009
 5500TIP3   OH237914   5.928   0.016   2.379 -0.4073  0.6054 -0.1062
 5500TIP3    H137915   5.921  -0.078   2.398  2.9370 -0.0499 -1.4170
 5500TIP3    H237916   5.934   0.020   2.284 -2.2084  2.3757 -0.1861
 5501TIP3   OH237917   4.615   2.438  14.856 -0.3283 -0.1915  0.7640
 5501TIP3    H137918   4.600   2.383  14.933  1.3533 -0.4744  0.9415
 5501TIP3    H237919   4.584   2.524  14.882 -0.1014 -0.3630  1.6438
 5502TIP3   OH237920   4.087   5.372   1.520  0.3942  0.6152  0.1543
 5502TIP3    H137921   4.158   5.310   1.504  1.0853  0.8673  2.0103
 5502TIP3    H237922   4.072   5.412   1.435 -0.1280 -2.0868 -1.1398
 5503TIP3   OH237923   2.225   3.165   6.190 -0.7758  0.3473  0.2655
 5503TIP3    H137924   2.254   3.129   6.273  3.1224  0.9717 -0.6551
 5503TIP3    H237925   2.216   3.259   6.206 -1.9421  0.2359  0.3895
 5504TIP3   OH237926   1.479   4.774  11.620 -0.2613  0.6254 -0.1206
 5504TIP3    H137927   1.394   4.757  11.581 -0.9794  0.6503  1.3556
 5504TIP3    H237928   1.511   4.853  11.576 -2.0625  1.9698  0.8669
 5505TIP3   OH237929   0.868   5.202  11.882  0.4388  0.3688  0.2111
 5505TIP3    H137930   0.815   5.201  11.802  1.7547 -0.4780 -0.6903
 5505TIP3    H237931   0.952   5.238  11.855  0.7414  0.5396  1.3358
 5506TIP3   OH237932   2.327   5.880  16.079  0.1437  0.3933  0.5343
 5506TIP3    H137933   2.384   5.951  16.108  1.5177 -0.1443 -0.7564
 5506TIP3    H237934   2.267   5.923  16.017  0.6293  0.5374  0.1576
 5507TIP3   OH237935   4.628   5.110   2.744  0.2295 -0.7011 -0.3060
 5507TIP3    H137936   4.651   5.165   2.819  2.8056  0.1373 -1.5963
 5507TIP3    H237937   4.700   5.122   2.682 -1.4021 -1.9619 -2.6097
 5508TIP3   OH237938   4.816   4.399   3.328 -0.6135 -0.1477  0.4322
 5508TIP3    H137939   4.893   4.342   3.329 -0.2265  0.2712 -1.5006
 5508TIP3    H237940   4.851   4.486   3.311 -1.3429  0.4411  1.8098
 5509TIP3   OH237941   4.846   3.829  16.228  0.0697  0.0174 -0.8319
 5509TIP3    H137942   4.846   3.778  16.146 -0.7494 -2.7277  0.7477
 5509TIP3    H237943   4.764   3.805  16.271  0.9301  0.6018  1.2612
 5510TIP3   OH237944   2.714   4.695  16.561 -0.2959  0.3672  0.4093
 5510TIP3    H137945   2.629   4.737  16.574 -1.1728 -0.4445 -2.0647
 5510TIP3    H237946   2.751   4.739  16.484  0.2509 -1.1254 -0.2262
 5511TIP3   OH237947   4.246   5.452  17.412  0.1912  0.4023 -0.3813
 5511TIP3    H137948   4.316   5.428  17.352  1.1237 -0.1395  0.8707
 5511TIP3    H237949   4.172   5.476  17.356  0.9993 -0.1688 -1.7177
 5512TIP3   OH237950   3.712   4.006  14.566  0.1876 -0.1160  0.4937
 5512TIP3    H137951   3.704   4.101  14.553 -1.1993 -0.4491 -1.4561
 5512TIP3    H237952   3.791   3.982  14.517 -0.6957 -0.2363 -0.9411
 5513TIP3   OH237953   0.502   4.700  10.801  0.0133 -0.7701  0.0506
 5513TIP3    H137954   0.555   4.770  10.762 -0.6088  0.4767  1.3768
 5513TIP3    H237955   0.446   4.669  10.729  1.4943 -1.1395 -1.0040
 5514TIP3   OH237956   5.911   2.194  12.979 -0.3113  0.4311  0.0008
 5514TIP3    H137957   5.916   2.099  12.974  0.1894  0.5187 -3.3521
 5514TIP3    H237958   6.002   2.224  12.977 -0.4328  1.0124  1.7402
 5515TIP3   OH237959   1.909   5.299   4.115 -0.1050 -0.6788 -0.1870
 5515TIP3    H137960   1.978   5.366   4.110 -0.2573 -0.5770 -1.0440
 5515TIP3    H237961   1.830   5.345   4.088 -0.5632 -0.7494  0.9698
 5516TIP3   OH237962   0.256   2.398  13.697  0.0342 -0.0905 -0.1967
 5516TIP3    H137963   0.199   2.349  13.638  0.1690  1.1811 -1.4400
 5516TIP3    H237964   0.328   2.338  13.716 -1.1125 -1.3061  0.4844
 5517TIP3   OH237965   0.985   1.391  16.970  0.0851  1.0111  0.2080
 5517TIP3    H137966   0.965   1.416  17.060 -1.9709  0.4146 -0.0331
 5517TIP3    H237967   0.920   1.323  16.949  0.4054  1.2603 -1.7790
 5518TIP3   OH237968   4.891   6.029  11.361 -0.0756 -0.3542  0.4913
 5518TIP3    H137969   4.880   6.072  11.276  0.3134  0.0201  0.6301
 5518TIP3    H237970   4.832   5.953  11.356 -0.4481 -0.0479  0.0875
 5519TIP3   OH237971   4.087   5.231  14.958  0.0606 -0.0786 -0.1806
 5519TIP3    H137972   4.042   5.189  14.885 -1.8613  2.8769 -0.8742
 5519TIP3    H237973   4.017   5.256  15.019  0.8362  2.8701 -0.3214
 5520TIP3   OH237974   3.458   3.945  14.484 -0.3749 -0.2327 -0.2833
 5520TIP3    H137975   3.539   3.897  14.468 -0.8313 -0.4152 -2.3354
 5520TIP3    H237976   3.482   4.011  14.549  1.5018 -0.0864 -1.0623
 5521TIP3   OH237977   0.437   3.286   4.381 -0.2435  0.3906 -0.0397
 5521TIP3    H137978   0.357   3.303   4.431 -1.1419 -1.3433 -0.8209
 5521TIP3    H237979   0.487   3.225   4.436  1.5450  2.8912  1.3487
 5522TIP3   OH237980   2.525   3.836   3.610 -0.0567 -0.4546 -0.3519
 5522TIP3    H137981   2.577   3.897   3.662  0.7918 -0.3794 -1.2777
 5522TIP3    H237982   2.484   3.778   3.675 -0.8568  1.0562  0.5376
 5523TIP3   OH237983   3.081   6.439  15.953 -0.3064  0.0274 -0.0815
 5523TIP3    H137984   3.040   6.355  15.973 -2.3951  0.0081 -3.5635
 5523TIP3    H237985   3.097   6.436  15.859  2.1058  2.5364  0.1125
 5524TIP3   OH237986   3.063   6.561   3.172 -0.0302 -0.0494  0.3251
 5524TIP3    H137987   3.074   6.633   3.111  0.5130  0.9221  1.5197
 5524TIP3    H237988   3.054   6.484   3.117  1.8418  0.5835 -0.9633
 5525TIP3   OH237989   0.968   6.229  14.625 -0.2742 -0.3020  0.2483
 5525TIP3    H137990   1.058   6.231  14.657 -0.8785 -0.2621  2.0611
 5525TIP3    H237991   0.975   6.250  14.532  1.3445  2.1583  0.8455
 5526TIP3   OH237992   0.006   0.808  13.862 -0.3189 -0.1504 -0.2359
 5526TIP3    H137993  -0.052   0.732  13.856  0.1393 -0.5779  0.5811
 5526TIP3    H237994   0.054   0.808  13.780 -1.3010  0.0727 -0.8256
 5527TIP3   OH237995   5.980   0.474  15.808  0.5049  0.4715 -0.3529
 5527TIP3    H137996   5.919   0.478  15.882 -0.1708 -1.0897 -0.7982
 5527TIP3    H237997   5.938   0.416  15.745  2.2161 -0.2081 -0.9123
 5528TIP3   OH237998   5.344   5.958  11.042  0.1711 -0.1827  0.0743
 5528TIP3    H137999   5.267   5.937  11.096  1.1106  0.3777  1.7000
 5528TIP3    H238000   5.318   5.933  10.953 -1.6756 -0.5504  0.6648
 5529TIP3   OH238001   5.792   3.295  10.658  0.1605  1.0572  0.9697
 5529TIP3    H138002   5.724   3.293  10.591 -0.5441  2.4259  1.5984
 5529TIP3    H238003   5.839   3.212  10.648 -0.7853  0.6532 -0.3107
 5530TIP3   OH238004   1.342   1.888   5.252  0.2474  0.2583  0.9693
 5530TIP3    H138005   1.253   1.879   5.216  0.3911 -1.5564  0.9696
 5530TIP3    H238006   1.328   1.908   5.344 -0.1174  2.9261  0.4282
 5531TIP3   OH238007   6.628   0.636   3.707  0.1350  0.1087 -0.3189
 5531TIP3    H138008   6.648   0.711   3.650 -1.4783  0.3827 -0.5773
 5531TIP3    H238009   6.545   0.602   3.673 -1.1374  0.5482  2.1079
 5532TIP3   OH238010   5.705   0.558  12.194  0.0584 -0.4548 -0.2325
 5532TIP3    H138011   5.751   0.605  12.124 -1.5215 -1.9211 -2.4362
 5532TIP3    H238012   5.768   0.494  12.226  1.0020  0.6285  0.1238
 5533TIP3   OH238013   1.325   3.852   5.051 -0.3034  0.7418 -0.1279
 5533TIP3    H138014   1.399   3.826   4.996 -1.0850 -0.5303 -0.6172
 5533TIP3    H238015   1.296   3.935   5.013  0.5763  1.0153 -0.2202
 5534TIP3   OH238016   4.048   1.747  12.395  0.1300 -0.3142  0.1295
 5534TIP3    H138017   3.958   1.717  12.383  0.9162 -2.7118 -0.3620
 5534TIP3    H238018   4.049   1.784  12.484 -1.0285 -1.6117  0.7216
 5535TIP3   OH238019   6.228   0.405   3.946  0.3598  0.5461 -0.6104
 5535TIP3    H138020   6.181   0.361   3.875 -0.6940 -0.3345  0.5762
 5535TIP3    H238021   6.317   0.416   3.913 -0.1796  0.4716 -2.1811
 5536TIP3   OH238022   0.136   3.082  10.398  0.3533  0.1968  0.3867
 5536TIP3    H138023   0.195   3.026  10.449 -0.0881  0.2626  0.9849
 5536TIP3    H238024   0.144   3.168  10.439  0.1748  0.3063  0.1905
 5537TIP3   OH238025   0.715   5.182  11.637  0.4811  0.4680 -0.3043
 5537TIP3    H138026   0.634   5.231  11.650 -0.1021 -0.0033 -1.9404
 5537TIP3    H238027   0.687   5.094  11.612  1.5104 -0.8781  2.8096
 5538TIP3   OH238028   5.626   3.553  10.957 -0.1851 -0.0287  0.2407
 5538TIP3    H138029   5.709   3.584  10.992 -0.6866  2.9873 -0.8731
 5538TIP3    H238030   5.644   3.535  10.864 -1.1302  3.1826 -0.7209
 5539TIP3   OH238031   5.476   5.785   0.606 -0.5268  0.9491 -0.4413
 5539TIP3    H138032   5.467   5.836   0.687 -0.8498  2.0914 -1.1776
 5539TIP3    H238033   5.504   5.699   0.636 -1.0300  1.2237  0.9296
 5540TIP3   OH238034   0.900   3.926  16.587 -0.0305  0.1170 -0.2630
 5540TIP3    H138035   0.837   3.873  16.539 -0.6086 -1.3331  1.9551
 5540TIP3    H238036   0.980   3.923  16.534 -0.7396 -1.0789 -1.3094
 5541TIP3   OH238037   0.215   0.414  16.148  0.3833  0.4343 -0.7300
 5541TIP3    H138038   0.232   0.368  16.066 -0.0975  1.3881 -1.3825
 5541TIP3    H238039   0.224   0.507  16.126 -0.2993  0.7287  0.1705
 5542TIP3   OH238040   0.399   3.556   1.743 -0.4143 -0.0377  0.8194
 5542TIP3    H138041   0.392   3.462   1.730 -2.0669  0.2091 -0.4532
 5542TIP3    H238042   0.387   3.594   1.655 -0.5755  1.3710  1.4109
 5543TIP3   OH238043   6.688   5.103   0.513 -0.1803  0.0516  0.2759
 5543TIP3    H138044   6.672   5.197   0.508  1.2505  0.2490 -1.8002
 5543TIP3    H238045   6.782   5.093   0.494 -0.8227 -1.9413 -2.4118
 5544TIP3   OH238046   4.738   6.290  15.243 -0.0819 -0.2020  0.2159
 5544TIP3    H138047   4.804   6.220  15.244  1.5240  1.2424  0.3610
 5544TIP3    H238048   4.725   6.310  15.150 -3.4266 -3.1514 -0.1669
 5545TIP3   OH238049   0.177   0.908   4.582  0.1357  0.3115 -0.1839
 5545TIP3    H138050   0.101   0.907   4.640  0.5037  2.5937  0.4473
 5545TIP3    H238051   0.145   0.872   4.499 -0.5823 -2.3787  1.1521
 5546TIP3   OH238052   3.636   1.126  13.811 -0.1428 -0.1911 -0.7119
 5546TIP3    H138053   3.632   1.059  13.879 -2.7646 -0.8102 -1.3591
 5546TIP3    H238054   3.590   1.201  13.848  1.3298  0.6836 -0.6042
 5547TIP3   OH238055   6.160   1.635   1.724 -0.2073 -0.4531 -0.2361
 5547TIP3    H138056   6.165   1.540   1.733 -2.4399 -0.4697  1.6493
 5547TIP3    H238057   6.135   1.649   1.632  0.8081 -1.6169 -0.7132
 5548TIP3   OH238058   1.666   0.038   5.107 -0.4448 -0.3109  0.0572
 5548TIP3    H138059   1.734   0.058   5.172  0.0236 -0.6403 -0.3269
 5548TIP3    H238060   1.624   0.122   5.090  0.0904 -0.0428  0.0447
 5549TIP3   OH238061   3.109   1.858  13.178  0.5193  0.0505 -0.8447
 5549TIP3    H138062   3.054   1.819  13.110  1.3686 -1.5793 -0.6627
 5549TIP3    H238063   3.064   1.837  13.260 -0.1271  1.3721 -0.8463
 5550TIP3   OH238064   4.784   1.367   0.367 -0.2630  0.1778  0.4389
 5550TIP3    H138065   4.824   1.454   0.372 -0.3345  0.2563 -0.3119
 5550TIP3    H238066   4.836   1.314   0.429  0.6043  0.4398 -0.0415
 5551TIP3   OH238067   0.586   6.030  11.900 -0.1173 -0.3580  0.5642
 5551TIP3    H138068   0.541   6.000  11.821  0.0071 -1.1229  0.7790
 5551TIP3    H238069   0.561   6.122  11.907 -1.9422 -0.8216  0.8623
 5552TIP3   OH238070   5.053   5.482   5.168  0.0358 -0.6006  0.6587
 5552TIP3    H138071   5.055   5.437   5.253 -2.1546 -1.4849  0.2961
 5552TIP3    H238072   5.053   5.411   5.104  2.8984  0.0508 -0.2167
 5553TIP3   OH238073   3.873   6.578   4.420  0.2232  0.0984  0.2918
 5553TIP3    H138074   3.845   6.650   4.363  1.1475  1.9853  2.1158
 5553TIP3    H238075   3.820   6.587   4.499  2.4938  0.7764  1.8283
 5554TIP3   OH238076   0.949   4.032  17.255 -0.2747 -0.0586  0.2714
 5554TIP3    H138077   0.994   4.017  17.171 -0.6091 -0.0302  0.0860
 5554TIP3    H238078   0.859   4.002  17.239 -0.1576 -0.7265  0.8426
 5555TIP3   OH238079   4.203   3.559  14.382  0.0938 -0.2979  0.5749
 5555TIP3    H138080   4.149   3.503  14.326  1.2179  0.2257 -1.1087
 5555TIP3    H238081   4.183   3.531  14.471 -0.9846 -1.8838 -0.1306
 5556TIP3   OH238082   0.668   4.535  13.772 -0.9018  0.0451 -0.5002
 5556TIP3    H138083   0.588   4.576  13.805 -0.1759 -0.2126  1.7843
 5556TIP3    H238084   0.717   4.606  13.732 -1.0817  0.7744  0.5380
 5557TIP3   OH238085   0.967   2.329  17.230 -0.3449  0.2503  0.4523
 5557TIP3    H138086   0.958   2.375  17.146  0.1818 -1.0782 -0.3559
 5557TIP3    H238087   0.877   2.308  17.255 -0.4559 -0.0657 -0.1932
 5558TIP3   OH238088   0.377   1.066  10.809 -0.4858 -0.1334 -0.7192
 5558TIP3    H138089   0.387   1.041  10.901 -0.9404  2.0460 -0.0273
 5558TIP3    H238090   0.365   1.161  10.811 -0.7281 -0.0637 -3.0272
 5559TIP3   OH238091   6.517   3.332   0.833  0.6059 -0.0123 -0.2803
 5559TIP3    H138092   6.566   3.270   0.887 -0.3173 -0.6382 -0.1428
 5559TIP3    H238093   6.461   3.277   0.779 -2.3754  0.6941  1.8490
 5560TIP3   OH238094   4.467   5.653   0.902 -0.1524 -0.1805 -0.0977
 5560TIP3    H138095   4.513   5.577   0.865 -1.5617 -2.3833  2.3519
 5560TIP3    H238096   4.396   5.615   0.954 -0.0351  2.7462  2.4746
 5561TIP3   OH238097   3.341   0.774  12.042 -0.0709  0.1321 -0.2085
 5561TIP3    H138098   3.405   0.828  12.088 -2.3174  1.7132  1.3339
 5561TIP3    H238099   3.391   0.729  11.975  2.1980  3.4392 -1.0093
 5562TIP3   OH238100   5.811   0.510   1.677 -0.4114  0.1852 -0.4898
 5562TIP3    H138101   5.892   0.523   1.628 -0.4459 -1.1265 -0.9071
 5562TIP3    H238102   5.743   0.502   1.611 -0.8865  1.1115 -0.1439
 5563TIP3   OH238103   4.651   4.774   3.274  0.3773 -0.3393 -0.0351
 5563TIP3    H138104   4.577   4.830   3.252 -0.7356 -0.9660  1.9046
 5563TIP3    H238105   4.641   4.697   3.217 -0.7930 -0.6480  0.5532
 5564TIP3   OH238106   4.507   5.970  13.786  0.3298  0.7074  0.0774
 5564TIP3    H138107   4.462   5.996  13.866 -0.2779  0.8472 -0.3020
 5564TIP3    H238108   4.451   6.002  13.715  1.3803  1.5198 -0.4196
 5565TIP3   OH238109   4.714   1.292   3.643  0.3046  0.5612  0.3849
 5565TIP3    H138110   4.623   1.318   3.661 -0.0618 -1.0388  1.0222
 5565TIP3    H238111   4.739   1.344   3.567 -1.0857  1.1716  0.3155
 5566TIP3   OH238112   4.046   5.968  11.135  0.4551 -0.7977 -0.2487
 5566TIP3    H138113   3.983   5.899  11.155  0.3647 -0.4720  0.6172
 5566TIP3    H238114   4.130   5.922  11.128  0.0606 -1.3241 -2.0154
 5567TIP3   OH238115   0.175   0.771  12.261  0.2438  0.7403 -0.6018
 5567TIP3    H138116   0.155   0.864  12.267 -1.0700  0.6308 -2.3581
 5567TIP3    H238117   0.155   0.748  12.170  1.0909 -1.1374 -0.3632
 5568TIP3   OH238118   5.533   5.394   5.988 -0.1557 -0.2381 -0.4126
 5568TIP3    H138119   5.458   5.383   5.929 -0.4403  0.4546 -0.1903
 5568TIP3    H238120   5.526   5.321   6.049 -1.2504  0.3791  0.2362
 5569TIP3   OH238121   0.710   6.147  17.243  0.0976 -0.0035 -0.2377
 5569TIP3    H138122   0.750   6.233  17.255  0.3323 -0.4048  2.7513
 5569TIP3    H238123   0.768   6.101  17.183  0.0778  1.7919 -1.7408
 5570TIP3   OH238124   2.202   1.996   5.818  0.1865  0.3346 -0.3018
 5570TIP3    H138125   2.153   2.064   5.772  0.3807 -0.7898 -2.2613
 5570TIP3    H238126   2.255   2.044   5.882 -1.1630  1.8234 -0.2403
 5571TIP3   OH238127   1.718   1.889  11.667 -0.0183  0.3595 -0.6259
 5571TIP3    H138128   1.717   1.796  11.644 -1.3433  0.0397  0.5939
 5571TIP3    H238129   1.762   1.893  11.751  0.0130  0.8442 -0.6593
 5572TIP3   OH238130   6.728   3.229  16.209  0.5290  0.1384  0.2826
 5572TIP3    H138131   6.816   3.202  16.235 -0.0367 -1.9962  0.2222
 5572TIP3    H238132   6.705   3.169  16.138 -0.4767  1.5528 -0.6387
 5573TIP3   OH238133   0.799   4.513  12.818 -0.2978  1.1255 -0.0498
 5573TIP3    H138134   0.709   4.505  12.850 -0.0436 -0.1447  0.3983
 5573TIP3    H238135   0.827   4.423  12.801  0.1037  1.6369 -2.4842
 5574TIP3   OH238136   0.085   0.296   3.629 -0.2304  0.2808  0.1196
 5574TIP3    H138137   0.070   0.307   3.535 -1.5133  1.2803  0.4062
 5574TIP3    H238138   0.148   0.225   3.635 -2.2525 -1.8276 -1.4488
 5575TIP3   OH238139   5.907   3.047  13.103  0.1358 -0.3506  0.2934
 5575TIP3    H138140   5.913   2.951  13.096 -1.3839 -0.5047  0.8113
 5575TIP3    H238141   5.944   3.067  13.188  2.2531 -0.2488 -0.5924
 5576TIP3   OH238142   1.952   2.441   2.614 -0.0120 -0.0994  0.3409
 5576TIP3    H138143   1.896   2.365   2.623 -0.6568  0.3085 -0.1559
 5576TIP3    H238144   1.934   2.474   2.526 -1.1046  1.6780  1.1759
 5577TIP3   OH238145   5.506   5.938  10.427 -0.1259 -0.4846 -0.2282
 5577TIP3    H138146   5.442   5.887  10.377  0.0069 -1.3797  0.4841
 5577TIP3    H238147   5.466   5.947  10.514  0.1985 -0.0291 -0.1200
 5578TIP3   OH238148   3.042   5.153  14.837 -0.2945  1.7715 -0.3959
 5578TIP3    H138149   3.071   5.210  14.908 -0.0448  0.1712  0.8533
 5578TIP3    H238150   3.123   5.121  14.797 -0.3899  0.9396  0.0562
 5579TIP3   OH238151   0.362   6.488   1.376  0.3293 -0.4252  0.4102
 5579TIP3    H138152   0.272   6.518   1.362 -0.0597 -1.2127  1.1300
 5579TIP3    H238153   0.416   6.553   1.331 -0.6174 -0.2274 -0.5042
 5580TIP3   OH238154   1.313   4.950  15.383  0.2699  0.0541 -0.7751
 5580TIP3    H138155   1.391   4.944  15.328  1.0212  0.7340  0.1792
 5580TIP3    H238156   1.302   4.862  15.419  1.5493  0.3021  0.3132
 5581TIP3   OH238157   0.186   2.806   1.945 -0.0762 -0.4765 -0.1947
 5581TIP3    H138158   0.234   2.859   1.882  0.0995 -0.3378  0.0538
 5581TIP3    H238159   0.142   2.739   1.892 -0.8957  0.3625 -0.5895
 5582TIP3   OH238160   3.154   3.329   2.840 -0.4716 -0.2301 -0.4187
 5582TIP3    H138161   3.242   3.362   2.826 -0.4958  0.6483  1.1746
 5582TIP3    H238162   3.165   3.235   2.852 -0.3616 -0.9678 -4.7128
 5583TIP3   OH238163   5.356   4.695  15.441 -0.0783 -0.4044 -0.0677
 5583TIP3    H138164   5.414   4.631  15.484  1.0943 -0.1158 -1.1660
 5583TIP3    H238165   5.305   4.643  15.379 -0.5316 -0.5576  0.4252
 5584TIP3   OH238166   5.311   6.063   3.003 -0.0772  0.1020 -0.0682
 5584TIP3    H138167   5.329   5.990   3.062 -1.1437  0.5837  0.8998
 5584TIP3    H238168   5.287   6.135   3.061  1.4767  1.4094 -0.9609
 5585TIP3   OH238169   4.784   0.454   0.290  0.2735  0.1454  0.3404
 5585TIP3    H138170   4.870   0.486   0.264  0.2243  0.0862  0.0930
 5585TIP3    H238171   4.799   0.365   0.319  0.4888  0.5531  1.5142
 5586TIP3   OH238172   2.353   2.226  12.371  0.1010 -0.0145  0.2139
 5586TIP3    H138173   2.336   2.245  12.464  1.4339  1.5418  0.1821
 5586TIP3    H238174   2.305   2.294  12.324 -1.4621 -1.4312 -0.3397
 5587TIP3   OH238175   3.269   5.309   6.696  0.4795 -0.0876 -0.8748
 5587TIP3    H138176   3.179   5.335   6.675 -0.9723 -3.3914  0.6090
 5587TIP3    H238177   3.304   5.275   6.613  0.1783  0.7000 -1.3318
 5588TIP3   OH238178   4.381   3.570   0.030  0.2058  0.2261  0.4665
 5588TIP3    H138179   4.456   3.525   0.068 -0.1329  0.1895  1.1006
 5588TIP3    H238180   4.374   3.651   0.081 -0.0816  0.3061  0.2994
 5589TIP3   OH238181   3.407   3.425  16.513  0.2281  0.4487  0.2397
 5589TIP3    H138182   3.374   3.370  16.584 -2.6210  0.5915 -0.8345
 5589TIP3    H238183   3.329   3.453  16.466  1.7673  3.1704 -0.9411
 5590TIP3   OH238184   5.682   1.604  17.128 -0.3076 -0.4767 -0.2313
 5590TIP3    H138185   5.704   1.647  17.046  1.2411  0.6251  0.7161
 5590TIP3    H238186   5.687   1.673  17.194  0.4786 -1.7206  1.0827
 5591TIP3   OH238187   3.821   0.272  11.568  0.1159 -0.1037 -0.3192
 5591TIP3    H138188   3.789   0.195  11.616 -1.3159  1.1718  0.8644
 5591TIP3    H238189   3.793   0.257  11.477 -0.1319 -0.9806 -0.1067
 5592TIP3   OH238190   5.310   2.131   5.538 -0.1193 -0.4553  0.3697
 5592TIP3    H138191   5.391   2.108   5.584  0.2561 -2.5358 -1.1412
 5592TIP3    H238192   5.256   2.052   5.545 -1.4366  0.4027  0.1443
 5593TIP3   OH238193   4.872   3.015  12.498 -0.1911  0.3300 -0.0990
 5593TIP3    H138194   4.858   3.032  12.591 -0.1056  1.1425 -0.2344
 5593TIP3    H238195   4.815   2.940  12.479  0.2072 -0.1967  0.7256
 5594TIP3   OH238196   4.351   5.297  12.340  0.5423 -0.3711  0.0059
 5594TIP3    H138197   4.396   5.221  12.376 -0.5518 -1.5271 -0.9838
 5594TIP3    H238198   4.289   5.322  12.407  0.8876 -0.3558  0.3238
 5595TIP3   OH238199   0.106   1.406  13.202  0.2645 -0.9692  0.1119
 5595TIP3    H138200   0.109   1.344  13.276 -2.0605 -1.4884 -0.1474
 5595TIP3    H238201   0.019   1.393  13.164  0.3857  1.2420 -1.0465
 5596TIP3   OH238202   0.355   5.113   5.159 -0.4676  0.2751 -0.2321
 5596TIP3    H138203   0.319   5.100   5.071 -1.6106  1.7121 -0.0086
 5596TIP3    H238204   0.437   5.159   5.145  0.6070 -1.6716 -0.6599
 5597TIP3   OH238205   0.297   6.028  13.008  0.1047 -0.3290 -0.1307
 5597TIP3    H138206   0.211   6.018  13.051  0.5887 -3.1229  0.3891
 5597TIP3    H238207   0.279   6.081  12.930 -2.1599 -1.0359 -0.1638
 5598TIP3   OH238208   6.557   5.614   2.377  0.0054 -0.1991  0.2973
 5598TIP3    H138209   6.626   5.569   2.328 -0.0876  0.8736 -0.8610
 5598TIP3    H238210   6.527   5.684   2.318 -2.0841 -0.6395  0.7689
 5599TIP3   OH238211   3.845   1.784   2.747 -0.1830 -0.1858 -0.6389
 5599TIP3    H138212   3.795   1.858   2.780  0.5006  1.4599 -3.0161
 5599TIP3    H238213   3.830   1.785   2.652  1.3273 -1.9673 -0.9608
 5600TIP3   OH238214   1.741   3.978   0.672 -0.0836  0.7269 -0.2170
 5600TIP3    H138215   1.660   3.951   0.628  0.8216 -0.4826 -1.2494
 5600TIP3    H238216   1.754   4.069   0.645 -1.6763  1.3434  0.9272
 5601TIP3   OH238217   2.991   2.780   3.022 -0.1803 -0.4071  0.0527
 5601TIP3    H138218   3.072   2.735   3.047 -0.5984 -0.9361  0.4718
 5601TIP3    H238219   2.933   2.711   2.991 -0.1529  0.0826 -1.1359
 5602TIP3   OH238220   4.958   3.265  12.417  0.6025 -0.2399 -0.0322
 5602TIP3    H138221   4.907   3.184  12.429  1.5240 -0.9744 -0.8673
 5602TIP3    H238222   5.036   3.237  12.370  0.8871  1.1770 -0.4474
 5603TIP3   OH238223   1.727   5.751  12.610 -0.2801 -0.0315  0.6248
 5603TIP3    H138224   1.753   5.825  12.556  0.6536 -0.9910 -0.2854
 5603TIP3    H238225   1.652   5.783  12.660 -0.4728  1.2275 -0.4160
 5604TIP3   OH238226   6.650   0.521   4.896 -0.1132 -0.4699  0.0223
 5604TIP3    H138227   6.633   0.427   4.886 -1.1420 -0.2424 -0.5516
 5604TIP3    H238228   6.576   0.552   4.948  0.5449 -0.0760  0.7392
 5605TIP3   OH238229   6.347   3.608  16.239  0.0496  0.0110 -0.1382
 5605TIP3    H138230   6.290   3.569  16.306  0.4648  0.0415  0.2360
 5605TIP3    H238231   6.429   3.559  16.245  0.0738 -0.0204 -0.6640
 5606TIP3   OH238232   3.324   2.824  14.830 -0.2765  0.3174  0.5304
 5606TIP3    H138233   3.292   2.789  14.747  2.6642  1.3842 -1.2150
 5606TIP3    H238234   3.320   2.750  14.890 -2.8480 -0.3975 -0.3653
 5607TIP3   OH238235   2.241   2.282   2.683 -0.4111 -0.3184  0.1029
 5607TIP3    H138236   2.165   2.291   2.740 -0.2267 -0.7230  0.4157
 5607TIP3    H238237   2.208   2.238   2.605 -1.2228  2.4458 -1.2365
 5608TIP3   OH238238   6.132   3.084  17.140 -0.5610  0.2263 -0.1861
 5608TIP3    H138239   6.116   3.165  17.091 -1.2528  2.1392  2.9216
 5608TIP3    H238240   6.061   3.026  17.113 -1.5476  1.5981 -0.6865
 5609TIP3   OH238241   5.753   5.140  14.533 -0.0855  0.1461  0.1397
 5609TIP3    H138242   5.763   5.230  14.500 -0.3554  0.3392  0.5795
 5609TIP3    H238243   5.711   5.150  14.618 -0.5261 -0.4280 -0.0037
 5610TIP3   OH238244   3.776   6.154  14.424  0.1443  0.0901  0.3547
 5610TIP3    H138245   3.711   6.196  14.480 -1.1585 -2.0772  0.5783
 5610TIP3    H238246   3.754   6.185  14.336  0.1633  1.0071  0.6600
 5611TIP3   OH238247   3.316   4.474   3.790 -0.3735  0.0901 -0.1404
 5611TIP3    H138248   3.257   4.534   3.837 -0.8711 -0.4191 -0.1026
 5611TIP3    H238249   3.258   4.405   3.757 -0.1187  0.7233 -2.0107
 5612TIP3   OH238250   1.642   3.483   0.049  0.5778 -0.2502  0.4171
 5612TIP3    H138251   1.650   3.574   0.020  1.2777  0.1086  1.6420
 5612TIP3    H238252   1.647   3.431  -0.031  1.1805  0.7465 -0.2146
 5613TIP3   OH238253   6.245   3.427   3.000  0.4236  0.2965  0.9490
 5613TIP3    H138254   6.155   3.422   2.965  0.0726 -0.0730  1.8798
 5613TIP3    H238255   6.273   3.336   3.009  0.5950  0.3918  1.4062
 5614TIP3   OH238256   2.146   6.000  15.091 -0.2200  0.4266  0.9555
 5614TIP3    H138257   2.117   5.931  15.150  1.0862 -0.1909  0.9237
 5614TIP3    H238258   2.193   6.062  15.148  0.2263  0.3116  0.7211
 5615TIP3   OH238259   4.628   0.991   2.878  0.2373  0.2335  0.1335
 5615TIP3    H138260   4.533   0.997   2.866 -0.0646  0.5609  2.2578
 5615TIP3    H238261   4.665   1.031   2.799 -1.4263  1.7591  0.0702
 5616TIP3   OH238262   4.033   1.407   2.265  0.1481  0.0352 -0.1399
 5616TIP3    H138263   4.029   1.335   2.328 -0.7796 -1.9050 -2.2728
 5616TIP3    H238264   4.123   1.404   2.231  0.1921  0.0760 -0.0279
 5617TIP3   OH238265   3.173   3.127   4.470 -0.4465  0.1589  0.1176
 5617TIP3    H138266   3.214   3.042   4.486  1.2747  1.0595  0.7747
 5617TIP3    H238267   3.112   3.138   4.543  0.6122  0.2179  1.0318
 5618TIP3   OH238268   1.323   3.872  14.194  0.3112  0.6026  0.1707
 5618TIP3    H138269   1.291   3.807  14.257  0.8417  0.0549 -0.1222
 5618TIP3    H238270   1.293   3.840  14.109 -0.0891  1.1531  0.0937
 5619TIP3   OH238271   1.975   0.925   4.793  0.3443 -0.0490 -0.0756
 5619TIP3    H138272   1.916   0.970   4.853 -2.0856 -0.0704 -2.2394
 5619TIP3    H238273   1.954   0.832   4.805  0.4509 -0.1075 -0.3395
 5620TIP3   OH238274   3.110   1.059   3.030 -0.1018 -0.6669 -0.3860
 5620TIP3    H138275   3.046   1.130   3.034 -0.0149 -0.5392 -1.1292
 5620TIP3    H238276   3.191   1.102   3.002  0.1268 -0.9523 -0.1692
 5621TIP3   OH238277   2.537   0.769  16.657 -0.5960  0.3552  0.3590
 5621TIP3    H138278   2.506   0.823  16.730 -1.9450  1.5826 -1.0263
 5621TIP3    H238279   2.472   0.699  16.649 -0.2322 -0.0120  0.5753
 5622TIP3   OH238280   0.950   2.597  13.308 -0.1491  0.0010  0.2440
 5622TIP3    H138281   1.005   2.540  13.254 -1.2130 -0.9021  0.0741
 5622TIP3    H238282   0.937   2.547  13.389 -0.9971  0.0438  0.1414
 5623TIP3   OH238283   4.060   0.262  15.933  0.2176 -0.2706 -0.5427
 5623TIP3    H138284   4.151   0.266  15.903 -0.3263  0.3623 -2.2264
 5623TIP3    H238285   4.063   0.206  16.011  1.8845 -1.1453 -1.1745
 5624TIP3   OH238286   3.788   5.752  15.499  0.1886 -0.2535  0.0242
 5624TIP3    H138287   3.847   5.711  15.435  1.8642 -0.0358  1.3463
 5624TIP3    H238288   3.708   5.771  15.450  1.2396 -0.5029 -1.8704
 5625TIP3   OH238289   1.590   2.986  16.916  0.6693 -0.7398  0.5524
 5625TIP3    H138290   1.544   2.913  16.875  0.5257 -0.1583 -0.3488
 5625TIP3    H238291   1.544   3.064  16.885  2.8681 -0.0554 -1.2831
 5626TIP3   OH238292   5.918   6.036  15.231  0.0968  0.0360 -0.1645
 5626TIP3    H138293   5.921   6.089  15.152 -1.6474 -0.3296 -0.4972
 5626TIP3    H238294   5.846   5.975  15.218  1.0990 -1.4611  0.8352
 5627TIP3   OH238295   1.922   6.356   5.112 -0.4318  0.2611  0.3483
 5627TIP3    H138296   1.890   6.275   5.072 -0.3961  0.1365  0.5708
 5627TIP3    H238297   1.844   6.410   5.125 -0.8903 -0.8775  2.8382
 5628TIP3   OH238298   1.212   5.535   3.456 -0.7277  0.6798 -0.3301
 5628TIP3    H138299   1.214   5.622   3.494  0.0108  0.8219 -0.6827
 5628TIP3    H238300   1.303   5.508   3.453 -0.7193  0.8047 -2.2892
 5629TIP3   OH238301   4.036   2.901   1.015  0.0012  0.4420  0.3024
 5629TIP3    H138302   4.051   2.809   0.993  0.8701  0.5259  0.5166
 5629TIP3    H238303   4.121   2.933   1.044 -0.7506  0.6846  2.4818
 5630TIP3   OH238304   5.961   2.419  11.349 -0.1724 -0.4063  0.6702
 5630TIP3    H138305   5.889   2.412  11.412  1.1951 -3.0926  2.1126
 5630TIP3    H238306   5.937   2.357  11.280  1.5031 -2.8624  2.1254
 5631TIP3   OH238307   4.600   1.081   1.434 -0.7733  0.2411 -0.0118
 5631TIP3    H138308   4.570   1.139   1.504 -1.2741  2.5859 -2.0117
 5631TIP3    H238309   4.693   1.101   1.424 -0.4044 -1.0175  0.7885
 5632TIP3   OH238310   1.897   1.384   6.661  0.4499 -0.3748  0.0145
 5632TIP3    H138311   1.848   1.366   6.741  0.2573 -0.0965 -0.0407
 5632TIP3    H238312   1.902   1.299   6.616 -0.8355 -0.2166 -0.4610
 5633TIP3   OH238313   3.873   4.083   4.128 -0.4556 -0.3659  0.1635
 5633TIP3    H138314   3.963   4.061   4.150  0.1900  0.1571 -1.7713
 5633TIP3    H238315   3.822   4.006   4.155  0.8767 -1.5960 -0.7177
 5634TIP3   OH238316   6.135   2.062   5.300  0.0490  0.0852  0.3304
 5634TIP3    H138317   6.143   2.155   5.318  2.5820 -0.4560  2.8812
 5634TIP3    H238318   6.215   2.023   5.338 -0.6266 -3.0589 -1.1005
 5635TIP3   OH238319   2.606   6.303  16.669  0.2348 -0.3840 -0.2477
 5635TIP3    H138320   2.640   6.364  16.603  1.5303  0.8187  1.4310
 5635TIP3    H238321   2.512   6.319  16.671  0.1780 -0.4336 -1.7647
 5636TIP3   OH238322   4.234   4.023   1.158 -0.8165 -0.5101 -0.3506
 5636TIP3    H138323   4.148   3.984   1.172 -0.7294 -0.1527  1.2923
 5636TIP3    H238324   4.216   4.107   1.115 -1.3744  0.0875  1.0187
 5637TIP3   OH238325   2.637   4.994   2.025  0.4886 -0.0442  0.8566
 5637TIP3    H138326   2.587   5.075   2.034  0.1064 -0.2815  0.8599
 5637TIP3    H238327   2.704   5.000   2.094 -0.5934 -0.4976  1.9792
 5638TIP3   OH238328   6.537   1.814  13.579 -0.2862 -0.5212 -0.1488
 5638TIP3    H138329   6.442   1.809  13.582 -0.2583 -0.6784  1.3728
 5638TIP3    H238330   6.562   1.851  13.664  1.0122 -0.6260 -0.4641
 5639TIP3   OH238331   4.887   2.713  11.566 -0.3749  0.9456 -0.1488
 5639TIP3    H138332   4.811   2.706  11.623  0.2736  0.8708  0.7174
 5639TIP3    H238333   4.944   2.777  11.608  0.1917  0.7645 -0.6142
 5640TIP3   OH238334   4.417   4.130   4.992  0.4362  0.0677  0.1314
 5640TIP3    H138335   4.326   4.110   4.971  0.3697  0.4955  0.0052
 5640TIP3    H238336   4.430   4.093   5.080 -0.4164  1.6142  0.9580
 5641TIP3   OH238337   5.443   1.542  16.627  0.3928 -0.2230 -0.2496
 5641TIP3    H138338   5.361   1.497  16.607 -0.4498  0.7619  0.8574
 5641TIP3    H238339   5.508   1.498  16.572 -1.1338  0.0060 -2.3731
 5642TIP3   OH238340   1.768   1.885   3.758  0.4803 -0.0961 -0.4882
 5642TIP3    H138341   1.718   1.960   3.790 -0.4794 -0.3736 -1.2803
 5642TIP3    H238342   1.852   1.891   3.803  0.4176  1.4447 -0.5231
 5643TIP3   OH238343   0.364   2.179   2.771  0.0130 -0.2856  0.5514
 5643TIP3    H138344   0.431   2.136   2.718 -1.2492 -1.3961 -0.1917
 5643TIP3    H238345   0.340   2.115   2.837  0.2705  0.4252  1.3522
 5644TIP3   OH238346   1.922   3.738  15.282  0.6055 -0.3851  0.1416
 5644TIP3    H138347   1.985   3.669  15.259  1.2867  0.2478  0.0728
 5644TIP3    H238348   1.923   3.739  15.378 -0.3851 -1.3422  0.1830
 5645TIP3   OH238349   1.103   3.796  14.413 -0.9295 -0.0009 -0.4875
 5645TIP3    H138350   1.039   3.840  14.469 -0.2730  0.3329  0.0259
 5645TIP3    H238351   1.052   3.761  14.340 -1.7674 -0.2349  0.1943
 5646TIP3   OH238352   0.923   5.889   2.687 -0.2669 -0.1241  0.5169
 5646TIP3    H138353   0.928   5.869   2.594 -0.1999  0.7773  0.3192
 5646TIP3    H238354   0.990   5.834   2.728  1.7901  1.6064 -0.3464
 5647TIP3   OH238355   5.765   0.446   6.097  0.7065 -1.0532  0.4668
 5647TIP3    H138356   5.823   0.509   6.056 -0.7194 -0.5460 -0.8495
 5647TIP3    H238357   5.824   0.390   6.149  2.1122  0.6450  0.8076
 5648TIP3   OH238358   3.036   0.032  14.656 -0.2885  0.5144 -0.0639
 5648TIP3    H138359   3.026   0.080  14.574 -1.8228  0.8204  0.2759
 5648TIP3    H238360   2.950   0.036  14.697 -0.2461 -1.7415  0.4100
 5649TIP3   OH238361   3.963   1.620   0.942 -0.0933  0.0595 -0.2668
 5649TIP3    H138362   4.042   1.569   0.963  1.0008  1.4914 -0.7739
 5649TIP3    H238363   3.897   1.589   1.004  1.3841  0.1082  1.3949
 5650TIP3   OH238364   1.940   3.029  13.696  0.7965 -0.3628 -0.6579
 5650TIP3    H138365   1.979   2.982  13.770  3.4944  1.7493 -0.5756
 5650TIP3    H238366   1.986   2.994  13.619  1.2229  0.5276 -0.8225
 5651TIP3   OH238367   0.036   1.423  16.654  0.0635  0.0608  0.2877
 5651TIP3    H138368   0.012   1.382  16.738 -0.3991  0.4183  0.3375
 5651TIP3    H238369  -0.019   1.502  16.650  1.2820  0.9426  0.4191
 5652TIP3   OH238370   5.912   5.113   1.158  0.2722 -0.2529 -0.4169
 5652TIP3    H138371   5.960   5.167   1.220 -1.1382 -0.9680  1.3767
 5652TIP3    H238372   5.973   5.042   1.136  2.7766  2.5934 -4.0189
 5653TIP3   OH238373   1.847   5.048  16.035 -0.0414 -0.4761  0.1893
 5653TIP3    H138374   1.895   4.972  16.068  2.0672  1.4199  1.8738
 5653TIP3    H238375   1.893   5.123  16.073 -1.2702  1.7137 -2.3432
 5654TIP3   OH238376   2.476   2.109  16.467 -0.3360  0.0132  0.1537
 5654TIP3    H138377   2.385   2.106  16.496 -0.5366 -0.5457 -0.5111
 5654TIP3    H238378   2.485   2.195  16.425 -1.0886 -0.6480 -1.4393
 5655TIP3   OH238379   4.534   6.448   3.025 -0.3996  0.1567 -0.8370
 5655TIP3    H138380   4.509   6.481   3.111 -0.7492  1.2235 -1.3381
 5655TIP3    H238381   4.615   6.399   3.041 -0.2350  0.6936  0.0228
 5656TIP3   OH238382   4.846   5.949  14.069  0.0098  0.4976  0.7964
 5656TIP3    H138383   4.914   5.994  14.018  1.0520  0.0623  1.7453
 5656TIP3    H238384   4.812   5.882  14.010  2.4059 -1.1546  1.1265
 5657TIP3   OH238385   4.311   1.056   0.701 -0.4256  0.2882  0.4732
 5657TIP3    H138386   4.234   1.077   0.754 -1.5718 -1.3347 -0.4717
 5657TIP3    H238387   4.287   0.976   0.654  0.8539  1.1584 -1.8388
 5658TIP3   OH238388   3.973   1.375  12.095  0.2576  0.1266  0.1484
 5658TIP3    H138389   3.880   1.400  12.091  0.6189  1.6430  0.5009
 5658TIP3    H238390   4.000   1.396  12.184  0.5585 -1.8676  0.5691
 5659TIP3   OH238391   6.105   4.221   3.016  0.1825  0.4250  0.1877
 5659TIP3    H138392   6.043   4.230   3.089  1.4400 -1.3542  1.5613
 5659TIP3    H238393   6.052   4.237   2.938 -1.8309 -0.1744  1.3414
 5660TIP3   OH238394   4.422   5.944   3.294  0.4390 -0.1427 -0.1712
 5660TIP3    H138395   4.383   5.959   3.380  0.4977  0.1473 -0.1946
 5660TIP3    H238396   4.440   5.850   3.292  0.1137 -0.2086 -0.0054
 5661TIP3   OH238397   0.449   1.967   6.126  0.1482  0.0502 -0.3433
 5661TIP3    H138398   0.436   2.014   6.208  0.3406 -0.2291 -0.1506
 5661TIP3    H238399   0.539   1.988   6.100 -0.7977  2.5193 -2.0176
 5662TIP3   OH238400   4.495   1.759  16.320 -0.1316 -0.4905  0.9535
 5662TIP3    H138401   4.411   1.757  16.273  0.2540  0.2149  0.2104
 5662TIP3    H238402   4.501   1.673  16.361  0.1478 -1.7017 -1.4189
 5663TIP3   OH238403   0.631   0.816   0.432 -0.7299 -0.4894  0.1403
 5663TIP3    H138404   0.549   0.773   0.456  0.3602 -1.6356  2.1730
 5663TIP3    H238405   0.687   0.744   0.402  0.2434 -0.1002  0.9575
 5664TIP3   OH238406   4.418   2.197  12.906  0.2460  0.6177 -0.0801
 5664TIP3    H138407   4.357   2.234  12.970 -0.1573  0.6671 -0.4922
 5664TIP3    H238408   4.412   2.102  12.920  0.7733  0.6646  0.5115
 5665TIP3   OH238409   4.048   4.433  12.395  0.3787  0.1297 -0.0818
 5665TIP3    H138410   4.051   4.514  12.446  0.7609 -0.1849  0.4024
 5665TIP3    H238411   3.958   4.402  12.405 -0.2486  1.3135 -1.5906
 5666TIP3   OH238412   1.865   3.670  13.416  0.3147 -0.4908 -0.3568
 5666TIP3    H138413   1.816   3.738  13.369 -1.5259 -1.4213  0.1134
 5666TIP3    H238414   1.798   3.620  13.462  1.8425 -1.0783  1.3702
 5667TIP3   OH238415   1.045   4.740  16.080 -0.0941  0.5368 -0.6268
 5667TIP3    H138416   0.954   4.730  16.051  0.1320 -1.4935 -0.7827
 5667TIP3    H238417   1.039   4.748  16.175 -0.4719  1.1503 -0.6988
 5668TIP3   OH238418   1.267   3.410  10.697 -0.3357  0.2662 -0.3748
 5668TIP3    H138419   1.268   3.459  10.614 -1.4180  0.0500 -0.5404
 5668TIP3    H238420   1.173   3.399  10.716 -0.1024 -0.9509  0.1300
 5669TIP3   OH238421   1.215   0.364   2.162 -0.3362 -0.1416  0.1568
 5669TIP3    H138422   1.214   0.342   2.255  2.3581 -0.2339  0.2423
 5669TIP3    H238423   1.124   0.354   2.134 -1.4062  0.8547  2.9659
 5670TIP3   OH238424   4.670   2.130   0.540 -0.5313 -0.2711 -0.1072
 5670TIP3    H138425   4.671   2.098   0.630  0.7378 -0.2910 -0.1186
 5670TIP3    H238426   4.672   2.051   0.486 -1.5074 -0.2674 -0.1756
 5671TIP3   OH238427   1.517   2.052  11.568  0.3117 -0.5128  0.1173
 5671TIP3    H138428   1.608   2.044  11.598  0.2591 -0.3095  0.3287
 5671TIP3    H238429   1.488   1.961  11.559  0.3651 -0.5752  0.5682
 5672TIP3   OH238430   1.328   3.181  16.660  0.1712 -0.0860  0.2451
 5672TIP3    H138431   1.310   3.115  16.593  0.4484  0.1539 -0.0698
 5672TIP3    H238432   1.423   3.176  16.674 -0.0321 -0.9101  1.4384
 5673TIP3   OH238433   3.646   3.802  11.529  0.0683 -0.4810  0.0752
 5673TIP3    H138434   3.664   3.794  11.435 -2.0912  0.7901 -0.5128
 5673TIP3    H238435   3.558   3.768  11.540  0.3283 -0.7290  1.6991
 5674TIP3   OH238436   6.594   4.845   3.850 -0.8601  0.5143 -0.5268
 5674TIP3    H138437   6.558   4.917   3.902 -1.1455  0.6123 -0.8524
 5674TIP3    H238438   6.517   4.793   3.825 -0.6667  0.1570 -0.3866
 5675TIP3   OH238439   5.378   6.713   1.570 -0.7156 -0.3090 -0.0667
 5675TIP3    H138440   5.336   6.719   1.484 -0.1623  0.5081 -0.2888
 5675TIP3    H238441   5.452   6.774   1.565  0.3685 -1.5533  0.4018
 5676TIP3   OH238442   6.191   0.968  13.009 -0.4164 -0.2807  0.8984
 5676TIP3    H138443   6.107   0.935  12.979 -0.1226  0.3499 -0.7078
 5676TIP3    H238444   6.170   1.053  13.049 -0.3659  0.7688 -1.1909
 5677TIP3   OH238445   0.457   4.968   2.133  0.0200 -0.3360  0.2247
 5677TIP3    H138446   0.551   4.958   2.141  0.0522 -0.8262 -0.5864
 5677TIP3    H238447   0.422   4.942   2.218  0.5740 -0.8487  0.2988
 5678TIP3   OH238448   1.008   6.489  17.240 -0.2182  0.7143  0.2507
 5678TIP3    H138449   1.046   6.574  17.262 -1.7759  1.4645  0.1825
 5678TIP3    H238450   0.922   6.490  17.283  0.7847 -1.9608  2.6428
 5679TIP3   OH238451   2.846   5.279  11.978 -0.4243  0.0816 -0.2727
 5679TIP3    H138452   2.767   5.332  11.978 -0.1466  0.5103 -1.0910
 5679TIP3    H238453   2.918   5.342  11.974  0.0885 -0.1845  2.5194
 5680TIP3   OH238454   4.071   6.441  15.889  0.3969  0.1747 -0.2213
 5680TIP3    H138455   3.983   6.462  15.920  0.6208  2.6378 -1.0789
 5680TIP3    H238456   4.060   6.356  15.846 -1.3874  0.0600  0.3415
 5681TIP3   OH238457   5.268   6.100   2.497 -0.3591 -0.3249 -0.3460
 5681TIP3    H138458   5.301   6.097   2.587  0.9859 -1.9223 -0.8395
 5681TIP3    H238459   5.308   6.178   2.459 -1.4167  0.6986  0.5949
 5682TIP3   OH238460   3.831   3.981   3.369  0.6605 -0.1442  0.0411
 5682TIP3    H138461   3.863   4.070   3.385  0.0304 -0.0742  1.0161
 5682TIP3    H238462   3.745   3.979   3.411  1.9666 -2.1661  2.9304
 5683TIP3   OH238463   1.294   4.126  12.252 -0.0816  0.1725 -0.5584
 5683TIP3    H138464   1.362   4.192  12.238 -1.2582  1.3187 -1.0616
 5683TIP3    H238465   1.313   4.059  12.186  1.9952 -0.7909  0.9043
 5684TIP3   OH238466   4.212   3.852   3.410 -0.2744  0.2000 -0.2058
 5684TIP3    H138467   4.212   3.769   3.458 -1.3647 -0.1967 -0.8646
 5684TIP3    H238468   4.163   3.834   3.330 -0.9855  1.6089 -0.1215
 5685TIP3   OH238469   4.222   5.486  15.477 -0.1609 -0.1806  0.3343
 5685TIP3    H138470   4.182   5.505  15.392 -1.8959 -3.9576  0.1125
 5685TIP3    H238471   4.164   5.422  15.517  0.8769  1.0694  4.2333
 5686TIP3   OH238472   0.332   1.759   1.027  0.1688  0.0674 -0.1426
 5686TIP3    H138473   0.383   1.815   0.969 -2.0628  0.3577 -1.9701
 5686TIP3    H238474   0.315   1.680   0.975 -1.5543  0.1651  0.2181
 5687TIP3   OH238475   4.020   3.300   4.268  0.2837  0.0731 -0.0689
 5687TIP3    H138476   4.057   3.268   4.185  1.7818  1.0335  0.1759
 5687TIP3    H238477   3.934   3.259   4.274  0.8447 -1.3683 -1.2707
 5688TIP3   OH238478   4.549   4.646  17.039  0.0601  0.1222 -0.5369
 5688TIP3    H138479   4.508   4.622  16.956 -0.8175  2.7055 -0.9310
 5688TIP3    H238480   4.497   4.599  17.105 -0.1652 -0.7883 -1.3364
 5689TIP3   OH238481   1.292   3.946   2.354 -0.8156 -0.2003  0.2924
 5689TIP3    H138482   1.197   3.943   2.346 -1.0304  1.0806  1.7675
 5689TIP3    H238483   1.310   3.912   2.442 -0.2434  2.5093  1.3413
 5690TIP3   OH238484   2.594   1.895   1.636  0.0744  0.4221 -0.8037
 5690TIP3    H138485   2.507   1.883   1.674  0.3095  0.3168 -0.2825
 5690TIP3    H238486   2.643   1.818   1.665  0.7493  1.1679  0.0865
 5691TIP3   OH238487   2.928   6.381   5.852  0.5542 -0.2334 -0.4312
 5691TIP3    H138488   2.889   6.418   5.930 -1.1183 -1.5702 -0.5741
 5691TIP3    H238489   3.010   6.342   5.882 -0.5407 -1.6411  0.9297
 5692TIP3   OH238490   6.439   4.588  15.505  0.1367  0.1328 -0.7241
 5692TIP3    H138491   6.463   4.679  15.490 -2.2844  1.2208  1.1745
 5692TIP3    H238492   6.358   4.577  15.455  1.2600 -1.5523 -2.2714
 5693TIP3   OH238493   5.020   4.566  16.909 -0.4614  0.0421  0.3423
 5693TIP3    H138494   4.975   4.640  16.950 -3.6955 -0.6343 -1.5701
 5693TIP3    H238495   4.951   4.500  16.897  1.7543 -2.3688 -0.1788
 5694TIP3   OH238496   0.396   5.576   5.768 -0.0220 -0.1373 -0.3099
 5694TIP3    H138497   0.316   5.600   5.721 -0.2395 -2.0615 -1.0085
 5694TIP3    H238498   0.390   5.625   5.851 -1.4998  0.4115 -0.6991
 5695TIP3   OH238499   0.357   6.657  13.435  0.5048 -0.0481  0.3734
 5695TIP3    H138500   0.342   6.583  13.377 -3.1645 -0.0182  1.0878
 5695TIP3    H238501   0.384   6.619  13.518 -1.1050 -0.6196  0.6585
 5696TIP3   OH238502   5.718   4.854  14.005 -0.0719  0.2168 -0.3500
 5696TIP3    H138503   5.702   4.818  13.917  2.7155  1.4111 -1.4779
 5696TIP3    H238504   5.746   4.778  14.057 -0.1838 -0.2524 -0.9656
 5697TIP3   OH238505   2.840   4.449   5.510  0.4539 -0.4217 -0.0980
 5697TIP3    H138506   2.855   4.387   5.581 -2.7783 -0.9258  0.2967
 5697TIP3    H238507   2.811   4.394   5.437 -1.9876  0.4685  0.1019
 5698TIP3   OH238508   2.308   5.583   5.340 -0.1490  0.4220 -0.2040
 5698TIP3    H138509   2.348   5.650   5.286  0.9687  0.0645  0.1470
 5698TIP3    H238510   2.368   5.508   5.335 -1.6502 -0.7981 -1.0634
 5699TIP3   OH238511   0.458   4.878  13.137 -0.4109  0.1397  0.3109
 5699TIP3    H138512   0.516   4.857  13.211 -0.6202  0.6187  0.6202
 5699TIP3    H238513   0.515   4.879  13.061 -0.1736 -0.2750  0.4818
 5700TIP3   OH238514   2.949   5.918  10.898  0.4257  0.4733 -0.0695
 5700TIP3    H138515   2.866   5.942  10.941 -1.4296 -2.0829 -1.9561
 5700TIP3    H238516   2.977   5.999  10.855 -0.4186  1.7143  1.5676
 5701TIP3   OH238517   5.685   6.373  14.015  0.4909  0.0503  0.9968
 5701TIP3    H138518   5.745   6.364  13.941 -2.0213 -2.3647 -0.9284
 5701TIP3    H238519   5.708   6.458  14.054  0.6946  2.4530 -3.6933
 5702TIP3   OH238520   4.997   3.248   1.861 -0.3035  0.8261 -0.4111
 5702TIP3    H138521   5.080   3.238   1.815 -0.0033  0.4375  0.1977
 5702TIP3    H238522   5.012   3.320   1.923 -0.2324  0.4004  0.0804
 5703TIP3   OH238523   4.254   3.312   4.898  0.1045 -0.3369 -0.2444
 5703TIP3    H138524   4.183   3.297   4.835  2.1939 -0.9939 -2.6258
 5703TIP3    H238525   4.325   3.257   4.866  0.8124 -2.0552  3.7599
 5704TIP3   OH238526   4.190   3.557   5.816 -0.1220  0.5444  0.5961
 5704TIP3    H138527   4.097   3.580   5.819 -0.2363  0.0543  0.7517
 5704TIP3    H238528   4.201   3.491   5.884  0.3738  0.7107  0.6830
 5705TIP3   OH238529   6.339   3.639  16.617 -0.0937  0.7530  0.1127
 5705TIP3    H138530   6.330   3.686  16.534 -1.5607  2.1232  1.0068
 5705TIP3    H238531   6.353   3.707  16.682  1.2309 -0.3170  1.0038
 5706TIP3   OH238532   1.666   1.472  16.808  0.2894 -0.0121 -0.0131
 5706TIP3    H138533   1.614   1.495  16.884 -0.4113 -0.5807 -0.3068
 5706TIP3    H238534   1.602   1.449  16.741  0.8901  0.7912 -0.8787
 5707TIP3   OH238535   1.646   2.109   5.036  0.5324  0.2057  0.3306
 5707TIP3    H138536   1.646   2.025   5.082 -1.3664  0.5835  1.0848
 5707TIP3    H238537   1.579   2.100   4.969  1.6827  0.4773 -0.9129
 5708TIP3   OH238538   6.581   2.796  10.902 -0.7179  0.2786  0.4648
 5708TIP3    H138539   6.617   2.877  10.866 -1.1940  0.8983  1.3501
 5708TIP3    H238540   6.645   2.729  10.878 -0.3745  0.8863 -0.3724
 5709TIP3   OH238541   1.293   1.457  13.103  0.0148 -0.0381 -0.2407
 5709TIP3    H138542   1.280   1.366  13.074 -0.9283 -0.3092  0.9729
 5709TIP3    H238543   1.292   1.508  13.022  0.3469 -1.0809 -0.9217
 5710TIP3   OH238544   0.274   4.692  13.063  0.7247 -0.2549 -0.1675
 5710TIP3    H138545   0.270   4.654  13.152 -1.2219 -0.2193 -0.1862
 5710TIP3    H238546   0.321   4.774  13.074  1.8329 -0.9563  0.5458
 5711TIP3   OH238547   0.366   3.716   0.625  0.0953  0.7694  0.9693
 5711TIP3    H138548   0.442   3.669   0.659 -1.0903 -1.8508  0.2635
 5711TIP3    H238549   0.390   3.738   0.535 -0.8106 -2.4994 -0.2209
 5712TIP3   OH238550   4.320   2.624   3.862 -0.1241 -0.1841  0.0014
 5712TIP3    H138551   4.230   2.613   3.830 -1.0811  3.4479  0.9520
 5712TIP3    H238552   4.322   2.573   3.943 -0.7009 -1.7829 -0.9504
 5713TIP3   OH238553   0.087   4.840   3.707 -0.1132 -0.2540 -0.1937
 5713TIP3    H138554   0.105   4.920   3.657  1.5386  0.3079  1.2051
 5713TIP3    H238555   0.003   4.857   3.749 -0.7278 -0.0775 -1.4425
 5714TIP3   OH238556   4.857   1.683   4.039  0.1279 -0.1163 -0.6308
 5714TIP3    H138557   4.833   1.754   3.980 -1.2873 -0.3455 -0.3475
 5714TIP3    H238558   4.803   1.609   4.013 -1.0151 -0.0416  1.3381
 5715TIP3   OH238559   2.216   1.948   0.817 -0.2993 -0.5404  0.3674
 5715TIP3    H138560   2.181   1.963   0.905  0.9541  0.6095  0.6857
 5715TIP3    H238561   2.276   1.874   0.828 -0.1627 -0.4140  0.4726
 5716TIP3   OH238562   1.855   2.727   2.422 -0.2966 -0.7382  0.8306
 5716TIP3    H138563   1.930   2.777   2.454 -1.9158  3.4008 -1.1561
 5716TIP3    H238564   1.796   2.721   2.497  0.3151 -0.5269  1.3369
 5717TIP3   OH238565   4.662   4.434   4.355  0.6360  0.5466 -0.6209
 5717TIP3    H138566   4.708   4.351   4.338 -0.6486 -0.4792  0.6190
 5717TIP3    H238567   4.599   4.441   4.284  1.2676  0.8617 -1.1536
 5718TIP3   OH238568   4.839   6.485   3.064 -0.2130 -0.0856  0.4402
 5718TIP3    H138569   4.911   6.425   3.085  0.1104 -0.5384 -1.7347
 5718TIP3    H238570   4.841   6.550   3.135  2.9590  0.4658 -0.0031
 5719TIP3   OH238571   4.674   6.662  11.491 -0.0519  0.1329 -0.0779
 5719TIP3    H138572   4.632   6.747  11.505  2.4952  1.5955 -0.8203
 5719TIP3    H238573   4.604   6.607  11.456 -2.0755  1.5160  1.5153
 5720TIP3   OH238574   0.799   0.507   0.430  0.0579 -0.0038  0.1551
 5720TIP3    H138575   0.844   0.501   0.346 -1.5579 -1.3441 -0.6640
 5720TIP3    H238576   0.865   0.483   0.495  0.2771 -3.2746 -1.1108
 5721TIP3   OH238577   0.897   3.485  14.977  0.1025 -0.2082  0.4778
 5721TIP3    H138578   0.860   3.557  15.028 -0.5144 -0.6889  0.7128
 5721TIP3    H238579   0.896   3.410  15.036 -0.0142 -0.6118 -0.0272
 5722TIP3   OH238580   4.860   4.661   0.670 -0.2780 -0.0925 -0.1382
 5722TIP3    H138581   4.922   4.649   0.741 -0.3132 -1.5896 -0.3304
 5722TIP3    H238582   4.876   4.587   0.611 -2.0189 -0.3544 -0.3526
 5723TIP3   OH238583   2.668   3.144  12.957  0.6079  0.3875  0.4487
 5723TIP3    H138584   2.731   3.214  12.940  0.9838 -0.2849 -1.1186
 5723TIP3    H238585   2.582   3.186  12.945  0.8369  0.3102 -1.9224
 5724TIP3   OH238586   2.516   4.351   5.049 -0.4848 -0.0821 -0.6238
 5724TIP3    H138587   2.577   4.333   5.120 -1.2624  1.4472  0.5045
 5724TIP3    H238588   2.494   4.265   5.013  1.7353 -0.7148 -0.5982
 5725TIP3   OH238589   5.325   5.416   0.692 -0.8907  0.1296  0.6019
 5725TIP3    H138590   5.250   5.383   0.642  0.3849 -0.5399 -0.9346
 5725TIP3    H238591   5.335   5.354   0.764 -0.0538 -1.4849 -0.8434
 5726TIP3   OH238592   4.401   2.239  12.172 -0.5194  0.2831 -0.1812
 5726TIP3    H138593   4.313   2.256  12.138 -1.5311 -1.8076  1.1764
 5726TIP3    H238594   4.396   2.264  12.264  0.2553 -0.0184 -0.0540
 5727TIP3   OH238595   0.116   6.301   2.313  0.1082 -0.3941  0.3506
 5727TIP3    H138596   0.176   6.362   2.357 -0.5377  1.8046 -1.6538
 5727TIP3    H238597   0.029   6.330   2.340 -0.1981 -0.7072 -0.2960
 5728TIP3   OH238598   1.038   1.032   3.732  0.0509  0.0848  0.0013
 5728TIP3    H138599   1.097   0.979   3.786 -0.7169 -1.3473 -0.5010
 5728TIP3    H238600   1.093   1.103   3.699  1.3471 -0.8630  0.0353
 5729TIP3   OH238601   3.944   5.514   3.719 -0.2751  0.7605  0.3637
 5729TIP3    H138602   4.000   5.437   3.726 -0.9985  0.2183  0.3504
 5729TIP3    H238603   3.940   5.548   3.809  0.8277  1.3595  0.1954
 5730TIP3   OH238604   5.402   3.157  10.346 -0.6413  0.6993 -0.1428
 5730TIP3    H138605   5.428   3.170  10.438 -0.4882  0.0978 -0.1020
 5730TIP3    H238606   5.313   3.123  10.351 -0.5353  0.4145 -0.2119
 5731TIP3   OH238607   6.580   1.191  13.331 -0.1219 -0.3064  0.1554
 5731TIP3    H138608   6.587   1.098  13.310 -1.9425 -0.1221 -1.6507
 5731TIP3    H238609   6.607   1.198  13.422  0.3503 -2.5473  0.2367
 5732TIP3   OH238610   1.965   0.425   5.555  0.4115  0.3349 -0.0596
 5732TIP3    H138611   1.886   0.374   5.540  0.9526  0.1161 -2.8705
 5732TIP3    H238612   2.031   0.362   5.581  0.7171 -0.2965 -2.1390
 5733TIP3   OH238613   3.499   1.814  11.524  0.2324  0.6787  1.0023
 5733TIP3    H138614   3.548   1.833  11.604 -0.2001  1.4736  1.0882
 5733TIP3    H238615   3.424   1.873  11.527 -0.1046  0.2983  0.2979
 5734TIP3   OH238616   1.839   3.134   4.623  0.1179  0.1258 -0.5910
 5734TIP3    H138617   1.915   3.171   4.667  0.5641 -2.4757  1.0100
 5734TIP3    H238618   1.825   3.191   4.548  0.8732  3.3264  1.4888
 5735TIP3   OH238619   0.306   3.722  12.083 -0.4076  0.2168  0.2900
 5735TIP3    H138620   0.231   3.665  12.099  1.2774 -2.1968  0.2168
 5735TIP3    H238621   0.374   3.663  12.051  1.4768  2.3206  0.1736
 5736TIP3   OH238622   5.837   5.795  16.230 -0.5665 -0.5350 -0.6485
 5736TIP3    H138623   5.886   5.723  16.191  1.7024  1.1757 -1.1439
 5736TIP3    H238624   5.765   5.752  16.277  0.4638 -3.0688 -1.2036
 5737TIP3   OH238625   0.035   5.041  16.781 -0.6216 -0.1526 -0.1158
 5737TIP3    H138626   0.028   5.073  16.691 -0.8347 -0.3802 -0.1797
 5737TIP3    H238627  -0.055   5.025  16.809 -0.5233 -0.5825 -0.0400
 5738TIP3   OH238628   3.295   3.628  11.834  0.1548 -0.6622 -0.6946
 5738TIP3    H138629   3.298   3.539  11.868  2.2610 -0.8536 -1.2334
 5738TIP3    H238630   3.231   3.624  11.762 -1.5348 -1.1203  0.7756
 5739TIP3   OH238631   3.193   0.127  12.967  0.2535 -0.0455  0.1803
 5739TIP3    H138632   3.113   0.098  12.925  0.1106 -0.8404  0.9826
 5739TIP3    H238633   3.165   0.195  13.029  0.2209 -0.2154  0.3519
 5740TIP3   OH238634   5.964   5.438   4.026 -0.0017  0.0942 -0.0258
 5740TIP3    H138635   5.881   5.397   4.051 -0.6208 -0.2847 -2.5112
 5740TIP3    H238636   5.954   5.530   4.050 -0.0800 -0.4043  2.0736
 5741TIP3   OH238637   1.377   2.768  16.877  0.1004 -0.0734  0.5569
 5741TIP3    H138638   1.285   2.794  16.883 -0.1147 -0.0101 -1.9244
 5741TIP3    H238639   1.405   2.758  16.968 -2.0259  1.0233  1.4100
 5742TIP3   OH238640   1.788   5.319  14.034  0.0823  0.1817  0.7917
 5742TIP3    H138641   1.802   5.225  14.034 -2.0372 -0.1934  0.5238
 5742TIP3    H238642   1.722   5.333  13.965  0.4830  1.8729  0.7089
 5743TIP3   OH238643   1.446   0.386   4.021  0.0687 -0.1608  0.3050
 5743TIP3    H138644   1.497   0.445   3.966 -1.2885  0.1684 -0.6358
 5743TIP3    H238645   1.483   0.397   4.109 -0.0648  2.0002  0.1323
 5744TIP3   OH238646   3.020   3.235  14.681  0.1296  0.1838 -0.0251
 5744TIP3    H138647   2.991   3.326  14.690 -0.8031 -0.2583  2.1314
 5744TIP3    H238648   3.034   3.223  14.587  1.6189  2.9169 -0.2419
 5745TIP3   OH238649   5.329   3.570  11.737 -0.5446  0.2561  0.1272
 5745TIP3    H138650   5.234   3.578  11.742 -0.6104 -0.7820  1.0442
 5745TIP3    H238651   5.359   3.582  11.827  0.2642  1.1807 -0.2433
 5746TIP3   OH238652   4.683   1.168  16.898  0.6975 -0.5267  0.2497
 5746TIP3    H138653   4.747   1.181  16.827 -0.5294  0.5928 -0.7082
 5746TIP3    H238654   4.635   1.251  16.902 -0.9747 -1.4736  0.6462
 5747TIP3   OH238655   2.202   1.136   4.961 -0.2105  0.2084 -0.4900
 5747TIP3    H138656   2.145   1.138   4.884 -2.4467  0.6476  1.0968
 5747TIP3    H238657   2.171   1.062   5.013  1.2087 -0.0254  0.0711
 5748TIP3   OH238658   5.786   2.447   1.702  0.2422 -0.7734 -0.1868
 5748TIP3    H138659   5.794   2.419   1.793  2.4998 -1.4314 -0.5382
 5748TIP3    H238660   5.873   2.478   1.679 -0.3357 -0.4544 -2.0977
 5749TIP3   OH238661   4.805   6.434   0.745 -0.2300 -0.4003 -0.4578
 5749TIP3    H138662   4.777   6.360   0.799 -0.1928 -0.3306 -0.3410
 5749TIP3    H238663   4.759   6.423   0.662  0.4863 -1.0663 -0.7798
 5750TIP3   OH238664   0.967   2.084  15.279  0.2334  0.0902 -0.2562
 5750TIP3    H138665   0.991   2.012  15.220 -1.7868 -0.8103 -0.0696
 5750TIP3    H238666   1.000   2.056  15.365 -1.4335 -1.2002  0.0304
 5751TIP3   OH238667   3.300   5.058  14.346 -0.2179 -0.8767  0.0486
 5751TIP3    H138668   3.355   5.125  14.306  0.2283  0.0188  2.0247
 5751TIP3    H238669   3.317   4.979  14.295  2.4296 -0.4663  0.1474
 5752TIP3   OH238670   3.814   1.581  11.727  0.0847 -0.3911  0.4984
 5752TIP3    H138671   3.766   1.541  11.654 -1.8890 -1.1057  2.1017
 5752TIP3    H238672   3.763   1.558  11.805  3.0527 -1.1637  2.3547
 5753TIP3   OH238673   2.101   6.741   0.180 -0.3047  0.0148 -0.1111
 5753TIP3    H138674   2.121   6.653   0.148  0.3172  0.4600 -0.9991
 5753TIP3    H238675   2.127   6.739   0.272 -0.7937 -0.8761  0.0227
 5754TIP3   OH238676   3.276   1.973  13.518 -0.4055  0.5497 -0.4399
 5754TIP3    H138677   3.280   1.928  13.434 -2.0910 -2.0115  0.7478
 5754TIP3    H238678   3.201   2.032  13.511 -1.2610 -0.5147 -0.3727
 5755TIP3   OH238679   1.635   6.691  11.492  0.1697  0.2654  0.1385
 5755TIP3    H138680   1.694   6.745  11.439  0.9628 -0.4858  0.2302
 5755TIP3    H238681   1.671   6.602  11.485 -1.4497 -0.3766 -0.5058
 5756TIP3   OH238682   0.583   4.981  14.289  0.1984  0.5338  0.0593
 5756TIP3    H138683   0.537   4.970  14.206  0.1790  1.7883 -0.1122
 5756TIP3    H238684   0.664   4.931  14.279  0.0886  0.4895 -0.6314
 5757TIP3   OH238685   5.737   3.292   2.238 -0.2749 -0.1836  0.2383
 5757TIP3    H138686   5.684   3.291   2.317 -1.2873 -1.5541 -0.4120
 5757TIP3    H238687   5.803   3.225   2.252  0.2734  0.3735  0.3714
 5758TIP3   OH238688   3.286   5.467   5.190  0.0941 -0.2317 -0.2776
 5758TIP3    H138689   3.376   5.493   5.212  1.2231 -3.2231 -0.8945
 5758TIP3    H238690   3.274   5.497   5.100  0.7924 -0.5445 -0.4797
 5759TIP3   OH238691   3.116   0.688  11.160  0.1041 -1.2966  0.1517
 5759TIP3    H138692   3.177   0.761  11.149 -0.3213 -0.7597  1.1996
 5759TIP3    H238693   3.051   0.700  11.091  0.4286 -1.1109 -0.1274
 5760TIP3   OH238694   1.317   1.099  16.065  0.1615 -0.1730  0.1203
 5760TIP3    H138695   1.246   1.134  16.012  1.3293 -0.5406 -1.7976
 5760TIP3    H238696   1.365   1.176  16.095 -0.3732  0.0405  0.4195
 5761TIP3   OH238697   5.751   5.294   5.055  0.1914 -0.6700  0.3289
 5761TIP3    H138698   5.776   5.341   5.135  0.1237  1.1978 -0.6810
 5761TIP3    H238699   5.674   5.341   5.023  0.2214 -1.3851 -0.8438
 5762TIP3   OH238700   2.386   4.013   1.860  0.5241 -0.1508 -0.3550
 5762TIP3    H138701   2.388   3.920   1.884  0.1207 -0.0327  0.1565
 5762TIP3    H238702   2.297   4.028   1.830 -0.0151  0.5255  1.4675
 5763TIP3   OH238703   6.312   6.480   0.880  0.6885  0.5761  0.1639
 5763TIP3    H138704   6.284   6.516   0.796  0.0988  1.2096  0.6213
 5763TIP3    H238705   6.372   6.545   0.916  1.4431  0.0103 -0.0440
 5764TIP3   OH238706   4.949   0.630   3.221  0.0436  0.2677 -0.3222
 5764TIP3    H138707   4.927   0.716   3.257 -0.4443  0.8619 -1.9660
 5764TIP3    H238708   4.864   0.588   3.207  0.0575  0.8910 -2.6894
 5765TIP3   OH238709   6.173   3.969  13.746  0.1008 -0.0910 -0.1899
 5765TIP3    H138710   6.182   4.027  13.670  0.3678  1.1352  0.7393
 5765TIP3    H238711   6.222   4.013  13.815  0.0865 -1.3162  0.6316
 5766TIP3   OH238712   4.533   3.282  11.339 -0.6599 -0.5764 -0.1009
 5766TIP3    H138713   4.515   3.218  11.408 -1.0578  0.1647  0.5043
 5766TIP3    H238714   4.523   3.233  11.257  1.7820 -1.9909  0.3609
 5767TIP3   OH238715   0.326   0.245   2.416  0.4520  0.1430  0.6046
 5767TIP3    H138716   0.233   0.253   2.437 -0.1934 -1.8353 -1.0765
 5767TIP3    H238717   0.344   0.318   2.357 -1.0898 -1.4480 -2.0216
 5768TIP3   OH238718   2.105   2.744  13.191  0.4244  0.0245  0.1483
 5768TIP3    H138719   2.126   2.752  13.098  0.1867  0.7260  0.1514
 5768TIP3    H238720   2.169   2.800  13.235  0.6191 -0.4041  0.4245
 5769TIP3   OH238721   3.402   6.475   4.920 -0.6319 -0.2883  0.3914
 5769TIP3    H138722   3.450   6.468   5.002 -0.2829  0.2591  0.2407
 5769TIP3    H238723   3.469   6.486   4.853 -0.9627  1.4816  0.2832
 5770TIP3   OH238724   4.869   0.526  14.571 -0.4131  0.9276  0.1715
 5770TIP3    H138725   4.835   0.436  14.571  1.4110  0.1910  0.0948
 5770TIP3    H238726   4.856   0.556  14.661 -1.1829  0.6679  0.1604
 5771TIP3   OH238727   3.741   2.297  15.145  0.0205 -0.3287  0.3385
 5771TIP3    H138728   3.740   2.328  15.236 -2.2930  0.1667  0.2220
 5771TIP3    H238729   3.794   2.361  15.098  0.7960 -0.2884  1.2548
 5772TIP3   OH238730   0.229   0.041  15.411  0.0575 -0.3685 -0.5022
 5772TIP3    H138731   0.154  -0.005  15.375 -1.0418  0.6019  0.4780
 5772TIP3    H238732   0.281  -0.028  15.453  0.6562 -1.3034 -2.6192
 5773TIP3   OH238733   6.221   3.705   1.926  0.2512 -0.4306  0.3316
 5773TIP3    H138734   6.244   3.666   2.010 -0.8243 -3.2636 -0.5668
 5773TIP3    H238735   6.128   3.685   1.915  0.4923 -0.5828 -1.7489
 5774TIP3   OH238736   4.520   2.481   1.176 -0.1153 -0.4687  0.4917
 5774TIP3    H138737   4.535   2.387   1.166 -2.1781 -0.7240 -0.5412
 5774TIP3    H238738   4.470   2.506   1.099  0.1394  1.4391  0.8987
 5775TIP3   OH238739   0.861   6.706   5.057 -0.3939  0.6436 -0.2668
 5775TIP3    H138740   0.954   6.691   5.074 -0.9951 -1.0261  2.1046
 5775TIP3    H238741   0.843   6.657   4.977  0.5796  0.2667 -0.2679
 5776TIP3   OH238742   0.543   6.656  11.649  0.0987  0.5252  0.0752
 5776TIP3    H138743   0.537   6.751  11.641 -0.3614  0.4461 -0.6026
 5776TIP3    H238744   0.467   6.623  11.602 -0.4758 -0.1446  1.4254
 5777TIP3   OH238745   5.395   1.035   1.813  0.1752 -0.1866  0.3578
 5777TIP3    H138746   5.320   0.982   1.842 -0.0213 -0.7537 -1.0937
 5777TIP3    H238747   5.468   0.973   1.809 -0.2379 -0.6240 -2.1367
 5778TIP3   OH238748   4.308   2.050   4.153 -0.6280  0.0037  0.2083
 5778TIP3    H138749   4.380   2.113   4.164 -1.0153  0.8333 -1.5417
 5778TIP3    H238750   4.290   2.052   4.059 -1.9797 -1.2767  0.4136
 5779TIP3   OH238751   4.443   0.549   4.655  0.5227 -0.5201 -0.2566
 5779TIP3    H138752   4.475   0.586   4.737  0.3736  1.4369 -1.0370
 5779TIP3    H238753   4.357   0.589   4.642  0.4815 -0.8983 -1.2889
 5780TIP3   OH238754   2.205   1.397   3.654 -0.0256  0.5200  0.2283
 5780TIP3    H138755   2.261   1.324   3.680  0.2816  1.0557  1.1275
 5780TIP3    H238756   2.234   1.419   3.565 -0.2638 -0.5661 -0.1284
 5781TIP3   OH238757   1.594   0.700  13.713  0.5672 -0.2003  0.1679
 5781TIP3    H138758   1.572   0.620  13.760  0.7681 -0.6846 -0.5643
 5781TIP3    H238759   1.685   0.718  13.738  0.0081  0.7547  1.6791
 5782TIP3   OH238760   5.612   3.720   2.182  0.9509 -0.5171 -0.3503
 5782TIP3    H138761   5.641   3.800   2.227  2.6295 -1.7776  0.9679
 5782TIP3    H238762   5.620   3.741   2.089  0.5432  1.1019 -0.0542
 5783TIP3   OH238763   3.383   5.819  13.446  0.4422 -0.3290  0.4516
 5783TIP3    H138764   3.452   5.879  13.473  0.0349  0.0049  0.7484
 5783TIP3    H238765   3.399   5.804  13.353 -0.6146  1.8075 -0.1366
 5784TIP3   OH238766   4.637   1.864   5.567  0.4507  0.0538 -0.4568
 5784TIP3    H138767   4.579   1.862   5.642  0.4444 -1.6080 -0.4788
 5784TIP3    H238768   4.591   1.815   5.499  2.1274 -1.9956 -0.2254
 5785TIP3   OH238769   6.353   1.764  14.220 -0.0874  0.1828  0.1769
 5785TIP3    H138770   6.343   1.835  14.157  0.9551  0.6767  0.5446
 5785TIP3    H238771   6.354   1.684  14.166 -0.1694  0.5213 -0.3335
 5786TIP3   OH238772   6.734   4.995  15.680  0.1206  0.1366 -0.8338
 5786TIP3    H138773   6.652   4.999  15.729  0.3021 -2.3260 -0.1748
 5786TIP3    H238774   6.749   5.085  15.651 -1.7196  1.0486  0.7849
 5787TIP3   OH238775   4.074   5.286   1.065 -0.3416  0.3438 -0.1396
 5787TIP3    H138776   4.053   5.206   1.018 -0.0241  1.4761 -2.3527
 5787TIP3    H238777   4.018   5.353   1.026  0.8056  1.5813  0.2363
 5788TIP3   OH238778   0.046   4.421   0.640  0.5146  0.0686  0.0120
 5788TIP3    H138779  -0.026   4.481   0.656 -0.6598 -1.4778  0.7621
 5788TIP3    H238780   0.014   4.361   0.573  1.1563 -0.5283  0.2187
 5789TIP3   OH238781   2.909   1.401  12.224 -0.0948 -0.1290 -0.0335
 5789TIP3    H138782   2.893   1.403  12.319 -0.2424 -0.7954 -0.0404
 5789TIP3    H238783   2.822   1.401  12.184 -0.1219  3.5326 -0.3079
 5790TIP3   OH238784   3.552   5.576  15.910  0.2061 -0.5787  0.1228
 5790TIP3    H138785   3.501   5.640  15.959  0.8563  1.0331 -1.2213
 5790TIP3    H238786   3.642   5.609  15.914  0.2862 -0.4142 -2.0533
 5791TIP3   OH238787   3.596   0.790  15.089 -0.7347 -0.1013  0.1560
 5791TIP3    H138788   3.618   0.855  15.022 -0.4574  0.3027  0.6301
 5791TIP3    H238789   3.606   0.706  15.045  0.5216  0.1172 -0.0131
 5792TIP3   OH238790   0.023   6.471   1.687 -0.0163  0.3030 -0.3013
 5792TIP3    H138791   0.076   6.394   1.709 -0.8935  0.2152  1.7212
 5792TIP3    H238792  -0.047   6.471   1.752 -2.0649  0.8953 -2.3619
 5793TIP3   OH238793   3.806   5.823   5.228  0.5241 -0.0118 -0.2637
 5793TIP3    H138794   3.886   5.865   5.257 -1.2350  1.6026  2.8382
 5793TIP3    H238795   3.763   5.887   5.172  1.3412 -0.9022 -1.9822
 5794TIP3   OH238796   5.851   1.279   0.427  0.0998  0.1911  0.5784
 5794TIP3    H138797   5.854   1.286   0.332 -2.4260  0.8025  0.4783
 5794TIP3    H238798   5.834   1.186   0.444  0.7898  0.0385  0.4634
 5795TIP3   OH238799   5.426   4.273   5.964  0.5093  0.1093  0.4266
 5795TIP3    H138800   5.480   4.315   6.031 -0.2363 -0.9744  1.7739
 5795TIP3    H238801   5.370   4.213   6.013 -1.3066  0.5342 -0.9880
 5796TIP3   OH238802   4.623   1.979  16.064 -0.1234  0.2514  0.3566
 5796TIP3    H138803   4.532   1.972  16.094  0.3218  0.3937  1.7828
 5796TIP3    H238804   4.633   2.071  16.040 -0.1242  0.4235  1.0000
 5797TIP3   OH238805   4.395   3.533   3.247 -0.3177 -0.3138 -0.1737
 5797TIP3    H138806   4.313   3.524   3.296 -0.7957 -0.0933 -0.9163
 5797TIP3    H238807   4.417   3.626   3.254 -0.3362 -0.2999 -0.3011
 5798TIP3   OH238808   2.615   4.366  14.388 -0.2171  0.2032 -0.0996
 5798TIP3    H138809   2.524   4.389  14.367 -0.7988 -0.5604  1.4145
 5798TIP3    H238810   2.631   4.408  14.473  0.8179  0.2376 -0.3042
 5799TIP3   OH238811   0.761   6.134   4.878  0.3399  0.0888 -0.0630
 5799TIP3    H138812   0.687   6.178   4.837  0.7689  1.6271  0.7270
 5799TIP3    H238813   0.837   6.187   4.854  1.3285 -1.8058 -1.3796
 5800TIP3   OH238814   2.122   0.548   0.115  0.7399 -0.3695 -0.2926
 5800TIP3    H138815   2.170   0.509   0.042  0.3140 -1.8476  0.1718
 5800TIP3    H238816   2.074   0.474   0.154  0.6002  0.4607  1.1893
 5801TIP3   OH238817   2.207   5.460  13.133  0.2522 -0.0169  0.1431
 5801TIP3    H138818   2.299   5.485  13.143  0.4932 -0.7028 -0.3106
 5801TIP3    H238819   2.164   5.539  13.101  0.5694  0.4821  0.9259
 5802TIP3   OH238820   0.333   3.711  11.646  0.1292  0.4159  0.7024
 5802TIP3    H138821   0.256   3.707  11.702  0.7145 -1.6548  1.4410
 5802TIP3    H238822   0.313   3.653  11.573  0.4873  0.9120  0.1953
 5803TIP3   OH238823   4.910   3.897  11.546  0.1658 -0.4893  0.1834
 5803TIP3    H138824   4.912   3.977  11.598 -1.0860  0.3596 -0.9905
 5803TIP3    H238825   4.853   3.838  11.595  0.6766 -0.4671  0.8037
 5804TIP3   OH238826   3.951   4.929  14.982 -0.2669  0.0144 -0.1477
 5804TIP3    H138827   4.008   4.897  15.051 -0.2621  0.2817 -0.0236
 5804TIP3    H238828   3.866   4.940  15.024 -0.5695 -0.9854 -0.4877
 5805TIP3   OH238829   1.485   6.179  17.322 -0.1274  0.1287  0.4905
 5805TIP3    H138830   1.428   6.255  17.333  0.9903  1.1116 -0.2152
 5805TIP3    H238831   1.493   6.169  17.227 -0.4367 -1.0348  0.5668
 5806TIP3   OH238832   2.752   2.865   6.022  0.4405 -1.3968 -0.4013
 5806TIP3    H138833   2.661   2.840   6.010 -0.5817  0.9678  1.5420
 5806TIP3    H238834   2.772   2.920   5.947  0.5104 -2.4056 -1.1453
 5807TIP3   OH238835   0.680   0.609   2.688 -0.1371 -0.1905 -0.3394
 5807TIP3    H138836   0.586   0.619   2.677 -0.5944 -1.7485  1.7083
 5807TIP3    H238837   0.705   0.677   2.750 -0.2227 -0.7753  0.3513
 5808TIP3   OH238838   6.325   5.578   5.807 -0.0438 -0.2246 -0.2092
 5808TIP3    H138839   6.260   5.551   5.872 -0.0187 -0.7657 -0.4022
 5808TIP3    H238840   6.408   5.573   5.854 -0.2720  2.2572  0.6055
 5809TIP3   OH238841   5.372   1.492  10.809 -0.1983 -0.5728 -0.3972
 5809TIP3    H138842   5.433   1.461  10.877  0.3498  0.4284 -0.4106
 5809TIP3    H238843   5.391   1.438  10.733 -0.2022 -1.1100 -0.0241
 5810TIP3   OH238844   0.743   5.101   2.530  0.5468 -0.1018  0.1684
 5810TIP3    H138845   0.804   5.103   2.604  0.9966 -0.9827 -0.1657
 5810TIP3    H238846   0.681   5.032   2.550  2.1646 -2.1297 -1.3847
 5811TIP3   OH238847   0.838   5.989  13.926  0.2241 -0.4805 -0.7490
 5811TIP3    H138848   0.908   5.998  13.861  0.3454  0.4520 -0.5099
 5811TIP3    H238849   0.778   5.925  13.889 -0.4500  1.0515 -2.4622
 5812TIP3   OH238850   5.786   2.030  12.714 -0.2743  0.3361 -0.2320
 5812TIP3    H138851   5.780   2.026  12.619 -2.0361  3.5524 -0.4008
 5812TIP3    H238852   5.878   2.051  12.732 -0.0051  0.0309 -1.2138
 5813TIP3   OH238853   3.057   5.750  13.809 -0.1253 -0.9287 -0.3629
 5813TIP3    H138854   3.109   5.800  13.747 -2.4014 -0.4796 -2.0726
 5813TIP3    H238855   3.067   5.659  13.781 -0.1787 -0.8467 -0.6557
 5814TIP3   OH238856   6.290   0.721  10.849  0.2998 -0.2094  0.1506
 5814TIP3    H138857   6.256   0.678  10.928 -1.5336  1.1054  0.1522
 5814TIP3    H238858   6.294   0.652  10.784  1.9753 -1.3530  1.3860
 5815TIP3   OH238859   2.523   0.542   3.267 -0.2789  0.1298  0.4853
 5815TIP3    H138860   2.587   0.516   3.200 -1.0922 -2.5628  0.6572
 5815TIP3    H238861   2.504   0.462   3.315 -2.2494  1.2923  1.7925
 5816TIP3   OH238862   5.412   4.310  12.406  0.0020  0.1597  0.2236
 5816TIP3    H138863   5.422   4.215  12.410  2.4590  0.3030 -0.7277
 5816TIP3    H238864   5.336   4.324  12.349  0.4602 -1.2504 -0.7915
 5817TIP3   OH238865   5.334   0.791   5.105  0.1329 -0.5733  0.4033
 5817TIP3    H138866   5.302   0.850   5.174  0.6746 -2.2731  2.2041
 5817TIP3    H238867   5.289   0.708   5.121  0.6728 -1.1768 -0.9915
 5818TIP3   OH238868   1.185   6.485   1.067  0.2115  0.1657 -0.1592
 5818TIP3    H138869   1.199   6.417   1.133  1.0582  0.8364  0.3752
 5818TIP3    H238870   1.114   6.538   1.102 -0.5999 -0.5507 -0.6801
 5819TIP3   OH238871   1.673   0.337  17.386  0.6483 -0.6215  0.0128
 5819TIP3    H138872   1.726   0.415  17.373 -0.6384  0.6409  1.7894
 5819TIP3    H238873   1.599   0.348  17.326 -0.0105  0.0411  0.9132
 5820TIP3   OH238874   5.003   4.301  14.852 -0.7775 -0.9726 -0.4629
 5820TIP3    H138875   4.984   4.393  14.871 -1.2856 -1.2210  0.2562
 5820TIP3    H238876   4.924   4.269  14.807  0.1208 -0.5826 -2.4138
 5821TIP3   OH238877   3.591   2.814  16.571  0.6071  0.3201  0.0575
 5821TIP3    H138878   3.570   2.721  16.584 -1.0936  0.2280 -2.5228
 5821TIP3    H238879   3.537   2.860  16.635 -1.4387 -0.3760 -1.0638
 5822TIP3   OH238880   1.443   1.893   2.853  0.4115 -0.1379  0.0630
 5822TIP3    H138881   1.438   1.801   2.879 -0.0738 -0.0922  0.1392
 5822TIP3    H238882   1.493   1.892   2.771 -0.4603 -0.5862 -0.4765
 5823TIP3   OH238883   4.450   3.468  12.554  0.3197  0.2082  0.0272
 5823TIP3    H138884   4.535   3.424  12.553  0.4038  0.3727 -0.3724
 5823TIP3    H238885   4.432   3.483  12.647  0.1501 -0.9262  0.2024
 5824TIP3   OH238886   1.995   4.193   4.928  0.4281 -0.3865 -0.0687
 5824TIP3    H138887   2.013   4.175   4.836 -0.8459 -0.4682 -0.3119
 5824TIP3    H238888   2.079   4.178   4.972  1.3127  0.6927 -1.3430
 5825TIP3   OH238889   0.053   3.151   5.887 -0.2538 -0.3927  0.3239
 5825TIP3    H138890  -0.006   3.204   5.941 -1.2053 -0.6804 -0.4176
 5825TIP3    H238891   0.131   3.139   5.942  0.4111  2.5629  0.1903
 5826TIP3   OH238892   6.746   0.322   3.355  0.2527 -0.4342  0.6674
 5826TIP3    H138893   6.659   0.329   3.317  0.7476 -1.3026 -0.6735
 5826TIP3    H238894   6.756   0.403   3.406 -0.6192  0.5657 -0.6718
 5827TIP3   OH238895   5.574   1.418   0.977  0.7992  0.3693  0.1454
 5827TIP3    H138896   5.653   1.391   0.930  1.1581  2.5758 -0.6225
 5827TIP3    H238897   5.504   1.412   0.912  0.7034  0.3983  0.2455
 5828TIP3   OH238898   1.385   3.611   2.387 -0.8769  0.1051 -0.2365
 5828TIP3    H138899   1.382   3.522   2.423 -0.7457 -0.3361 -1.2658
 5828TIP3    H238900   1.319   3.611   2.318  1.2169 -0.2124 -2.3959
 5829TIP3   OH238901   3.890   2.749  16.910  0.3556  0.0320  0.4759
 5829TIP3    H138902   3.830   2.824  16.913 -0.7621 -0.7779 -0.4323
 5829TIP3    H238903   3.840   2.678  16.951  0.8259 -0.5818 -0.0011
 5830TIP3   OH238904   6.396   3.153  16.204 -0.1688  0.2365  0.3480
 5830TIP3    H138905   6.373   3.166  16.296  0.5393  0.5585  0.4794
 5830TIP3    H238906   6.444   3.070  16.204 -0.9753 -0.2456  0.1232
 5831TIP3   OH238907   5.672   0.259  12.075 -0.2249 -0.8799  0.4060
 5831TIP3    H138908   5.682   0.313  12.152  0.5690  3.4425 -2.3944
 5831TIP3    H238909   5.676   0.320  12.001 -1.8939 -4.4928 -3.1074
 5832TIP3   OH238910   3.468   2.621   1.103 -0.1113  0.0687 -0.0960
 5832TIP3    H138911   3.417   2.570   1.040  1.8355 -0.2794 -1.4832
 5832TIP3    H238912   3.523   2.678   1.049  1.2190  0.1764  1.2912
 5833TIP3   OH238913   3.248   4.839  16.994 -0.6632 -0.2851  0.1906
 5833TIP3    H138914   3.162   4.813  17.026 -1.2472 -0.8633 -1.7728
 5833TIP3    H238915   3.257   4.797  16.909  1.0242  0.8194 -0.2364
 5834TIP3   OH238916   4.259   5.239   4.081 -0.5935 -0.2940 -0.4484
 5834TIP3    H138917   4.181   5.243   4.025 -0.7959 -1.1833 -0.2419
 5834TIP3    H238918   4.234   5.181   4.153  0.3608 -0.8238 -0.5366
 5835TIP3   OH238919   5.072   3.024   5.244  0.1706  0.0562  0.0233
 5835TIP3    H138920   5.134   3.094   5.263  0.0971  0.5057 -1.2806
 5835TIP3    H238921   4.990   3.051   5.286 -0.0190  1.0518 -0.9547
 5836TIP3   OH238922   6.467   5.871   4.934 -0.2467  0.4587  0.2762
 5836TIP3    H138923   6.524   5.834   5.002 -0.6627 -0.9297 -0.0988
 5836TIP3    H238924   6.457   5.800   4.871  0.7498  1.9472 -1.6560
 5837TIP3   OH238925   6.179   3.336   0.590  0.7114 -0.0624  0.3044
 5837TIP3    H138926   6.104   3.354   0.646  0.5647  0.3317 -0.0145
 5837TIP3    H238927   6.242   3.290   0.647 -0.4278 -1.9085  0.1610
 5838TIP3   OH238928   4.006   0.027  13.733  0.2696 -0.3378  0.2155
 5838TIP3    H138929   4.010  -0.028  13.654 -0.9097  0.7883 -0.6741
 5838TIP3    H238930   4.085   0.003  13.782  2.0393  0.1460 -2.1484
 5839TIP3   OH238931   6.724   3.456  11.052 -0.2104  0.1508  0.5861
 5839TIP3    H138932   6.766   3.370  11.042 -0.6565 -0.1698  1.4080
 5839TIP3    H238933   6.675   3.467  10.971  0.3367 -0.0908  0.2089
 5840TIP3   OH238934   2.994   2.122   3.297 -0.2549 -0.6280 -0.1997
 5840TIP3    H138935   2.985   2.111   3.391 -1.2884  0.9151 -0.0838
 5840TIP3    H238936   2.904   2.119   3.264  0.0351 -0.3787 -1.0348
 5841TIP3   OH238937   4.501   1.275   4.967  0.0591 -0.6234 -0.1497
 5841TIP3    H138938   4.409   1.258   4.984  0.2310 -0.1634  1.4330
 5841TIP3    H238939   4.523   1.218   4.893 -1.1420 -1.7463  0.3197
 5842TIP3   OH238940   4.759   5.953   1.477 -0.0144 -0.5011  0.3644
 5842TIP3    H138941   4.692   6.020   1.472 -0.4086 -0.9560 -0.6888
 5842TIP3    H238942   4.808   5.960   1.395 -0.1029 -1.5325  0.2118
 5843TIP3   OH238943   3.597   5.711  14.385  0.6442 -0.1586 -0.0647
 5843TIP3    H138944   3.648   5.690  14.306  2.2790  1.3096  0.5241
 5843TIP3    H238945   3.565   5.627  14.417 -1.1222 -0.7062 -2.9285
 5844TIP3   OH238946   0.273   0.069   0.574 -0.0404  0.0041 -0.1531
 5844TIP3    H138947   0.290   0.061   0.481  1.5572 -0.5489  0.1438
 5844TIP3    H238948   0.360   0.063   0.615 -0.6092  1.0535  1.3202
 5845TIP3   OH238949   5.625   0.428  16.038 -0.7776  0.4678  0.2990
 5845TIP3    H138950   5.580   0.419  15.954 -1.6839  0.0963  0.8119
 5845TIP3    H238951   5.713   0.394  16.022 -1.1277 -0.1489 -0.3558
 5846TIP3   OH238952   5.394   4.521  14.860 -0.3188 -0.2858  0.2564
 5846TIP3    H138953   5.401   4.538  14.767  0.7596 -2.7119 -0.1815
 5846TIP3    H238954   5.318   4.572  14.888 -0.1908  1.1153 -1.7487
 5847TIP3   OH238955   3.821   0.545   2.567 -0.2063  0.7068 -0.3766
 5847TIP3    H138956   3.849   0.559   2.657  0.4712 -0.3901 -0.4032
 5847TIP3    H238957   3.728   0.521   2.574  0.8639 -4.2637  0.5942
 5848TIP3   OH238958   2.325   4.784   1.204  0.2285 -0.5863 -0.8720
 5848TIP3    H138959   2.370   4.859   1.165  0.1753 -1.1133 -1.9775
 5848TIP3    H238960   2.289   4.818   1.286  1.5346  0.1811 -0.5852
 5849TIP3   OH238961   0.796   2.567   0.859  0.2855 -0.4928  0.3164
 5849TIP3    H138962   0.843   2.639   0.819  0.0350 -0.3189  0.3339
 5849TIP3    H238963   0.849   2.490   0.839  0.6205 -0.2875  0.4121
 5850TIP3   OH238964   1.611   5.220   6.911  0.7221 -0.3213  0.4420
 5850TIP3    H138965   1.533   5.182   6.952 -0.8646  1.3513 -0.9158
 5850TIP3    H238966   1.612   5.311   6.941  2.6341 -0.5116  1.0643
 5851TIP3   OH238967   2.109   0.306  10.650 -0.4615  0.0820  0.3324
 5851TIP3    H138968   2.181   0.364  10.672 -0.0790 -0.5326  0.7568
 5851TIP3    H238969   2.046   0.361  10.604  0.3507  0.5879 -0.1951
 5852TIP3   OH238970   6.253   0.483  15.831 -0.0103  0.1291  0.6184
 5852TIP3    H138971   6.160   0.475  15.810 -0.1525  0.9382  0.8729
 5852TIP3    H238972   6.281   0.395  15.855 -0.6821 -0.1421  0.4057
 5853TIP3   OH238973   5.224   1.184   1.044  0.3814 -0.6233 -0.1707
 5853TIP3    H138974   5.312   1.207   1.074  0.9501 -0.6999 -1.6820
 5853TIP3    H238975   5.166   1.245   1.090  1.3890  0.5994 -0.4713
 5854TIP3   OH238976   5.977   2.619   3.790  0.0799 -0.0869  0.6439
 5854TIP3    H138977   5.938   2.560   3.855  1.2712 -0.1856  1.2966
 5854TIP3    H238978   5.951   2.582   3.706 -0.2819 -0.7837  1.0523
 5855TIP3   OH238979   3.304   3.851  12.862  0.5745  0.4905 -0.4419
 5855TIP3    H138980   3.226   3.906  12.864  0.4236  0.2604  0.1147
 5855TIP3    H238981   3.298   3.797  12.941  1.7065  1.0499  0.0579
 5856TIP3   OH238982   0.954   4.144  13.781 -0.4058 -0.3289  0.6390
 5856TIP3    H138983   1.009   4.189  13.716 -1.2591  0.6222  0.5316
 5856TIP3    H238984   0.906   4.215  13.824  0.3205 -0.9276  2.5074
 5857TIP3   OH238985   1.741   0.037  15.350 -0.0927 -0.2905 -0.9044
 5857TIP3    H138986   1.693  -0.040  15.384  1.3264 -1.0398 -0.5115
 5857TIP3    H238987   1.718   0.040  15.257  0.3752 -1.6329 -1.0887
 5858TIP3   OH238988   2.624   0.575  13.510 -0.2118  0.0800 -0.6409
 5858TIP3    H138989   2.709   0.586  13.468  1.5687  0.3411  2.7018
 5858TIP3    H238990   2.619   0.481  13.530 -1.5694 -0.2520 -2.3624
 5859TIP3   OH238991   2.327   2.340  10.567  0.4305  0.4736  0.3589
 5859TIP3    H138992   2.246   2.318  10.614 -0.5759 -0.1555 -1.5603
 5859TIP3    H238993   2.303   2.412  10.509  0.1337 -1.9975 -2.8640
 5860TIP3   OH238994   0.749   4.019  14.282  0.0938 -0.0938  0.7511
 5860TIP3    H138995   0.725   4.096  14.231 -0.6286 -0.7220  0.1182
 5860TIP3    H238996   0.812   3.972  14.226 -0.0079 -0.3261  0.8307
 5861TIP3   OH238997   1.884   6.441  13.790  0.1029 -1.2380 -0.0825
 5861TIP3    H138998   1.913   6.415  13.877 -0.1881  0.2190  0.4887
 5861TIP3    H238999   1.962   6.479  13.749 -0.4622  1.0014  0.7737
 5862TIP3   OH239000   6.287   6.554   1.293 -0.1863 -0.2230 -0.2327
 5862TIP3    H139001   6.336   6.479   1.325 -0.0497 -0.4457 -0.9503
 5862TIP3    H239002   6.254   6.597   1.373  2.1952  0.6588  0.3817
 5863TIP3   OH239003   0.111   5.015  16.298  0.1871  0.2075 -0.8810
 5863TIP3    H139004   0.160   4.960  16.359 -1.3325 -0.5566 -0.2732
 5863TIP3    H239005   0.043   4.956  16.264 -1.4809  1.6791 -0.2359
 5864TIP3   OH239006   0.877   0.216  13.165 -0.5744 -0.5531  0.1461
 5864TIP3    H139007   0.864   0.122  13.182  0.9234 -0.8154 -0.0140
 5864TIP3    H239008   0.862   0.226  13.071  0.1216 -0.7991  0.0059
 5865TIP3   OH239009   3.453   5.686   5.034 -0.4944  0.1212 -0.4839
 5865TIP3    H139010   3.453   5.727   5.120 -0.9640  1.4849 -1.1080
 5865TIP3    H239011   3.480   5.756   4.974  2.7733 -1.5141 -1.1466
 5866TIP3   OH239012   2.644   4.628   5.600  0.8200  0.5683  0.0009
 5866TIP3    H139013   2.672   4.691   5.666  0.4735 -0.2575  0.9557
 5866TIP3    H239014   2.720   4.571   5.587  1.0845  1.0700 -0.7580
 5867TIP3   OH239015   1.350   0.723  16.833  0.4370  0.3174 -0.0122
 5867TIP3    H139016   1.386   0.768  16.757 -0.3772 -1.6957 -1.6695
 5867TIP3    H239017   1.394   0.638  16.833  0.8761  0.4848  2.1781
 5868TIP3   OH239018   2.523   1.898  11.363 -0.0262 -0.9123  0.1295
 5868TIP3    H139019   2.597   1.859  11.316 -0.6609 -0.5346 -1.2597
 5868TIP3    H239020   2.563   1.960  11.423  0.8725 -2.0629  0.7697
 5869TIP3   OH239021   5.630   2.360  12.448  0.3036  0.1424  0.1716
 5869TIP3    H139022   5.702   2.368  12.385  1.1565  0.2161  1.1239
 5869TIP3    H239023   5.565   2.305  12.404  1.0785 -0.1677 -0.6030
 5870TIP3   OH239024   1.054   5.926  12.949  0.2339 -0.2188 -0.1571
 5870TIP3    H139025   1.078   6.019  12.949 -0.8766  0.0890  0.4466
 5870TIP3    H239026   0.969   5.923  12.904 -0.9953 -0.5471  2.0330
 5871TIP3   OH239027   4.491   5.294   3.676  0.0728 -0.3198  0.2636
 5871TIP3    H139028   4.467   5.321   3.764 -1.3803  0.5693 -0.3743
 5871TIP3    H239029   4.408   5.280   3.631  0.7519 -3.3225 -0.2589
 5872TIP3   OH239030   0.538   1.245   1.636  0.3455  0.3234 -0.2582
 5872TIP3    H139031   0.568   1.333   1.611 -0.5999  0.7805  0.1941
 5872TIP3    H239032   0.489   1.258   1.716 -1.0961 -0.4065 -0.9905
 5873TIP3   OH239033   1.562   0.262   3.101 -0.1445  0.2669 -0.4600
 5873TIP3    H139034   1.594   0.348   3.129  0.7376 -0.7190  1.8063
 5873TIP3    H239035   1.601   0.249   3.014 -0.4105  2.1789 -0.9084
 5874TIP3   OH239036   4.887   6.430  14.608 -0.1705  0.2564 -0.2876
 5874TIP3    H139037   4.795   6.450  14.622 -0.3064 -0.9548  0.7460
 5874TIP3    H239038   4.886   6.343  14.567  0.4606  1.1357 -2.3212
 5875TIP3   OH239039   5.363   6.618  15.497 -0.3903 -0.2806 -0.6306
 5875TIP3    H139040   5.305   6.658  15.433 -2.3981 -0.9168  0.6834
 5875TIP3    H239041   5.341   6.662  15.580  1.4778 -0.1140 -0.1685
 5876TIP3   OH239042   0.547   5.719   1.427 -0.6596  0.1969  0.1720
 5876TIP3    H139043   0.540   5.787   1.360  1.2006 -0.7074 -1.0034
 5876TIP3    H239044   0.609   5.656   1.391 -1.4115 -1.5259  1.7572
 5877TIP3   OH239045   3.627   4.712  14.677  0.4438 -0.0567 -0.2335
 5877TIP3    H139046   3.578   4.630  14.663 -1.0484  0.6229  0.6798
 5877TIP3    H239047   3.569   4.780  14.642  2.7189  0.4817 -3.2683
 5878TIP3   OH239048   2.242   1.580   5.761  0.5358  0.4617  0.0038
 5878TIP3    H139049   2.310   1.646   5.747  1.2662 -0.0368  1.0749
 5878TIP3    H239050   2.284   1.497   5.741 -0.4046  0.2994 -1.4143
 5879TIP3   OH239051   1.509   4.983  11.796  0.2465  1.0111  0.4770
 5879TIP3    H139052   1.500   5.062  11.742  1.1630  0.1933 -0.9164
 5879TIP3    H239053   1.544   4.917  11.736 -1.1663 -0.6765  1.4289
 5880TIP3   OH239054   6.594   4.129  12.925 -0.8669  0.5185  0.2592
 5880TIP3    H139055   6.620   4.219  12.904 -0.7041  0.6802  1.1460
 5880TIP3    H239056   6.573   4.131  13.018  1.3235 -0.8553  0.8480
 5881TIP3   OH239057   0.168   3.159   4.174 -0.3345  0.3631 -0.3556
 5881TIP3    H139058   0.251   3.131   4.135  0.0297  0.1681  0.5331
 5881TIP3    H239059   0.193   3.209   4.251 -1.0122  1.9306 -1.1042
 5882TIP3   OH239060   0.057   4.978   5.350 -0.5813 -0.7302 -0.0971
 5882TIP3    H139061   0.149   4.966   5.325 -0.3951 -0.0958  0.2623
 5882TIP3    H239062   0.046   5.073   5.358 -0.8103 -0.8633  1.4883
 5883TIP3   OH239063   3.246   4.239  10.211  0.0715  0.8926  0.1692
 5883TIP3    H139064   3.236   4.326  10.250 -0.7710  1.0159 -0.3001
 5883TIP3    H239065   3.182   4.184  10.256 -1.0826  1.0919 -1.1454
 5884TIP3   OH239066   3.114   3.969  17.416 -0.2163  0.0725  0.2471
 5884TIP3    H139067   3.149   3.881  17.405  0.7669  0.3912  0.7335
 5884TIP3    H239068   3.190   4.023  17.440 -0.8956  0.9444  0.4999
 5885TIP3   OH239069   2.356   4.896   5.770  0.4064 -0.3681 -0.3954
 5885TIP3    H139070   2.419   4.827   5.750  1.1946  0.3413 -0.4485
 5885TIP3    H239071   2.314   4.868   5.851 -1.1732 -2.1589 -1.7675
 5886TIP3   OH239072   0.074   6.596   5.120 -0.2184 -0.2662 -0.2663
 5886TIP3    H139073   0.141   6.551   5.068 -0.4886  1.0523 -1.8266
 5886TIP3    H239074   0.033   6.657   5.059 -2.6796 -0.8228  0.7163
 5887TIP3   OH239075   5.629   0.879  14.405 -0.3269  0.3966  0.5636
 5887TIP3    H139076   5.622   0.858  14.311 -0.0484 -0.9500  0.8197
 5887TIP3    H239077   5.667   0.966  14.407  0.9677 -0.1072 -0.5802
 5888TIP3   OH239078   3.143   1.002   3.286  0.5853  0.4575  0.2878
 5888TIP3    H139079   3.143   1.008   3.191 -0.0954 -1.4954  0.1150
 5888TIP3    H239080   3.185   1.082   3.316  0.4392  1.2870 -1.6384
 5889TIP3   OH239081   5.325   5.203   5.890 -0.0046 -0.4836 -0.4841
 5889TIP3    H139082   5.275   5.251   5.956  0.5364  2.5482 -2.0809
 5889TIP3    H239083   5.262   5.185   5.820 -0.0458 -1.6030 -0.1817
 5890TIP3   OH239084   2.010   6.436  11.495 -0.2214 -0.6522  0.1598
 5890TIP3    H139085   1.964   6.520  11.496  0.4376 -0.2282 -1.5897
 5890TIP3    H239086   2.094   6.456  11.453  1.0477 -1.6769  2.0627
 5891TIP3   OH239087   5.205   1.472   6.662 -0.4343  0.4427  0.0224
 5891TIP3    H139088   5.186   1.483   6.568  0.1422  1.0329 -0.0294
 5891TIP3    H239089   5.156   1.394   6.686  0.5889 -0.5912 -1.1136
 5892TIP3   OH239090   0.563   0.148   0.186  0.4206 -0.2283 -0.0516
 5892TIP3    H139091   0.638   0.129   0.242  1.3201  2.7107 -0.0897
 5892TIP3    H239092   0.573   0.240   0.163 -1.6988 -0.4753 -2.3958
 5893TIP3   OH239093   1.509   5.084   4.887  0.2069 -0.0873  0.5849
 5893TIP3    H139094   1.519   5.051   4.798 -1.7105 -0.0844  0.3252
 5893TIP3    H239095   1.458   5.017   4.932 -0.5565  0.8236  1.0998
 5894TIP3   OH239096   1.388   4.428  11.429  0.4304 -0.3878  0.0402
 5894TIP3    H139097   1.365   4.456  11.340  1.0658  1.7821  0.4837
 5894TIP3    H239098   1.472   4.471  11.446  0.9294 -1.8002  1.2507
 5895TIP3   OH239099   1.566   2.376   0.176 -0.2170 -0.2779  0.1674
 5895TIP3    H139100   1.572   2.352   0.084 -0.5421 -1.1477  0.3674
 5895TIP3    H239101   1.474   2.400   0.190  0.0243  0.7676  0.0569
 5896TIP3   OH239102   3.371   2.863  11.758  0.8562  0.0572  0.0400
 5896TIP3    H139103   3.320   2.830  11.684 -0.1222 -0.8504  1.0795
 5896TIP3    H239104   3.319   2.840  11.835  1.5622  1.4800  0.9963
 5897TIP3   OH239105   4.446   3.445  14.294 -0.0121  0.4519 -0.1171
 5897TIP3    H139106   4.355   3.474  14.300 -1.1810 -2.9563  1.9476
 5897TIP3    H239107   4.491   3.490  14.365  0.3233  3.0162 -1.8315
 5898TIP3   OH239108   3.868   3.861  11.720 -0.0236 -0.2303  0.2403
 5898TIP3    H139109   3.905   3.774  11.736  0.8258  0.1584  0.4191
 5898TIP3    H239110   3.795   3.845  11.660  0.8558 -0.9374 -0.6773
 5899TIP3   OH239111   5.829   1.239   5.471 -0.5895 -0.4477 -0.0037
 5899TIP3    H139112   5.923   1.234   5.455 -0.8770 -0.0504 -2.2342
 5899TIP3    H239113   5.809   1.332   5.467 -1.4584 -0.6669 -2.6554
 5900TIP3   OH239114   2.725   2.019   2.857  0.2634  0.2139 -0.1395
 5900TIP3    H139115   2.741   2.073   2.935 -2.2583  2.6538 -1.1394
 5900TIP3    H239116   2.740   1.929   2.886 -1.9038  0.8636  3.6507
 5901TIP3   OH239117   0.697   6.726   1.091 -0.1933 -0.1647 -0.1277
 5901TIP3    H139118   0.629   6.663   1.066  1.5119 -1.5463 -1.4555
 5901TIP3    H239119   0.685   6.799   1.031 -2.0298  0.7625  1.2637
 5902TIP3   OH239120   1.056   5.591  11.669 -0.3844  0.2713  0.3075
 5902TIP3    H139121   0.963   5.571  11.671 -0.6708  1.5146  0.2227
 5902TIP3    H239122   1.062   5.676  11.625  0.8710 -0.2019 -0.4855
 5903TIP3   OH239123   0.069   2.216   1.172  0.5200  0.1770  0.0624
 5903TIP3    H139124   0.030   2.162   1.103  1.7010 -0.2942 -0.2565
 5903TIP3    H239125   0.085   2.300   1.130 -1.4998  0.8985  0.6116
 5904TIP3   OH239126   2.831   4.899  12.791  0.3849  0.7562 -0.2683
 5904TIP3    H139127   2.802   4.850  12.868  1.2263  2.0354  0.9075
 5904TIP3    H239128   2.897   4.844  12.750 -0.9816 -0.5123 -0.8379
 5905TIP3   OH239129   5.288   4.480  13.445  0.5295  0.0332  0.1112
 5905TIP3    H139130   5.278   4.387  13.425  1.5396 -0.0621 -0.0376
 5905TIP3    H239131   5.314   4.519  13.361 -2.3734  0.9287 -0.4829
 5906TIP3   OH239132   4.166   0.246  15.111  0.0638 -0.8171 -0.3154
 5906TIP3    H139133   4.200   0.175  15.165  0.3081  0.0701  0.7412
 5906TIP3    H239134   4.170   0.323  15.168  2.7063  0.7406 -2.3814
 5907TIP3   OH239135   4.100   6.740  12.058 -0.0541 -0.4392  0.2391
 5907TIP3    H139136   4.161   6.668  12.072 -0.7407 -0.7959  1.6288
 5907TIP3    H239137   4.140   6.815  12.103 -0.7803 -0.7698  1.4791
 5908TIP3   OH239138   2.063   5.738  14.733 -0.5173  0.1556  0.0373
 5908TIP3    H139139   2.125   5.683  14.782 -2.3922 -2.4514 -0.3057
 5908TIP3    H239140   2.098   5.827  14.741  2.0598 -0.8959  1.6472
 5909TIP3   OH239141   2.822   6.565   4.672 -0.4005  1.2439  0.0603
 5909TIP3    H139142   2.747   6.624   4.662  0.1165  2.2925  1.8970
 5909TIP3    H239143   2.882   6.613   4.728  0.6954 -0.4645  0.4061
 5910TIP3   OH239144   1.597   2.784   4.073  0.2005  0.2969  0.6517
 5910TIP3    H139145   1.554   2.868   4.090 -1.0729 -0.3452  0.7055
 5910TIP3    H239146   1.623   2.753   4.160 -0.7157 -0.0704  0.8068
 5911TIP3   OH239147   6.276   1.576   5.358  0.0236 -0.1780  0.1149
 5911TIP3    H139148   6.199   1.619   5.322  0.3136  0.6757  0.4708
 5911TIP3    H239149   6.345   1.643   5.353  0.5280 -0.6487  0.5644
 5912TIP3   OH239150   4.021   3.682  10.336  0.3608  0.5555 -0.1458
 5912TIP3    H139151   4.031   3.590  10.312 -0.7603  0.4029 -0.0481
 5912TIP3    H239152   4.006   3.727  10.253  0.1425  0.5418 -0.1139
 5913TIP3   OH239153   4.271   6.300  11.292 -0.1085 -0.7777  0.1577
 5913TIP3    H139154   4.279   6.392  11.266 -0.0638 -0.8560 -0.1015
 5913TIP3    H239155   4.203   6.300  11.359  0.0527 -0.5216  0.3251
 5914TIP3   OH239156   3.349   4.817   4.991 -0.0782 -0.1266 -0.2363
 5914TIP3    H139157   3.356   4.751   4.923  1.3750 -0.3500  0.1140
 5914TIP3    H239158   3.408   4.887   4.963 -0.6407  0.4750  0.0376
 5915TIP3   OH239159   2.049   4.543  16.284 -0.0328 -0.1079 -0.2113
 5915TIP3    H139160   2.023   4.635  16.276  1.3921  0.3302 -0.0187
 5915TIP3    H239161   1.967   4.494  16.272 -0.7705  1.1658 -0.5689
 5916TIP3   OH239162   4.804   5.071  10.577  0.0051  0.1118  0.6695
 5916TIP3    H139163   4.834   5.058  10.668  0.0794 -0.0048  0.6286
 5916TIP3    H239164   4.812   5.166  10.563 -0.9240  0.2607  1.1044
 5917TIP3   OH239165   4.283   0.490  14.029  0.6890 -0.3018  0.3919
 5917TIP3    H139166   4.357   0.479  13.969 -0.1980  0.3592 -0.8711
 5917TIP3    H239167   4.263   0.584  14.025 -0.7335 -0.6073  0.0655
 5918TIP3   OH239168   0.391   1.582   2.391 -0.2930 -0.0588  0.3244
 5918TIP3    H139169   0.401   1.603   2.298  2.1729  0.2560  0.5925
 5918TIP3    H239170   0.325   1.513   2.393  0.0842 -0.5431 -1.7254
 5919TIP3   OH239171   2.995   3.356  16.932  0.3293  0.0207  0.0107
 5919TIP3    H139172   2.945   3.302  16.871 -0.0704  0.1615  0.2036
 5919TIP3    H239173   3.081   3.315  16.937 -0.0007 -0.6650  0.2328
 5920TIP3   OH239174   6.220   0.841   3.769  0.4000  0.3320  0.0598
 5920TIP3    H139175   6.232   0.865   3.861  0.0442 -0.2123  0.2515
 5920TIP3    H239176   6.227   0.924   3.722 -0.7070  0.8126  0.6958
 5921TIP3   OH239177   0.958   4.935   3.902 -0.9952  1.0396  0.0756
 5921TIP3    H139178   0.892   4.875   3.869  1.8895 -0.7578 -3.0123
 5921TIP3    H239179   0.988   4.895   3.984 -1.9090  0.5342  0.1746
 5922TIP3   OH239180   2.110   4.033   4.412 -0.3463 -0.0942 -0.7239
 5922TIP3    H139181   2.185   3.987   4.375  0.3526  0.7212 -0.3728
 5922TIP3    H239182   2.085   4.096   4.345 -0.5953 -0.2301 -0.7600
 5923TIP3   OH239183   5.356   5.730  12.674  0.0957 -0.2778  0.2374
 5923TIP3    H139184   5.271   5.708  12.712 -0.6808 -1.3930 -1.9664
 5923TIP3    H239185   5.399   5.645  12.662  0.2599  0.0006 -1.3700
 5924TIP3   OH239186   1.140   2.146   6.366 -0.0737 -0.0258 -0.0229
 5924TIP3    H139187   1.210   2.083   6.383  1.7548  1.2837 -2.0447
 5924TIP3    H239188   1.071   2.095   6.325  0.7255 -0.9914 -0.2011
 5925TIP3   OH239189   1.602   4.591  12.257  0.5396  0.4420  0.0093
 5925TIP3    H139190   1.548   4.590  12.177  0.0107 -2.3598  0.3149
 5925TIP3    H239191   1.576   4.672  12.301 -2.3507 -0.0228 -0.6224
 5926TIP3   OH239192   6.206   6.730  12.259 -0.8341 -0.1827 -0.6066
 5926TIP3    H139193   6.265   6.678  12.205 -1.8092  0.2694 -2.1978
 5926TIP3    H239194   6.154   6.665  12.307 -1.1002 -0.6773 -1.5283
 5927TIP3   OH239195   1.748   5.048   3.470 -0.1521  0.0626 -0.6219
 5927TIP3    H139196   1.664   5.002   3.480 -0.3659  0.5710  0.0244
 5927TIP3    H239197   1.744   5.117   3.535  1.6129 -1.1135  0.8028
 5928TIP3   OH239198   2.031   1.699  11.401  0.1336 -0.5367 -0.1265
 5928TIP3    H139199   2.119   1.716  11.435  0.0132 -0.0115 -0.0698
 5928TIP3    H239200   1.974   1.706  11.478 -0.0660  0.0519 -0.3249
 5929TIP3   OH239201   4.448   2.644   0.936  0.5154  0.3138  0.0907
 5929TIP3    H139202   4.534   2.686   0.941  0.7286 -0.0075 -0.7034
 5929TIP3    H239203   4.442   2.614   0.845 -0.5556  0.5835  0.0605
 5930TIP3   OH239204   2.326   5.907   2.784 -0.2351 -0.0693 -0.3466
 5930TIP3    H139205   2.336   5.975   2.851  1.2131 -0.9651  0.4051
 5930TIP3    H239206   2.396   5.924   2.722  1.4153 -1.9415  0.8760
 5931TIP3   OH239207   4.404   6.305   0.631  0.2733  0.6522 -0.0922
 5931TIP3    H139208   4.382   6.364   0.560 -0.4530  1.8215  1.0550
 5931TIP3    H239209   4.461   6.239   0.591  3.0674  3.3652 -0.9951
 5932TIP3   OH239210   5.041   1.258   1.503  0.0060 -0.6856  0.3235
 5932TIP3    H139211   5.134   1.273   1.523 -0.3253 -0.6752  1.9618
 5932TIP3    H239212   4.996   1.269   1.586 -1.4074 -1.3522 -0.3161
 5933TIP3   OH239213   5.182   2.918  16.823  0.2266  0.0740  0.1972
 5933TIP3    H139214   5.191   3.013  16.830 -0.1190  0.0444  1.3487
 5933TIP3    H239215   5.092   2.900  16.850  0.7174 -0.6860  1.4229
 5934TIP3   OH239216   0.204   2.827   3.999 -0.4519 -0.6245  0.4063
 5934TIP3    H139217   0.214   2.834   4.094  0.2739 -0.5451  0.3303
 5934TIP3    H239218   0.159   2.907   3.973 -1.9174 -1.2674  0.8430
 5935TIP3   OH239219   3.012   0.897   2.573  0.3599 -0.3621  0.0725
 5935TIP3    H139220   2.932   0.881   2.624 -0.1089 -0.1875 -0.5928
 5935TIP3    H239221   3.004   0.987   2.543  1.2741 -0.0348  0.7981
 5936TIP3   OH239222   0.705   4.320  13.150 -0.4025  0.3631  0.1214
 5936TIP3    H139223   0.688   4.263  13.226  3.1076  2.0697  2.4615
 5936TIP3    H239224   0.739   4.261  13.083  1.6910 -0.6446  1.9344
 5937TIP3   OH239225   0.502   4.008   0.926 -0.8302  0.3335  0.5944
 5937TIP3    H139226   0.574   3.953   0.894  0.6449  1.8720  1.0836
 5937TIP3    H239227   0.543   4.064   0.992 -2.5576  1.0954  1.0741
 5938TIP3   OH239228   5.599   3.135   3.718 -0.2101  0.0974  0.0335
 5938TIP3    H139229   5.652   3.115   3.795 -0.7729 -2.0547 -0.0724
 5938TIP3    H239230   5.509   3.112   3.744 -0.3079 -1.4397 -1.4440
 5939TIP3   OH239231   3.109   1.895   1.291  0.0624  1.2419 -0.5771
 5939TIP3    H139232   3.086   1.813   1.246  2.6604 -0.0749  0.3055
 5939TIP3    H239233   3.168   1.940   1.231 -0.7144  2.1369 -0.7040
 5940TIP3   OH239234   6.222   5.573   1.877 -0.6676  1.0447 -0.3724
 5940TIP3    H139235   6.236   5.602   1.787 -1.4115  1.7905 -0.2573
 5940TIP3    H239236   6.194   5.482   1.868  0.5078  0.7085 -0.8122
 5941TIP3   OH239237   1.914   6.036   0.216 -0.4285 -0.4252 -0.1030
 5941TIP3    H139238   1.912   6.076   0.302 -0.0619  0.7769 -0.6366
 5941TIP3    H239239   1.862   6.095   0.160 -1.1383 -1.4764 -0.5986
 5942TIP3   OH239240   3.322   6.575  12.935  0.2043  0.2873  0.0488
 5942TIP3    H139241   3.285   6.489  12.955  0.2404  0.9044  3.3162
 5942TIP3    H239242   3.369   6.600  13.014  2.1985  2.3553 -1.6465
 5943TIP3   OH239243   4.062   5.254  13.696  0.5602  1.1523  0.5831
 5943TIP3    H139244   4.031   5.211  13.617 -0.5316  0.8271  1.1641
 5943TIP3    H239245   4.027   5.343  13.691 -2.4069  0.1988  2.2291
 5944TIP3   OH239246   2.615   5.210   2.405 -0.1247 -0.2948 -0.4406
 5944TIP3    H139247   2.560   5.230   2.328  1.4230  1.5511 -1.1524
 5944TIP3    H239248   2.621   5.293   2.451 -0.8545 -1.3374  1.6429
 5945TIP3   OH239249   0.533   5.106  16.619 -0.2208  0.6375 -0.3536
 5945TIP3    H139250   0.482   5.108  16.538  1.9457  1.1421 -1.7841
 5945TIP3    H239251   0.523   5.194  16.656 -1.3220  0.3647  0.0302
 5946TIP3   OH239252   5.157   3.670   2.061  0.1926  0.5201  0.7175
 5946TIP3    H139253   5.161   3.733   2.132 -0.5112 -0.3230  1.5361
 5946TIP3    H239254   5.180   3.720   1.983  0.0854  1.6773  1.4021
 5947TIP3   OH239255   1.457   2.743  13.315 -0.2814  0.0787  0.9342
 5947TIP3    H139256   1.385   2.719  13.373 -1.2990  0.3677 -0.1789
 5947TIP3    H239257   1.481   2.661  13.271 -0.6878  0.1898  0.4948
 5948TIP3   OH239258   5.910   5.538   4.910  0.3545  0.1973  0.3553
 5948TIP3    H139259   5.855   5.599   4.861  0.3294  0.4092  0.6437
 5948TIP3    H239260   5.850   5.496   4.972 -0.0406 -1.5926 -1.1755
 5949TIP3   OH239261   0.154   3.752  14.258  0.2256 -0.1225  0.2028
 5949TIP3    H139262   0.147   3.714  14.171  0.4281 -0.8635  0.5037
 5949TIP3    H239263   0.194   3.838  14.243 -1.4388  0.5705 -0.6238
 5950TIP3   OH239264   6.672   2.687  15.138 -0.4772  0.0519  0.2315
 5950TIP3    H139265   6.745   2.712  15.082 -1.2501  1.2458 -0.2979
 5950TIP3    H239266   6.610   2.645  15.079 -0.3833 -0.6474  0.6136
 5951TIP3   OH239267   6.174   0.772   5.180  0.1315  0.3536  0.1666
 5951TIP3    H139268   6.087   0.803   5.206 -0.0469 -0.0012 -0.0075
 5951TIP3    H239269   6.162   0.680   5.160  0.5103  0.3504 -0.0514
 5952TIP3   OH239270   1.644   2.847   0.367 -0.1162  0.2003  0.0317
 5952TIP3    H139271   1.739   2.848   0.358  0.0814  0.0548  1.8035
 5952TIP3    H239272   1.617   2.935   0.339  0.7810  0.9851  1.4891
 5953TIP3   OH239273   5.064   6.607   3.432 -0.5725  0.2705  0.2213
 5953TIP3    H139274   5.136   6.670   3.439 -0.6258  0.3534  0.0481
 5953TIP3    H239275   5.035   6.594   3.522 -1.2233  1.2816  0.1755
 5954TIP3   OH239276   2.003   3.699   6.099  0.2567 -0.1275 -0.1665
 5954TIP3    H139277   2.061   3.739   6.164  0.6002  1.0386 -1.1554
 5954TIP3    H239278   1.920   3.747   6.109  0.5113  0.5108 -1.0068
 5955TIP3   OH239279   2.554   5.327  14.329  0.2947 -0.0751 -0.0621
 5955TIP3    H139280   2.569   5.253  14.270 -0.8054 -1.1380  0.9283
 5955TIP3    H239281   2.463   5.316  14.357  0.8515  0.2448  2.0227
 5956TIP3   OH239282   3.122   4.368   3.134 -0.0910  0.0868 -0.3818
 5956TIP3    H139283   3.194   4.397   3.189 -0.0293  1.5842 -1.1777
 5956TIP3    H239284   3.160   4.301   3.077  0.2638 -0.2535  0.2473
 5957TIP3   OH239285   3.056   5.101  14.523  1.1060 -0.0329  0.2182
 5957TIP3    H139286   3.141   5.091  14.481  0.1433 -0.6873 -1.7016
 5957TIP3    H239287   3.042   5.196  14.528  0.7965  0.0849 -2.0208
 5958TIP3   OH239288   4.592   0.697   0.063  0.0521  0.2058  0.3895
 5958TIP3    H139289   4.586   0.631   0.132 -1.1198 -1.0727 -0.8681
 5958TIP3    H239290   4.671   0.673   0.013  1.0815  1.3182  1.4195
 5959TIP3   OH239291   0.799   5.864   1.300 -0.2560  0.2720  0.3994
 5959TIP3    H139292   0.744   5.933   1.337 -2.0738 -0.4232 -0.8315
 5959TIP3    H239293   0.738   5.808   1.251  1.3438 -1.4477  0.2382
 5960TIP3   OH239294   3.832   2.270   6.159  0.3924  0.1512  0.1668
 5960TIP3    H139295   3.772   2.334   6.196  0.4413 -0.9392  2.2855
 5960TIP3    H239296   3.870   2.225   6.235  1.4713 -1.3605 -1.1864
 5961TIP3   OH239297   4.037   6.038  11.444 -0.2212  1.1396  0.6602
 5961TIP3    H139298   4.089   6.037  11.524  1.5748  0.6337 -0.4706
 5961TIP3    H239299   4.027   5.946  11.421 -3.3921  1.0520  1.8781
 5962TIP3   OH239300   1.283   6.412  16.434  0.2100  0.0580  0.4319
 5962TIP3    H139301   1.200   6.451  16.460  0.7115  1.6112 -0.1629
 5962TIP3    H239302   1.333   6.406  16.515  0.3107  1.1783  0.4662
 5963TIP3   OH239303   4.645   5.228   4.990  0.2846 -0.0675  0.0606
 5963TIP3    H139304   4.706   5.195   4.924 -0.1641 -1.1907  0.1773
 5963TIP3    H239305   4.594   5.151   5.016  0.8806  0.1952  2.1935
 5964TIP3   OH239306   3.904   0.791   5.369 -0.1167 -0.6958 -0.0578
 5964TIP3    H139307   3.886   0.763   5.459 -1.6969  0.6780  0.1009
 5964TIP3    H239308   3.999   0.800   5.365 -0.0800  0.2567  1.8094
 5965TIP3   OH239309   5.513   5.700  11.311  0.3635 -0.4583  1.0249
 5965TIP3    H139310   5.444   5.763  11.291 -1.1109 -2.0413  0.9459
 5965TIP3    H239311   5.524   5.650  11.230  1.1382 -0.6730  1.2554
 5966TIP3   OH239312   4.072   1.387  11.830  0.0944  0.2255 -0.2084
 5966TIP3    H139313   4.053   1.476  11.800  0.0429  0.3939  0.3038
 5966TIP3    H239314   4.035   1.384  11.918  1.0441  0.0372  0.1919
 5967TIP3   OH239315   5.145   4.921   2.376  0.1571 -0.4408  0.0500
 5967TIP3    H139316   5.180   4.954   2.459  0.0234 -1.4101  0.5042
 5967TIP3    H239317   5.052   4.946   2.378  0.4679  0.8738 -0.5155
 5968TIP3   OH239318   4.122   6.449  11.926 -0.3336  0.0538 -0.2107
 5968TIP3    H139319   4.086   6.378  11.873 -0.7091  0.6166 -0.7241
 5968TIP3    H239320   4.079   6.528  11.893 -0.0291  0.5061  0.4447
 5969TIP3   OH239321   6.025   3.518   1.377  0.3103 -0.4925  0.5943
 5969TIP3    H139322   5.938   3.512   1.418  0.5833 -0.2897  1.2192
 5969TIP3    H239323   6.034   3.609   1.351 -0.2826 -0.8279 -0.9004
 5970TIP3   OH239324   6.751   5.291  17.345 -0.2901 -0.3142 -0.1880
 5970TIP3    H139325   6.720   5.220  17.401  1.0159 -1.0331 -0.3353
 5970TIP3    H239326   6.710   5.370  17.381 -1.4985 -1.0828  0.1876
 5971TIP3   OH239327   4.577   5.376   0.656 -0.3512  0.3530  0.1883
 5971TIP3    H139328   4.532   5.295   0.633  1.4320 -0.2837 -1.2973
 5971TIP3    H239329   4.515   5.446   0.632 -0.1225 -0.4271 -3.1774
 5972TIP3   OH239330   1.128   1.710   2.141  0.0012  0.3885 -0.3682
 5972TIP3    H139331   1.151   1.803   2.141 -0.8655  0.6196 -0.7114
 5972TIP3    H239332   1.175   1.673   2.215  0.9179  0.9554 -0.6485
 5973TIP3   OH239333   1.901   5.906   0.761 -0.0802 -0.4113  0.1448
 5973TIP3    H139334   1.900   5.836   0.826 -2.6349 -0.7218 -0.1145
 5973TIP3    H239335   1.855   5.869   0.685 -2.9354  1.9153  0.5457
 5974TIP3   OH239336   2.913   1.257  15.648  0.4896 -0.5577 -0.2142
 5974TIP3    H139337   2.937   1.165  15.641  1.1466 -0.3184 -1.4410
 5974TIP3    H239338   2.964   1.290  15.722 -1.2306 -1.5889  1.5211
 5975TIP3   OH239339   4.430   0.884  16.303  0.2230  0.0738 -0.2750
 5975TIP3    H139340   4.414   0.816  16.369  2.2476 -0.3980 -0.2113
 5975TIP3    H239341   4.385   0.852  16.225  0.4615 -0.9558 -0.0103
 5976TIP3   OH239342   3.605   2.264   1.252  0.8186  0.2715  0.5394
 5976TIP3    H139343   3.682   2.215   1.283  1.6123  0.9633 -0.2942
 5976TIP3    H239344   3.639   2.321   1.184 -0.4157  0.7421  0.2993
 5977TIP3   OH239345   2.307   5.782   0.713  0.3187  0.0264 -0.5054
 5977TIP3    H139346   2.394   5.810   0.741  0.5547 -0.7800 -0.3875
 5977TIP3    H239347   2.250   5.858   0.728  0.3160 -0.4524  2.6063
 5978TIP3   OH239348   2.698   1.223   2.034  0.1638  0.1052 -0.2285
 5978TIP3    H139349   2.648   1.266   2.104 -0.0629 -0.5329  0.0104
 5978TIP3    H239350   2.779   1.273   2.028  0.2812  0.0439  0.6460
 5979TIP3   OH239351   5.095   4.214  15.177  0.0178 -0.1361  0.1225
 5979TIP3    H139352   5.152   4.231  15.102 -1.8055 -0.8169 -1.4920
 5979TIP3    H239353   5.019   4.271  15.163 -0.9992 -1.3168  0.6672
 5980TIP3   OH239354   1.720   1.134   2.634 -0.1137  0.1672 -0.0680
 5980TIP3    H139355   1.758   1.072   2.571  0.8966 -0.0101  0.6858
 5980TIP3    H239356   1.740   1.220   2.598  1.3808  0.0892  0.4730
 5981TIP3   OH239357   1.069   4.768   5.415 -0.2212 -0.0714 -0.4301
 5981TIP3    H139358   1.126   4.830   5.369  0.1957 -0.5274 -0.5304
 5981TIP3    H239359   0.985   4.777   5.370 -0.5424  1.3493  0.3790
 5982TIP3   OH239360   6.447   1.847   6.150 -0.3992  0.3383  0.7608
 5982TIP3    H139361   6.532   1.851   6.192  0.1252 -0.2020 -0.2180
 5982TIP3    H239362   6.465   1.822   6.060 -1.7938 -3.0837  1.2914
 5983TIP3   OH239363   2.173   5.762  16.341  0.3276  0.5022  0.4897
 5983TIP3    H139364   2.256   5.795  16.376  0.3090 -0.3202  1.3572
 5983TIP3    H239365   2.196   5.727  16.255  1.0205 -0.3066  0.9919
 5984TIP3   OH239366   1.981   4.955   3.811  0.1176 -0.2095  0.0320
 5984TIP3    H139367   1.970   5.039   3.855  0.9184 -0.5120  0.8410
 5984TIP3    H239368   1.911   4.899   3.846 -2.0510  0.7891 -2.3576
 5985TIP3   OH239369   0.819   5.369  17.290 -0.0691  0.1429  0.3122
 5985TIP3    H139370   0.861   5.405  17.368 -0.2695 -0.5957  0.7746
 5985TIP3    H239371   0.734   5.413  17.286 -0.0219  0.2462  0.4644
 5986TIP3   OH239372   5.525   6.255  13.267  0.0895 -0.2459  0.4230
 5986TIP3    H139373   5.475   6.174  13.262 -3.5528  1.7634  0.0145
 5986TIP3    H239374   5.495   6.296  13.348 -2.8011  3.1174 -2.0096
 5987TIP3   OH239375   2.033   1.962   2.291 -0.0170 -0.1861  0.5086
 5987TIP3    H139376   1.967   1.999   2.231 -1.3673 -1.3191  1.2411
 5987TIP3    H239377   2.093   1.916   2.233 -1.4447 -1.4839 -0.0123
 5988TIP3   OH239378   4.152   4.839  15.526  0.1267 -0.3341 -0.2993
 5988TIP3    H139379   4.178   4.925  15.561 -1.8233 -0.5526  1.8524
 5988TIP3    H239380   4.235   4.795  15.507  1.1815  1.5448 -0.3014
 5989TIP3   OH239381   1.536   4.646   3.910  0.1348  0.7262  0.1042
 5989TIP3    H139382   1.513   4.580   3.845  2.0241  1.0495 -0.9757
 5989TIP3    H239383   1.552   4.597   3.991 -2.5424  0.3529  0.5141
 5990TIP3   OH239384   5.941   4.705  14.168  0.1928 -0.7895 -0.2858
 5990TIP3    H139385   5.935   4.627  14.113  2.5230 -2.4243  1.5626
 5990TIP3    H239386   6.004   4.761  14.123 -0.4089 -0.5875 -0.9007
 5991TIP3   OH239387   6.032   0.590  13.646 -0.3612  0.2303 -0.2774
 5991TIP3    H139388   6.113   0.559  13.685 -1.3164 -0.6963  1.0529
 5991TIP3    H239389   6.051   0.595  13.552  1.2060  0.0110  0.0001
 5992TIP3   OH239390   1.625   1.505  14.300 -0.6311 -0.3086 -0.6477
 5992TIP3    H139391   1.621   1.491  14.205 -1.5680 -0.2948 -0.6210
 5992TIP3    H239392   1.588   1.425  14.338 -2.5655  0.6505 -0.3893
 5993TIP3   OH239393   6.011   1.870   0.202  0.6623  0.1905 -0.0871
 5993TIP3    H139394   6.029   1.851   0.110 -0.2719 -0.0842 -0.2245
 5993TIP3    H239395   6.078   1.820   0.250 -0.2370 -1.5386 -0.5457
 5994TIP3   OH239396   1.928   4.188   4.210  0.0738 -0.0499 -0.1837
 5994TIP3    H139397   1.881   4.254   4.260 -0.4480 -1.0771  0.7206
 5994TIP3    H239398   1.928   4.221   4.120 -1.1536  0.6378  0.0543
 5995TIP3   OH239399   1.839   5.496  17.231  0.5578 -0.1724  0.5822
 5995TIP3    H139400   1.853   5.441  17.154 -1.5884 -0.4389  0.3272
 5995TIP3    H239401   1.858   5.439  17.306 -2.0264 -1.5136  0.3423
 5996TIP3   OH239402   5.961   5.078  16.673  0.0843 -0.2403  0.3638
 5996TIP3    H139403   6.007   5.146  16.624 -0.0326 -0.1818  0.3367
 5996TIP3    H239404   6.004   5.078  16.759 -1.0318  1.0524  0.9571
 5997TIP3   OH239405   3.255   4.222   2.912 -0.0043  0.2547 -0.0480
 5997TIP3    H139406   3.297   4.152   2.863  0.2039  0.7139 -0.5397
 5997TIP3    H239407   3.256   4.297   2.852  2.3738  1.5303  1.4164
 5998TIP3   OH239408   4.760   1.719   5.310 -0.2461  0.4236 -0.5187
 5998TIP3    H139409   4.750   1.667   5.230 -0.6296  0.7643 -0.7010
 5998TIP3    H239410   4.853   1.740   5.314 -0.2473  0.5358 -0.9663
 5999TIP3   OH239411   4.210   1.763  12.185 -0.2909  0.3995  0.0580
 5999TIP3    H139412   4.134   1.772  12.127 -0.5024  3.9366  0.6177
 5999TIP3    H239413   4.175   1.773  12.273  0.7646  2.3955  0.3118
 6000TIP3   OH239414   2.377   4.444   1.003 -0.6463  0.0994  0.0818
 6000TIP3    H139415   2.405   4.431   0.912  1.1402  1.2512  0.4246
 6000TIP3    H239416   2.327   4.364   1.024  2.0011 -1.9207 -0.7486
 6001TIP3   OH239417   2.498   0.458   1.432  0.2298 -1.3016 -0.0201
 6001TIP3    H139418   2.555   0.402   1.483  0.8741 -1.4309 -0.8524
 6001TIP3    H239419   2.420   0.470   1.486  2.2450  1.4304  2.5944
 6002TIP3   OH239420   1.120   5.697   0.171 -0.3432  0.3268  0.3281
 6002TIP3    H139421   1.111   5.713   0.265 -0.0345 -1.4443  0.6943
 6002TIP3    H239422   1.214   5.684   0.158 -0.3184  1.1252 -0.3390
 6003TIP3   OH239423   6.687   4.121   0.097 -0.8877 -0.4369  0.4289
 6003TIP3    H139424   6.759   4.182   0.114 -2.0347  1.2011 -0.3969
 6003TIP3    H239425   6.609   4.176   0.095 -1.8524 -1.7892 -1.3398
 6004TIP3   OH239426   6.318   0.066  15.474  0.2338  0.1819 -0.7263
 6004TIP3    H139427   6.395   0.084  15.420  1.1120  1.2146  0.7835
 6004TIP3    H239428   6.293   0.152  15.508  1.0228 -0.6215  2.1646
 6005TIP3   OH239429   4.659   3.267  14.618  0.0683 -0.2767 -0.2025
 6005TIP3    H139430   4.666   3.276  14.523 -2.3194 -0.2282 -0.4415
 6005TIP3    H239431   4.635   3.355  14.648  1.4687 -0.1262  0.5643
 6006TIP3   OH239432   4.250   4.285  11.315  0.0099  1.2891  0.2691
 6006TIP3    H139433   4.228   4.246  11.230 -0.7763  1.4229  0.4015
 6006TIP3    H239434   4.210   4.372  11.312  0.7721  1.6555  0.4276
 6007TIP3   OH239435   4.573   4.738   3.810 -0.2843  0.5617 -1.0916
 6007TIP3    H139436   4.560   4.746   3.905 -1.1239  0.7368 -1.2077
 6007TIP3    H239437   4.668   4.740   3.798 -0.0381 -2.0433 -0.0464
 6008TIP3   OH239438   2.736   4.260  10.773  0.0537  0.2116 -0.0469
 6008TIP3    H139439   2.828   4.236  10.766  0.4146  1.3486  0.5053
 6008TIP3    H239440   2.730   4.345  10.730 -1.3492 -1.1318 -2.7013
 6009TIP3   OH239441   5.897   1.410  13.679  0.4672  0.0614  0.8214
 6009TIP3    H139442   5.903   1.500  13.712 -0.6610  0.8571 -0.9774
 6009TIP3    H239443   5.854   1.362  13.749 -0.7000  1.3819  1.0573
 6010TIP3   OH239444   2.754   0.629   4.811  0.0319 -0.2494  0.1918
 6010TIP3    H139445   2.666   0.622   4.847 -0.4955  0.7783 -0.8315
 6010TIP3    H239446   2.797   0.695   4.865  0.3607 -1.0842  0.9889
 6011TIP3   OH239447   3.112   0.180   2.040  0.7989 -0.0077 -0.2517
 6011TIP3    H139448   3.099   0.098   2.088 -0.7919  0.4715  0.2154
 6011TIP3    H239449   3.080   0.162   1.952  0.2873  0.1426 -0.1017
 6012TIP3   OH239450   0.706   1.968  13.740  0.5004  0.2760 -0.7132
 6012TIP3    H139451   0.613   1.971  13.717  0.1407 -0.9603  0.4326
 6012TIP3    H239452   0.710   2.004  13.829  0.8030 -1.4680  0.0205
 6013TIP3   OH239453   5.370   2.942  13.472  0.6056 -0.0544 -0.5302
 6013TIP3    H139454   5.429   3.013  13.499  0.6769 -0.0427 -0.7181
 6013TIP3    H239455   5.295   2.987  13.432  0.7400 -0.0938 -0.8244
 6014TIP3   OH239456   2.970   0.859   4.062 -0.0783  0.1650 -0.3778
 6014TIP3    H139457   2.951   0.940   4.109  2.0491  1.2590 -1.2387
 6014TIP3    H239458   2.951   0.789   4.125 -0.6765  1.3906  0.8466
 6015TIP3   OH239459   6.509   6.727  15.939  0.5030 -0.3727 -0.3216
 6015TIP3    H139460   6.428   6.776  15.927  1.2647  0.5915 -1.7156
 6015TIP3    H239461   6.534   6.699  15.851  1.8175 -0.4377  0.0490
 6016TIP3   OH239462   2.969   3.360   1.373  0.2582  0.0700 -0.2484
 6016TIP3    H139463   2.888   3.371   1.323 -0.3242  0.6277  0.8030
 6016TIP3    H239464   3.008   3.280   1.336 -0.9721 -0.4581 -0.4806
 6017TIP3   OH239465   3.892   4.458  11.667 -0.3320  0.0990 -0.1726
 6017TIP3    H139466   3.951   4.488  11.599  0.8958 -1.5128  0.1149
 6017TIP3    H239467   3.946   4.454  11.746 -0.5836 -2.0182 -0.0426
 6018TIP3   OH239468   1.316   5.467  17.244 -0.1085 -0.0888 -0.2308
 6018TIP3    H139469   1.391   5.431  17.198 -0.2733 -0.3495 -0.2944
 6018TIP3    H239470   1.354   5.511  17.321  0.2643  1.2512 -1.1496
 6019TIP3   OH239471   0.043   6.211  11.693  0.0709  0.2158 -0.1379
 6019TIP3    H139472   0.108   6.243  11.756  1.3288 -0.7365 -0.8980
 6019TIP3    H239473  -0.017   6.285  11.681 -1.0193  0.0439  3.1202
 6020TIP3   OH239474   4.524   5.191   3.030 -0.8722 -0.2043 -0.2175
 6020TIP3    H139475   4.508   5.184   3.124 -0.2229  0.2493 -0.0641
 6020TIP3    H239476   4.502   5.281   3.009  0.1907  0.0600 -0.2465
 6021TIP3   OH239477   6.164   6.322  12.181 -0.3507  0.1779 -1.1852
 6021TIP3    H139478   6.201   6.394  12.130  0.7370  0.2109 -0.3777
 6021TIP3    H239479   6.221   6.247  12.161  0.2433  0.2512  0.1540
 6022TIP3   OH239480   4.926   6.114  12.743  1.0497 -0.0824 -0.1572
 6022TIP3    H139481   4.995   6.064  12.698  2.6355  2.4190 -0.7513
 6022TIP3    H239482   4.869   6.144  12.673  1.5421  0.9351 -0.1496
 6023TIP3   OH239483   1.083   5.988  16.199  0.0928  0.0054  0.1878
 6023TIP3    H139484   1.040   6.029  16.124 -0.0172 -1.1510 -0.4128
 6023TIP3    H239485   1.149   5.930  16.159  0.7032  0.1100  1.0251
 6024TIP3   OH239486   1.034   4.763  17.060 -0.0737 -0.0880  0.2140
 6024TIP3    H139487   1.005   4.680  17.096  0.3125 -0.4768 -0.3538
 6024TIP3    H239488   1.129   4.755  17.052 -0.0939  0.1789 -0.3927
 6025TIP3   OH239489   0.167   5.128   0.755 -0.5233  0.0210  0.2013
 6025TIP3    H139490   0.163   5.106   0.662  1.1223  0.3326  0.0251
 6025TIP3    H239491   0.243   5.079   0.788 -0.7645  0.3353  1.2652
 6026TIP3   OH239492   4.818   0.174   1.497  0.1087  0.2755 -0.6737
 6026TIP3    H139493   4.737   0.222   1.512 -0.1947 -0.0863 -1.1328
 6026TIP3    H239494   4.880   0.211   1.561 -0.8835 -0.5904  0.8554
 6027TIP3   OH239495   3.740   1.752  12.427 -0.3961 -0.4126 -0.1059
 6027TIP3    H139496   3.713   1.837  12.461 -0.3817 -0.9438  1.3025
 6027TIP3    H239497   3.657   1.705  12.413 -0.3588 -1.0289  1.5077
 6028TIP3   OH239498   4.746   5.685   0.618  0.0956  0.3145 -0.4380
 6028TIP3    H139499   4.651   5.676   0.615  0.1765 -4.9371  1.7215
 6028TIP3    H239500   4.777   5.651   0.534  0.1395  0.9097 -0.6706
 6029TIP3   OH239501   6.491   0.206   4.020  0.1462  0.6216  0.2373
 6029TIP3    H139502   6.474   0.291   3.979  0.9325 -0.8295 -3.5195
 6029TIP3    H239503   6.586   0.196   4.018  0.2287  0.4745  2.6377
 6030TIP3   OH239504   5.887   5.713   4.414 -0.3783  0.1647 -0.6696
 6030TIP3    H139505   5.955   5.779   4.422 -0.4569  0.1268  0.6449
 6030TIP3    H239506   5.848   5.708   4.502 -2.2234  0.3497 -1.4167
 6031TIP3   OH239507   0.738   1.210  13.349 -0.5883  0.1132  0.6229
 6031TIP3    H139508   0.803   1.149  13.315  0.2281  0.6776  1.1305
 6031TIP3    H239509   0.770   1.296  13.322 -1.0106  0.4123  1.0576
 6032TIP3   OH239510   6.679   1.166   0.891  0.8712  0.9740  0.0387
 6032TIP3    H139511   6.616   1.094   0.901 -1.6687  3.1282  0.8907
 6032TIP3    H239512   6.724   1.170   0.976  1.5982 -0.0315 -0.2756
 6033TIP3   OH239513   0.160   4.325   3.314  0.1637  0.8943 -0.1149
 6033TIP3    H139514   0.229   4.259   3.320 -0.5321  0.2818  2.7242
 6033TIP3    H239515   0.179   4.386   3.386 -2.3774  0.4768  1.0406
 6034TIP3   OH239516   6.341   3.512  11.800 -0.0228  0.2414  0.0301
 6034TIP3    H139517   6.272   3.447  11.789  1.6513 -1.7842  0.7875
 6034TIP3    H239518   6.389   3.511  11.717  0.2703  0.1673  0.1984
 6035TIP3   OH239519   3.458   0.641   4.915  0.5341  0.0935 -0.3807
 6035TIP3    H139520   3.518   0.567   4.918  0.6292  0.1899  0.0780
 6035TIP3    H239521   3.390   0.614   4.853  0.5319 -0.4013 -0.1696
 6036TIP3   OH239522   4.500   3.616   5.363 -0.1500 -0.2366  0.5025
 6036TIP3    H139523   4.430   3.647   5.305 -0.1584  0.2747  0.7810
 6036TIP3    H239524   4.474   3.646   5.450  1.1303  1.2337  0.4130
 6037TIP3   OH239525   4.975   6.261  16.669 -0.5947  0.2666 -0.1194
 6037TIP3    H139526   4.896   6.257  16.723  0.2490  2.2014  1.3627
 6037TIP3    H239527   4.976   6.349  16.632  1.5111  0.8105  1.0214
 6038TIP3   OH239528   4.221   5.737  16.458  0.6023 -0.6258 -0.0841
 6038TIP3    H139529   4.126   5.749  16.449  0.7361  0.1033 -0.6153
 6038TIP3    H239530   4.233   5.710  16.549  0.0116  0.7796  0.4444
 6039TIP3   OH239531   1.185   5.455  16.429 -0.0968  0.3167 -0.3399
 6039TIP3    H139532   1.236   5.392  16.480 -0.2060  1.2010  0.9119
 6039TIP3    H239533   1.197   5.427  16.338 -0.6297 -1.8538  0.1988
 6040TIP3   OH239534   0.439   4.047   4.239  0.2362  0.7839 -0.2452
 6040TIP3    H139535   0.402   3.972   4.193 -0.4697  0.7156  0.4159
 6040TIP3    H239536   0.522   4.063   4.195  0.3760 -0.3507 -0.4316
 6041TIP3   OH239537   0.749   4.196   1.646 -0.4643  0.3041 -0.2626
 6041TIP3    H139538   0.697   4.156   1.715  0.0056 -1.6751 -0.9938
 6041TIP3    H239539   0.739   4.290   1.660 -1.2228 -0.0402  1.8364
 6042TIP3   OH239540   6.630   4.863   5.641 -0.3231  0.1785  0.2497
 6042TIP3    H139541   6.556   4.805   5.622 -0.2921  0.2778 -0.1926
 6042TIP3    H239542   6.655   4.841   5.731 -1.5018  0.8292  0.7600
 6043TIP3   OH239543   6.718   4.786  12.513  0.5667  0.1733 -0.2015
 6043TIP3    H139544   6.715   4.712  12.453 -2.3950  0.6928 -0.8771
 6043TIP3    H239545   6.698   4.749  12.599 -1.4662  0.1754 -0.6254
 6044TIP3   OH239546   0.141   4.190   5.944 -0.1097  0.4097 -0.2036
 6044TIP3    H139547   0.091   4.237   6.011 -1.0888 -0.6388 -0.1744
 6044TIP3    H239548   0.176   4.259   5.888 -1.4887  1.1798 -0.1611
 6045TIP3   OH239549   4.744   5.086  13.343  0.1093  0.5743 -0.6345
 6045TIP3    H139550   4.690   5.020  13.386 -0.3999  1.8538  0.7863
 6045TIP3    H239551   4.738   5.066  13.250  1.8358 -2.7809 -0.1964
 6046TIP3   OH239552   5.537   3.167  13.574 -0.1060 -0.5873  0.1470
 6046TIP3    H139553   5.557   3.226  13.646  0.1732  0.6391 -0.9010
 6046TIP3    H239554   5.608   3.181  13.511 -0.9622 -0.7466 -0.8819
 6047TIP3   OH239555   0.561   1.175   2.632  0.3276  0.2762  0.2244
 6047TIP3    H139556   0.571   1.240   2.701 -2.7285  0.8439  0.2321
 6047TIP3    H239557   0.552   1.227   2.552  1.9496 -0.3267 -0.3916
 6048TIP3   OH239558   6.620   2.503   1.127 -0.2341  0.8328  0.1374
 6048TIP3    H139559   6.714   2.488   1.117 -0.6834 -1.4479 -1.6852
 6048TIP3    H239560   6.598   2.566   1.059 -0.3448 -0.5164 -1.1347
 6049TIP3   OH239561   5.313   1.183  13.090 -0.0710  0.0775 -0.9250
 6049TIP3    H139562   5.406   1.207  13.092 -0.1802  0.5650  2.3132
 6049TIP3    H239563   5.305   1.111  13.152 -1.3840 -2.4021 -3.6896
 6050TIP3   OH239564   5.570   2.124   5.700  0.4365 -0.3771 -0.9676
 6050TIP3    H139565   5.629   2.192   5.733 -0.7015  1.1310 -1.9026
 6050TIP3    H239566   5.520   2.097   5.776  0.0167  0.7773 -0.8153
 6051TIP3   OH239567   5.505   5.138  14.170  0.1686 -0.3843 -0.1188
 6051TIP3    H139568   5.595   5.105  14.168 -0.6276 -2.8166  0.8728
 6051TIP3    H239569   5.462   5.087  14.239 -2.3994 -0.4701 -1.6628
 6052TIP3   OH239570   6.709   3.623   2.495 -0.2464  0.1825 -0.0668
 6052TIP3    H139571   6.784   3.619   2.555 -0.2894  1.9576  0.1885
 6052TIP3    H239572   6.636   3.587   2.545  0.3882 -1.4620 -0.2791
 6053TIP3   OH239573   3.933   6.739  11.483 -0.3018 -0.3734  0.1161
 6053TIP3    H139574   3.981   6.708  11.560 -0.8430  0.1635  0.6742
 6053TIP3    H239575   3.996   6.731  11.411  0.5335  0.0183  0.7833
 6054TIP3   OH239576   4.932   4.814  11.774 -0.1940  0.1550 -0.0912
 6054TIP3    H139577   4.918   4.730  11.729 -0.9280 -0.1309  0.6306
 6054TIP3    H239578   4.857   4.867  11.748 -1.2301 -0.3984  1.6130
 6055TIP3   OH239579   2.009   1.931  16.946 -0.3931 -0.4175  0.2116
 6055TIP3    H139580   1.992   1.957  17.036 -2.1149  0.5436 -0.3475
 6055TIP3    H239581   2.105   1.932  16.938 -0.2338  2.5856  1.1914
 6056TIP3   OH239582   5.614   4.240  12.925  0.1222 -0.0549  0.1661
 6056TIP3    H139583   5.666   4.256  13.004  0.0587  0.3750  0.1249
 6056TIP3    H239584   5.598   4.146  12.925 -0.4452  0.0259  1.0228
 6057TIP3   OH239585   4.283   1.595   3.157  0.0377  0.6773 -0.3566
 6057TIP3    H139586   4.263   1.687   3.139 -2.1887  0.3226  0.1207
 6057TIP3    H239587   4.204   1.548   3.132  1.4494 -1.2604 -1.4403
 6058TIP3   OH239588   1.430   0.361   1.500 -0.1457  0.0529  0.2548
 6058TIP3    H139589   1.406   0.336   1.411 -1.3868  0.7323  0.3787
 6058TIP3    H239590   1.351   0.345   1.551  0.8349 -1.2266  1.4308
 6059TIP3   OH239591   0.297   1.827  12.408  0.2356 -0.6406  0.3845
 6059TIP3    H139592   0.205   1.836  12.432 -0.7271  0.3224 -3.0516
 6059TIP3    H239593   0.343   1.888  12.466 -1.0144 -2.0289  2.9978
 6060TIP3   OH239594   0.664   1.935   3.452  0.5766 -0.6122 -0.1153
 6060TIP3    H139595   0.627   2.008   3.403 -0.6355  0.0097  1.6346
 6060TIP3    H239596   0.686   1.972   3.538  0.5374 -2.1334  0.5822
 6061TIP3   OH239597   2.132   4.185   0.177 -0.5033 -0.1824 -0.1783
 6061TIP3    H139598   2.098   4.118   0.118 -1.3929  0.2359 -0.1538
 6061TIP3    H239599   2.066   4.192   0.246 -0.6444  1.0355 -0.4240
 6062TIP3   OH239600   6.199   5.221   0.953 -0.3104 -0.4416  0.2764
 6062TIP3    H139601   6.124   5.172   0.919  0.2217 -1.0726 -0.0074
 6062TIP3    H239602   6.270   5.201   0.893 -0.2089  1.1528 -0.1740
 6063TIP3   OH239603   4.831   4.335  12.280  0.2024  0.2242  0.2302
 6063TIP3    H139604   4.875   4.421  12.284 -2.5909  1.7374  1.1153
 6063TIP3    H239605   4.888   4.277  12.330  0.8003  2.2980  2.1492
 6064TIP3   OH239606   0.655   1.074  15.675  0.0423 -0.0877 -0.2047
 6064TIP3    H139607   0.629   0.983  15.691  0.5993  0.1095  2.1822
 6064TIP3    H239608   0.589   1.107  15.615 -2.0498 -1.1892  1.3540
 6065TIP3   OH239609   5.347   1.189  15.891  0.2779  0.1013 -0.0288
 6065TIP3    H139610   5.273   1.151  15.938 -0.8694 -0.6335 -2.2744
 6065TIP3    H239611   5.396   1.113  15.858 -0.6111  0.5008 -2.4352
 6066TIP3   OH239612   3.546   6.533   1.131 -0.5028 -0.1186 -0.2814
 6066TIP3    H139613   3.562   6.626   1.141 -1.2879  0.1581 -1.3984
 6066TIP3    H239614   3.462   6.518   1.175 -0.3664 -0.3050 -0.0818
 6067TIP3   OH239615   1.172   5.979  16.714  0.1868 -1.0344 -0.0392
 6067TIP3    H139616   1.138   5.911  16.772 -0.7093 -1.7380 -1.3313
 6067TIP3    H239617   1.137   5.956  16.627  0.8924  0.3770 -0.7299
 6068TIP3   OH239618   4.108   1.281   1.510 -0.4878  0.0978  0.2581
 6068TIP3    H139619   4.129   1.354   1.568 -1.5115  1.7137 -1.2844
 6068TIP3    H239620   4.129   1.314   1.422 -1.3424 -1.3185 -0.5186
 6069TIP3   OH239621   1.814   2.072   5.704  0.0836 -0.0959 -0.0971
 6069TIP3    H139622   1.895   2.117   5.681 -0.0801  0.1346 -0.2352
 6069TIP3    H239623   1.835   2.024   5.784  0.6289 -0.8099 -0.6558
 6070TIP3   OH239624   0.964   0.353  16.877 -1.0761 -0.1378  0.1381
 6070TIP3    H139625   1.059   0.350  16.885 -0.8140 -0.2187 -2.1769
 6070TIP3    H239626   0.933   0.275  16.922  0.0110 -0.5005  0.2782
 6071TIP3   OH239627   4.848   0.978  17.017 -0.6339 -0.5197 -0.1142
 6071TIP3    H139628   4.923   1.012  16.968  0.5985 -1.2829  1.1662
 6071TIP3    H239629   4.772   1.022  16.979  0.3793 -0.2389 -1.9095
 6072TIP3   OH239630   1.005   4.395   3.721  0.0549  0.5199  0.5893
 6072TIP3    H139631   1.062   4.343   3.664  0.5444  1.8346 -0.1739
 6072TIP3    H239632   0.918   4.356   3.709  0.7493 -1.6537  1.9402
 6073TIP3   OH239633   5.605   6.062  12.511 -0.3121  0.0396 -0.0917
 6073TIP3    H139634   5.682   6.039  12.563  0.3981  0.9413 -0.6987
 6073TIP3    H239635   5.532   6.063  12.573 -0.1457 -2.3526  0.2202
 6074TIP3   OH239636   2.146   1.923   4.934 -0.3028 -0.1476  0.5916
 6074TIP3    H139637   2.206   1.994   4.956 -1.4638  0.0784  3.4826
 6074TIP3    H239638   2.202   1.853   4.902  0.9361  1.7824 -1.7969
 6075TIP3   OH239639   1.392   0.977  11.391 -0.3543 -0.4011 -0.1556
 6075TIP3    H139640   1.444   1.011  11.464  0.5987 -1.3677 -0.3574
 6075TIP3    H239641   1.402   1.043  11.322 -0.3499 -0.0209  0.2047
 6076TIP3   OH239642   6.073   0.621   3.013 -0.4578  0.2849  0.0318
 6076TIP3    H139643   6.093   0.642   2.921 -2.0139  1.5655 -0.0614
 6076TIP3    H239644   6.094   0.528   3.021 -0.7685  0.0074 -1.7756
 6077TIP3   OH239645   5.499   0.160  12.408  0.7045  0.4926  0.3107
 6077TIP3    H139646   5.476   0.197  12.323  2.2170  1.6686  0.3833
 6077TIP3    H239647   5.556   0.086  12.388 -2.1124 -1.8621  0.1809
 6078TIP3   OH239648   3.576   1.749  15.468 -0.0608 -0.1724 -0.6682
 6078TIP3    H139649   3.503   1.744  15.407 -1.5183  2.0027  0.7679
 6078TIP3    H239650   3.576   1.664  15.513 -0.9954 -0.6059 -1.4541
 6079TIP3   OH239651   2.735   5.849   4.274 -0.3654  0.2248  0.2489
 6079TIP3    H139652   2.698   5.864   4.360 -0.4533  1.7552 -0.0297
 6079TIP3    H239653   2.754   5.755   4.272  0.5282  0.3076  2.2777
 6080TIP3   OH239654   0.831   3.058  16.508  0.3423  0.1530 -0.3456
 6080TIP3    H139655   0.763   3.094  16.566  0.7684 -0.3101  0.4614
 6080TIP3    H239656   0.783   3.010  16.441 -0.2210  1.7961 -1.1672
 6081TIP3   OH239657   1.700   5.415   2.874 -0.0611  0.0704 -0.2596
 6081TIP3    H139658   1.777   5.463   2.842  0.1236  0.0583  0.1567
 6081TIP3    H239659   1.708   5.418   2.969 -0.8751  0.5430 -0.1964
 6082TIP3   OH239660   4.566   3.135   5.498  0.5585  0.6169  0.2950
 6082TIP3    H139661   4.541   3.228   5.490 -0.0549  0.4012 -0.4906
 6082TIP3    H239662   4.555   3.100   5.409  2.8994  0.2916  0.0751
 6083TIP3   OH239663   3.013   3.995   3.892 -0.7285 -0.0945 -0.0845
 6083TIP3    H139664   3.068   3.918   3.883  0.4495  0.5476  1.1433
 6083TIP3    H239665   3.074   4.069   3.889 -1.5157  0.6493  1.0929
 6084TIP3   OH239666   2.802   3.199  13.480  0.2393 -0.4732  0.4256
 6084TIP3    H139667   2.863   3.210  13.407  1.3579  0.2438  1.4274
 6084TIP3    H239668   2.776   3.107  13.476  0.0422 -0.3732 -1.0388
 6085TIP3   OH239669   0.907   5.194  16.964  0.3458 -0.1639  0.7580
 6085TIP3    H139670   0.820   5.207  17.003  0.5903  0.6232  1.0593
 6085TIP3    H239671   0.909   5.101  16.942 -1.9700  0.3886 -2.6118
 6086TIP3   OH239672   2.777   4.438   4.206  0.2996  0.3167  0.0625
 6086TIP3    H139673   2.775   4.438   4.302  0.4737  2.1373  0.1086
 6086TIP3    H239674   2.870   4.438   4.185  0.2988 -2.3474 -0.1971
 6087TIP3   OH239675   0.016   5.986   0.467  0.2830 -0.2203 -0.1527
 6087TIP3    H139676   0.064   6.049   0.413  0.8493  0.2760  0.8832
 6087TIP3    H239677  -0.075   5.998   0.442  0.5435 -0.1566 -1.1368
 6088TIP3   OH239678   1.036   1.659   1.185 -0.0271 -0.4447  0.2498
 6088TIP3    H139679   1.046   1.589   1.121  0.2175 -0.6234  0.4799
 6088TIP3    H239680   1.104   1.722   1.164 -0.9131  0.2535 -0.6216
 6089TIP3   OH239681   3.535   6.336   4.156 -0.0814 -0.6122  0.3055
 6089TIP3    H139682   3.600   6.370   4.218  1.1883  0.6941 -1.6183
 6089TIP3    H239683   3.472   6.408   4.147 -0.2026 -0.7557  0.0192
 6090TIP3   OH239684   6.149   0.038  13.249  0.6201  0.5896 -0.5874
 6090TIP3    H139685   6.090   0.075  13.315  2.7680  0.9669  1.2666
 6090TIP3    H239686   6.165   0.111  13.189  1.1871  1.2914  0.3841
 6091TIP3   OH239687   4.585   6.404   1.685 -0.1078 -0.3672  0.2656
 6091TIP3    H139688   4.633   6.405   1.768  1.3507  4.3541 -0.3474
 6091TIP3    H239689   4.511   6.464   1.700  1.1134  1.9198 -2.1350
 6092TIP3   OH239690   6.192   2.925  11.713  0.2017  0.0543  0.1411
 6092TIP3    H139691   6.115   2.868  11.709 -0.1005  0.4374  0.4699
 6092TIP3    H239692   6.248   2.894  11.641 -0.1528 -0.3749  0.0443
 6093TIP3   OH239693   3.415   2.148   5.685  0.0030  0.1034  0.0015
 6093TIP3    H139694   3.464   2.112   5.611  1.7682  0.6748  0.8275
 6093TIP3    H239695   3.346   2.084   5.702  1.4972 -1.6321 -0.1563
 6094TIP3   OH239696   3.394   4.921  13.907  0.1382  0.4422  0.2225
 6094TIP3    H139697   3.474   4.884  13.944  0.3125 -0.6784 -1.1923
 6094TIP3    H239698   3.403   5.015  13.921  1.7870  0.3545 -0.0410
 6095TIP3   OH239699   3.121   4.522  14.643 -0.0902 -0.0242  0.1041
 6095TIP3    H139700   3.085   4.434  14.631  0.7533 -0.1759 -1.6165
 6095TIP3    H239701   3.045   4.576  14.666 -0.5712 -1.2370  1.4524
 6096TIP3   OH239702   0.496   3.153  11.347  0.3741  0.6494  0.0110
 6096TIP3    H139703   0.572   3.117  11.302 -0.0789 -0.2144 -0.0919
 6096TIP3    H239704   0.503   3.120  11.437  0.4580  1.0941  0.1698
 6097TIP3   OH239705   3.079   6.295  12.600 -0.5224  0.2832  0.3237
 6097TIP3    H139706   3.019   6.265  12.668 -3.3125  3.3169 -0.5354
 6097TIP3    H239707   3.141   6.353  12.644 -0.9884  0.5663  0.6080
 6098TIP3   OH239708   0.020   2.478  14.369 -0.1543 -0.2550  0.0934
 6098TIP3    H139709  -0.044   2.476  14.298 -0.8715 -2.1668  0.7302
 6098TIP3    H239710   0.055   2.567  14.367 -0.0535 -0.2634 -2.7217
 6099TIP3   OH239711   2.336   2.812   5.439  0.4957  0.4191 -0.1104
 6099TIP3    H139712   2.407   2.793   5.378  1.0275  1.9694 -0.0277
 6099TIP3    H239713   2.264   2.844   5.384  0.1842 -0.2302 -0.0995
 6100TIP3   OH239714   0.954   1.659   0.030 -0.6166 -0.0922  0.2822
 6100TIP3    H139715   1.026   1.713   0.061 -0.6938  0.0020  0.2996
 6100TIP3    H239716   0.878   1.689   0.081 -0.5113 -0.7143  0.8094
 6101TIP3   OH239717   1.022   3.681  16.741  0.3925  0.3699  0.3975
 6101TIP3    H139718   0.937   3.643  16.719  0.4170  1.0939 -1.0896
 6101TIP3    H239719   1.032   3.755  16.681  2.3042 -0.0417  0.1345
 6102TIP3   OH239720   1.605   0.608  13.241  0.3402 -0.1966 -0.0983
 6102TIP3    H139721   1.658   0.528  13.251 -0.3571 -0.6385  0.1076
 6102TIP3    H239722   1.603   0.623  13.147  0.2510 -0.5737 -0.1585
 6103TIP3   OH239723   5.091   0.709   3.725  0.0781  0.0537  0.0817
 6103TIP3    H139724   5.009   0.689   3.679  0.0425 -0.6346  0.4308
 6103TIP3    H239725   5.102   0.804   3.713 -0.2540 -0.0096 -0.7976
 6104TIP3   OH239726   4.501   0.094  15.137  0.2766  0.0317  0.0637
 6104TIP3    H139727   4.463   0.061  15.218  0.7117  0.8958  0.6379
 6104TIP3    H239728   4.430   0.089  15.073 -0.0327 -0.7862  0.4622
 6105TIP3   OH239729   1.042   5.554   3.998  0.0448 -0.5729  0.3469
 6105TIP3    H139730   1.041   5.572   3.904  0.3656 -0.6408  0.3298
 6105TIP3    H239731   1.111   5.610   4.032 -1.1784  0.7168  0.8092
 6106TIP3   OH239732   4.888   2.634  16.699  0.2359  0.3152  0.1749
 6106TIP3    H139733   4.907   2.551  16.655 -0.7072  0.0873  0.1638
 6106TIP3    H239734   4.968   2.656  16.746  0.1881 -1.1012  0.9694
 6107TIP3   OH239735   5.513   3.603  15.406  0.4439 -0.1580 -0.5984
 6107TIP3    H139736   5.430   3.596  15.453  0.4146 -1.0550 -0.7683
 6107TIP3    H239737   5.498   3.559  15.323  1.4989 -1.5941 -0.0661
 6108TIP3   OH239738   5.691   1.659   0.782 -0.2533 -0.1019  0.5028
 6108TIP3    H139739   5.673   1.616   0.698  1.4823  2.4948 -1.3301
 6108TIP3    H239740   5.612   1.709   0.800 -0.2285  0.1885 -0.1612
 6109TIP3   OH239741   5.067   3.603   4.051  0.6565  0.4319 -0.6095
 6109TIP3    H139742   5.001   3.577   4.116  0.6975  2.2881  0.2405
 6109TIP3    H239743   5.073   3.698   4.060  2.4421  0.4613 -1.6602
 6110TIP3   OH239744   0.058   1.257   1.646 -0.0592  0.6171 -0.4763
 6110TIP3    H139745   0.091   1.193   1.583  0.1244  0.4564 -0.2178
 6110TIP3    H239746   0.137   1.292   1.688 -0.2714 -1.0755  1.4398
 6111TIP3   OH239747   3.450   4.197  16.626 -0.3384  0.0284 -0.5096
 6111TIP3    H139748   3.424   4.119  16.576  1.5130 -1.8391  1.2455
 6111TIP3    H239749   3.525   4.232  16.579 -1.6834  1.3267 -1.7702
 6112TIP3   OH239750   1.370   5.455   0.394 -0.5035 -0.0505  0.5131
 6112TIP3    H139751   1.346   5.532   0.445  2.8215  1.0775  0.6161
 6112TIP3    H239752   1.403   5.393   0.459  2.0386  0.6951  0.0548
 6113TIP3   OH239753   5.973   0.565   5.303  0.4414 -0.3588  0.3265
 6113TIP3    H139754   5.950   0.517   5.223  0.0200  0.1743  0.1198
 6113TIP3    H239755   5.950   0.505   5.374  0.7853 -0.8232  0.0573
 6114TIP3   OH239756   0.270   1.923  11.224  0.0941 -0.0222  0.2199
 6114TIP3    H139757   0.282   2.000  11.168  0.5902  0.1523  0.5599
 6114TIP3    H239758   0.179   1.929  11.253  0.2488  0.6763  0.5871
 6115TIP3   OH239759   0.766   3.741  13.531 -0.1885 -0.2088  0.3621
 6115TIP3    H139760   0.828   3.762  13.461  0.0642 -0.2548  0.5696
 6115TIP3    H239761   0.680   3.753  13.491 -0.0465 -0.1963  0.0558
 6116TIP3   OH239762   5.620   1.713   3.908 -0.3361 -0.7462  0.7137
 6116TIP3    H139763   5.707   1.689   3.941  0.3731  0.1319 -0.4132
 6116TIP3    H239764   5.571   1.631   3.906  0.3064 -1.1817  1.8073
 6117TIP3   OH239765   4.140   2.541   5.671  0.4455 -0.6239 -0.4059
 6117TIP3    H139766   4.120   2.546   5.578 -1.4729 -0.6232 -0.0465
 6117TIP3    H239767   4.105   2.456   5.699 -0.9305  0.2290  0.6662
 6118TIP3   OH239768   2.957   4.604  15.821 -0.1530 -0.1569  0.0914
 6118TIP3    H139769   2.995   4.522  15.789  0.6785  0.1017  0.3726
 6118TIP3    H239770   2.987   4.610  15.912 -0.3051  0.3984  0.1084
 6119TIP3   OH239771   5.194   0.874   4.269 -0.2006 -0.1130  0.1285
 6119TIP3    H139772   5.195   0.970   4.264 -1.0212 -0.0718  0.6446
 6119TIP3    H239773   5.237   0.855   4.352 -1.1959 -0.1275  0.6566
 6120TIP3   OH239774   2.623   4.604  12.647  0.2378 -0.6014  0.5379
 6120TIP3    H139775   2.564   4.543  12.691 -0.3806  0.3190  1.0143
 6120TIP3    H239776   2.645   4.561  12.565 -1.4262 -0.8041  0.1637
 6121TIP3   OH239777   2.263   2.068  16.606 -0.2291  0.1727 -0.1554
 6121TIP3    H139778   2.188   2.062  16.547 -0.4522 -0.5734  0.1922
 6121TIP3    H239779   2.244   2.005  16.676  2.1051 -2.4158 -1.6179
 6122TIP3   OH239780   1.703   0.159  14.328  0.3251  0.2013 -0.4349
 6122TIP3    H139781   1.796   0.164  14.306  0.3653  2.4742 -0.0225
 6122TIP3    H239782   1.657   0.171  14.245  0.4140  0.1355 -0.4931
 6123TIP3   OH239783   5.699   3.766   5.041  0.0543 -0.1722 -0.0257
 6123TIP3    H139784   5.779   3.715   5.039  0.8984  1.1055  0.0690
 6123TIP3    H239785   5.707   3.821   5.119 -0.3635  0.8041 -0.6448
 6124TIP3   OH239786   3.583   3.046   4.858  0.0674 -0.2072 -0.4474
 6124TIP3    H139787   3.669   3.005   4.865 -1.3435 -3.1954  1.7980
 6124TIP3    H239788   3.545   3.008   4.778 -0.9337 -2.9839  1.2132
 6125TIP3   OH239789   2.381   3.189  13.783  0.5258 -0.0718 -0.0030
 6125TIP3    H139790   2.352   3.280  13.796  0.8271 -0.0263  0.3686
 6125TIP3    H239791   2.473   3.197  13.760 -0.3549  0.0100 -4.3283
 6126TIP3   OH239792   0.451   2.275   0.000 -0.3100  0.6667  0.2793
 6126TIP3    H139793   0.403   2.193   0.006  0.8595 -0.0720 -0.1395
 6126TIP3    H239794   0.420   2.316  -0.081  0.1209 -0.0584 -0.2708
 6127TIP3   OH239795   1.722   1.269   4.499  0.7468  0.0823 -0.5632
 6127TIP3    H139796   1.764   1.318   4.570 -0.7781  1.1813 -0.3550
 6127TIP3    H239797   1.733   1.177   4.523 -0.1510  0.4411  1.3851
 6128TIP3   OH239798   3.809   3.411  17.418 -0.3021  0.2330  0.5513
 6128TIP3    H139799   3.848   3.329  17.388 -0.6786  0.7894 -1.6359
 6128TIP3    H239800   3.856   3.479  17.369 -0.9428  1.2348  1.2877
 6129TIP3   OH239801   0.387   0.256  15.336  0.2811  0.6573  0.0785
 6129TIP3    H139802   0.331   0.182  15.361 -1.9242  2.8529  2.1493
 6129TIP3    H239803   0.436   0.224  15.260 -1.4490 -2.4782  0.1123
 6130TIP3   OH239804   4.267   0.872   1.004 -0.1510 -0.0045  0.2540
 6130TIP3    H139805   4.304   0.857   1.091  1.4071 -1.3322 -0.5718
 6130TIP3    H239806   4.334   0.924   0.958 -1.0092  0.7922 -0.1128
 6131TIP3   OH239807   2.979   2.026  11.867  0.8468 -0.5655 -0.4331
 6131TIP3    H139808   2.967   1.956  11.803 -2.8982 -1.1605  0.6876
 6131TIP3    H239809   2.988   1.980  11.951  0.4714  0.2614  0.0695
 6132TIP3   OH239810   2.513   2.704   2.873 -0.3319 -0.8016  0.1355
 6132TIP3    H139811   2.544   2.635   2.814  0.3041 -2.1483  1.9535
 6132TIP3    H239812   2.421   2.680   2.889 -1.3527  1.0515 -2.2589
 6133TIP3   OH239813   6.199   4.674   5.393  0.2845  0.5197 -0.0850
 6133TIP3    H139814   6.205   4.590   5.438  0.6808  0.6873  0.1779
 6133TIP3    H239815   6.222   4.653   5.302  1.4635  0.5187  0.1901
 6134TIP3   OH239816   6.649   4.783   2.521  0.0165 -0.2009  0.0419
 6134TIP3    H139817   6.639   4.729   2.443 -1.0742 -1.4443  1.0148
 6134TIP3    H239818   6.560   4.801   2.551  0.3304  2.1743 -0.2364
 6135TIP3   OH239819   3.305   0.415  15.350  0.2352 -0.5373  0.7391
 6135TIP3    H139820   3.218   0.392  15.384  0.6329 -1.5203  1.1258
 6135TIP3    H239821   3.291   0.435  15.258 -0.2278 -1.8525  0.5027
 6136TIP3   OH239822   2.538   2.533   5.213 -0.4263  0.1372  0.3618
 6136TIP3    H139823   2.519   2.460   5.154  0.1313 -0.9765  1.5341
 6136TIP3    H239824   2.633   2.541   5.212 -0.5067  1.2253 -0.1722
 6137TIP3   OH239825   3.556   3.142  14.438 -0.4875 -0.2079  0.2082
 6137TIP3    H139826   3.467   3.113  14.457 -0.4384 -1.0820 -0.8315
 6137TIP3    H239827   3.600   3.142  14.523 -1.4097  0.0381  0.6984
 6138TIP3   OH239828   0.503   3.793   5.755 -0.9079 -0.1608 -0.2245
 6138TIP3    H139829   0.449   3.835   5.688 -0.9598 -1.0997 -0.7892
 6138TIP3    H239830   0.592   3.796   5.720 -0.9261 -0.5990 -0.3147
 6139TIP3   OH239831   5.995   2.811   2.164  0.6548  0.3401  0.0692
 6139TIP3    H139832   5.990   2.777   2.253  1.9051 -1.6747 -0.5635
 6139TIP3    H239833   5.993   2.733   2.108  1.1116  1.4719 -1.6141
 6140TIP3   OH239834   4.436   5.712  14.713  0.2317 -0.0704 -0.2136
 6140TIP3    H139835   4.470   5.801  14.720  1.0475 -0.0380 -3.2589
 6140TIP3    H239836   4.499   5.658  14.760  0.4119  0.7962  0.5708
 6141TIP3   OH239837   4.771   4.145   4.318  0.5820 -0.1275  0.2833
 6141TIP3    H139838   4.801   4.080   4.254 -0.1013 -1.5242  1.3372
 6141TIP3    H239839   4.754   4.095   4.398 -0.0408  1.3379  1.1168
 6142TIP3   OH239840   5.802   4.916   6.101 -0.1305 -0.1357  0.2560
 6142TIP3    H139841   5.865   4.957   6.161 -0.6562  1.5073 -0.2650
 6142TIP3    H239842   5.794   4.979   6.030 -1.5103 -0.8593 -0.2430
 6143TIP3   OH239843   1.165   6.169   1.653  0.1643 -0.3833  0.1818
 6143TIP3    H139844   1.159   6.253   1.609 -1.7511 -0.4362  0.2458
 6143TIP3    H239845   1.225   6.184   1.726  1.9253  0.1832 -1.3029
 6144TIP3   OH239846   1.406   2.866   1.643 -0.1823  0.0027  0.1488
 6144TIP3    H139847   1.341   2.877   1.712 -0.8459  0.0629 -0.4770
 6144TIP3    H239848   1.459   2.946   1.647  2.0156 -1.4061  2.8278
 6145TIP3   OH239849   3.909   2.121   2.291  0.2769 -0.4982 -0.8520
 6145TIP3    H139850   3.872   2.099   2.206 -0.2019 -0.8869 -0.5494
 6145TIP3    H239851   3.979   2.057   2.304  0.8246  0.0050 -1.2599
 6146TIP3   OH239852   5.721   0.055   4.642  0.0522 -0.2304  0.1255
 6146TIP3    H139853   5.813   0.068   4.622  0.3547 -1.0643  0.8860
 6146TIP3    H239854   5.679   0.045   4.557  0.6404  0.2747 -0.2305
 6147TIP3   OH239855   4.042   2.931   2.781 -0.2228  0.1149  0.1220
 6147TIP3    H139856   4.025   2.929   2.876  0.7266  1.4627  0.3543
 6147TIP3    H239857   4.013   3.017   2.753  0.2527  0.0323 -0.6588
 6148TIP3   OH239858   5.227   1.338   2.269 -0.1693 -0.5173 -0.2247
 6148TIP3    H139859   5.174   1.401   2.318 -1.0816 -1.4832  0.0666
 6148TIP3    H239860   5.316   1.350   2.302 -0.0994  1.4091 -0.9941
 6149TIP3   OH239861   4.406   1.074  14.365  0.7319 -0.2784  0.4146
 6149TIP3    H139862   4.479   1.070  14.427  1.2380 -3.2142 -0.2047
 6149TIP3    H239863   4.447   1.087  14.280  0.2239  1.3452  0.3858
 6150TIP3   OH239864   4.887   4.132   0.543 -0.2798 -0.0271 -0.6197
 6150TIP3    H139865   4.869   4.146   0.450 -1.4974  1.3211 -0.2107
 6150TIP3    H239866   4.979   4.156   0.554 -0.2123  0.1053 -1.4086
 6151TIP3   OH239867   6.365   5.028  13.792  0.0435  0.2597 -0.4910
 6151TIP3    H139868   6.302   5.101  13.791 -0.3692 -0.1030 -1.2224
 6151TIP3    H239869   6.440   5.063  13.840 -0.7563  0.6574  0.5060
 6152TIP3   OH239870   5.532   4.045   4.531  0.0929  0.0670  0.1442
 6152TIP3    H139871   5.448   4.047   4.485 -1.7367 -1.7391  3.0410
 6152TIP3    H239872   5.570   4.131   4.514 -1.5403  0.3901 -2.5748
 6153TIP3   OH239873   6.459   4.602  15.026  0.5638 -0.0120 -0.3693
 6153TIP3    H139874   6.528   4.550  15.068  1.2237  0.1873 -1.1857
 6153TIP3    H239875   6.484   4.693  15.042  1.5146  0.0958 -2.2290
 6154TIP3   OH239876   3.385   0.210  13.510  0.5937  0.4714  0.0874
 6154TIP3    H139877   3.404   0.179  13.422 -0.9372  0.0381 -0.1226
 6154TIP3    H239878   3.449   0.165  13.566  1.5322  0.7046 -0.7789
 6155TIP3   OH239879   1.664   6.644   3.705  0.2939  0.6405  0.0501
 6155TIP3    H139880   1.579   6.626   3.745  0.3857  1.3100  0.5697
 6155TIP3    H239881   1.694   6.724   3.748  0.1999  1.6320 -1.6454
 6156TIP3   OH239882   2.803   5.236  14.698 -0.0336 -0.2271 -0.0457
 6156TIP3    H139883   2.870   5.208  14.760 -0.0759  0.3580  0.2777
 6156TIP3    H239884   2.851   5.291  14.635  0.1227 -1.3095 -0.8989
 6157TIP3   OH239885   1.909   4.400   0.912  0.0181 -0.0670  0.4164
 6157TIP3    H139886   1.814   4.402   0.928  0.0724 -0.0842  0.7598
 6157TIP3    H239887   1.947   4.380   0.998  0.3692  0.5673  0.4148
 6158TIP3   OH239888   2.948   0.016   1.189 -0.7717  0.6858  0.5790
 6158TIP3    H139889   2.937  -0.079   1.193  0.2440  0.4626 -1.1177
 6158TIP3    H239890   2.990   0.039   1.272 -1.4379 -0.2637  1.2029
 6159TIP3   OH239891   4.072   4.273   5.987  0.0489  0.3361 -0.2392
 6159TIP3    H139892   4.166   4.262   6.005 -0.1292 -0.7091  0.1119
 6159TIP3    H239893   4.029   4.228   6.060 -0.7248  0.5545 -0.5622
 6160TIP3   OH239894   0.764   1.458   1.905  0.1628  0.0488 -0.4280
 6160TIP3    H139895   0.829   1.527   1.887  0.2893 -0.5310 -2.4685
 6160TIP3    H239896   0.686   1.487   1.858 -1.0584  0.6353  1.8409
 6161TIP3   OH239897   0.957   0.024  14.042  0.5161 -0.3383  0.2329
 6161TIP3    H139898   1.012  -0.017  13.975 -0.8763 -1.8112 -0.0925
 6161TIP3    H239899   0.878   0.050  13.994  0.8932  1.7888  0.6706
 6162TIP3   OH239900   0.320   4.003  17.173 -0.6362  1.0079 -0.1865
 6162TIP3    H139901   0.319   3.932  17.237 -1.0955  1.6888  0.5875
 6162TIP3    H239902   0.376   4.070  17.212  1.0025  0.5101 -1.5715
 6163TIP3   OH239903   3.124   2.465   4.734  0.2861 -0.0544  0.5492
 6163TIP3    H139904   3.178   2.408   4.788  0.4216  1.1232  1.7238
 6163TIP3    H239905   3.034   2.449   4.765  0.3614  0.6025  1.1418
 6164TIP3   OH239906   6.175   4.072  17.422  0.0346 -1.1930  0.2357
 6164TIP3    H139907   6.161   4.015  17.347  0.5365 -1.8007  0.5971
 6164TIP3    H239908   6.269   4.091  17.422 -0.3854  1.3897 -1.1150
 6165TIP3   OH239909   6.306   0.618  16.166  0.1951 -0.2967  0.5145
 6165TIP3    H139910   6.213   0.615  16.142  0.5548  0.8177 -1.1864
 6165TIP3    H239911   6.345   0.543  16.121 -0.0397 -1.3954  2.0996
 6166TIP3   OH239912   5.907   5.782  14.033 -0.4686 -0.4869 -0.0353
 6166TIP3    H139913   5.812   5.790  14.034 -0.3279  1.8716 -0.4308
 6166TIP3    H239914   5.933   5.813  13.946  0.6986 -0.8517  0.1615
 6167TIP3   OH239915   1.215   4.170  16.527 -0.1986 -0.0049  0.5288
 6167TIP3    H139916   1.255   4.256  16.537  2.1096 -1.1411  1.9579
 6167TIP3    H239917   1.191   4.144  16.616 -0.2881 -1.0920  0.1988
 6168TIP3   OH239918   3.910   0.342   3.115  0.0861 -0.2664 -0.3323
 6168TIP3    H139919   3.837   0.282   3.097 -1.3260  1.3312 -0.2989
 6168TIP3    H239920   3.878   0.397   3.186  1.9370 -0.4293  0.6863
 6169TIP3   OH239921   3.593   6.633   1.569  0.3691 -0.0562 -0.4969
 6169TIP3    H139922   3.581   6.641   1.664  1.3080  1.3821 -0.4638
 6169TIP3    H239923   3.524   6.686   1.531 -1.0594 -1.9789 -0.7117
 6170TIP3   OH239924   4.178   0.428  12.191 -0.1591  0.4696 -0.0787
 6170TIP3    H139925   4.230   0.357  12.229  0.1870  0.6414 -0.2215
 6170TIP3    H239926   4.113   0.384  12.137 -1.2186  0.1821  1.3779
 6171TIP3   OH239927   3.513   5.034   6.627  0.1287 -0.6977  0.3958
 6171TIP3    H139928   3.535   5.096   6.696  1.4613 -0.4869 -0.1994
 6171TIP3    H239929   3.578   5.049   6.559 -1.2479 -0.7998 -0.9844
 6172TIP3   OH239930   6.733   6.575   0.772  0.1127  0.0411 -0.7214
 6172TIP3    H139931   6.770   6.505   0.825  0.0619  0.9732  0.6029
 6172TIP3    H239932   6.668   6.617   0.828 -1.6337 -0.3438 -2.3283
 6173TIP3   OH239933   5.126   6.246  12.893 -0.1662  0.4353 -0.3413
 6173TIP3    H139934   5.077   6.295  12.959 -0.7683 -1.3700  0.6260
 6173TIP3    H239935   5.060   6.220  12.829  0.2483  1.3237 -1.1542
 6174TIP3   OH239936   4.393   6.646  13.855 -0.6238  0.0186 -0.5439
 6174TIP3    H139937   4.370   6.564  13.898 -1.1977 -0.2424 -1.3294
 6174TIP3    H239938   4.362   6.714  13.915 -1.3568 -0.3422 -0.5072
 6175TIP3   OH239939   2.317   3.995   0.718  0.7116 -0.2629  0.6112
 6175TIP3    H139940   2.238   3.956   0.754 -1.1530 -0.1693 -2.9980
 6175TIP3    H239941   2.385   3.929   0.733 -1.1842 -2.6648 -0.6038
 6176TIP3   OH239942   3.804   1.922  15.696 -0.5090  0.5727  0.0438
 6176TIP3    H139943   3.755   1.955  15.621 -1.4939 -1.2972 -0.1887
 6176TIP3    H239944   3.760   1.840  15.720  3.0809 -1.9172 -0.9387
 6177TIP3   OH239945   1.454   3.535  16.668  0.6505 -0.2048  0.0621
 6177TIP3    H139946   1.501   3.525  16.584  2.8001  0.6696  1.0855
 6177TIP3    H239947   1.511   3.492  16.732 -1.5913 -2.0751  0.9745
 6178TIP3   OH239948   5.367   6.196   3.308 -0.0401  0.2120  0.1983
 6178TIP3    H139949   5.353   6.105   3.333 -0.9293  0.2750 -0.0215
 6178TIP3    H239950   5.291   6.242   3.343  0.7515  0.9959  0.9134
 6179TIP3   OH239951   1.982   5.784  13.259  0.2879  0.3390  0.1106
 6179TIP3    H139952   2.008   5.712  13.316  0.4249  1.7473  1.9242
 6179TIP3    H239953   1.891   5.802  13.283  0.5267  1.3247  0.3235
 6180TIP3   OH239954   3.564   2.729   4.690  0.3427 -0.4794  0.0300
 6180TIP3    H139955   3.473   2.750   4.708 -0.0858  0.9411 -3.0748
 6180TIP3    H239956   3.560   2.647   4.640  0.6155  0.0850 -0.9557
 6181TIP3   OH239957   1.197   6.328   2.779 -0.3250  0.3054 -0.3689
 6181TIP3    H139958   1.123   6.316   2.719 -1.0836  1.1143  0.3801
 6181TIP3    H239959   1.159   6.320   2.866  0.4764  0.7224  0.0317
 6182TIP3   OH239960   4.569   5.293   5.239 -0.2517 -0.2200 -0.0625
 6182TIP3    H139961   4.588   5.302   5.145 -0.9966  0.1481 -0.1867
 6182TIP3    H239962   4.596   5.204   5.260 -0.7571 -0.5604 -0.7992
 6183TIP3   OH239963   0.393   1.176  15.616 -0.1660  0.2177  0.4850
 6183TIP3    H139964   0.310   1.140  15.585  0.7105  0.5086 -2.5546
 6183TIP3    H239965   0.412   1.248  15.554  1.9306  0.7024  1.6031
 6184TIP3   OH239966   1.496   5.918  14.678 -0.0448 -0.5230  0.3391
 6184TIP3    H139967   1.433   5.868  14.626 -1.3884  0.8681  0.5446
 6184TIP3    H239968   1.451   5.933  14.761  1.0938 -0.6061  0.9855
 6185TIP3   OH239969   5.171   2.055   1.029  0.4243 -0.0763  0.1167
 6185TIP3    H139970   5.187   1.983   0.969 -1.9162 -0.3833 -0.2041
 6185TIP3    H239971   5.160   2.014   1.115  0.5146  0.0485  0.1897
 6186TIP3   OH239972   6.486   5.890   2.868 -0.2209 -0.5229  0.2177
 6186TIP3    H139973   6.504   5.799   2.845  1.1198  0.2514 -2.1890
 6186TIP3    H239974   6.446   5.886   2.954 -2.4725 -3.5833 -0.7989
 6187TIP3   OH239975   2.655   1.978  11.035  0.6624  0.1994 -0.0329
 6187TIP3    H139976   2.591   1.945  10.973  1.4499 -0.9644 -0.2440
 6187TIP3    H239977   2.648   1.920  11.111  0.8920  0.5638  0.2734
 6188TIP3   OH239978   2.097   4.430  15.371 -0.1404 -0.1202 -0.2225
 6188TIP3    H139979   2.004   4.406  15.367 -0.0551 -0.7853  1.3201
 6188TIP3    H239980   2.105   4.481  15.451  0.7653  0.2519 -0.5452
 6189TIP3   OH239981   3.865   4.547   1.145  0.1315 -0.4149 -0.2844
 6189TIP3    H139982   3.876   4.487   1.219 -0.1369 -0.0357  0.0625
 6189TIP3    H239983   3.953   4.580   1.128 -0.1951  1.7129  1.7293
 6190TIP3   OH239984   0.610   0.110  12.196 -0.5440  0.2835  0.4729
 6190TIP3    H139985   0.541   0.126  12.260 -0.2515 -1.6856  1.3737
 6190TIP3    H239986   0.668   0.047  12.239  2.2412  2.3785  0.0176
 6191TIP3   OH239987   4.653   0.697   2.917 -0.2423 -0.1925  0.8596
 6191TIP3    H139988   4.650   0.792   2.899 -1.1698 -0.0459  1.7165
 6191TIP3    H239989   4.746   0.675   2.913 -0.0719  0.6164 -0.0468
 6192TIP3   OH239990   1.284   2.925  16.559  0.1365  0.7511 -0.4046
 6192TIP3    H139991   1.369   2.883  16.542 -0.0068  0.8269 -1.3214
 6192TIP3    H239992   1.235   2.860  16.610  0.6777  0.6408 -0.0139
 6193TIP3   OH239993   6.435   3.629   1.621  0.0987 -0.4952  0.4600
 6193TIP3    H139994   6.433   3.544   1.577 -1.1706  0.5389 -1.7135
 6193TIP3    H239995   6.394   3.689   1.558 -0.6663  1.4026  2.6044
 6194TIP3   OH239996   0.167   2.746  14.427 -0.6662  0.5835 -0.1343
 6194TIP3    H139997   0.169   2.707  14.514 -0.9264  0.3332 -0.2387
 6194TIP3    H239998   0.107   2.820  14.435 -1.5544 -0.0913 -0.3627
 6195TIP3   OH239999   3.901   2.601  15.681 -0.5050  0.1272  0.5448
 6195TIP3    H140000   3.958   2.532  15.712 -1.5939 -1.4965 -0.8370
 6195TIP3    H240001   3.945   2.682  15.706  0.2629 -1.0091  3.2449
 6196TIP3   OH240002   5.522   2.884  11.120 -0.0225  0.0089 -0.0822
 6196TIP3    H140003   5.489   2.958  11.171 -0.2183 -0.8433  1.0540
 6196TIP3    H240004   5.583   2.924  11.058  0.7864  1.0149  1.3007
 6197TIP3   OH240005   5.813   3.028  14.061  0.0959  0.6422  0.7116
 6197TIP3    H140006   5.717   3.035  14.067  0.0068 -1.0352  2.1841
 6197TIP3    H240007   5.828   2.937  14.034  1.2930  1.1586 -0.4766
 6198TIP3   OH240008   1.581   6.129  15.130 -0.0256 -0.2953 -0.2455
 6198TIP3    H140009   1.541   6.042  15.130 -2.4056  0.7102 -0.5962
 6198TIP3    H240010   1.543   6.174  15.206  0.3869  0.7427 -0.6266
 6199TIP3   OH240011   2.136   6.459   4.203 -0.4611 -0.1411  0.3449
 6199TIP3    H140012   2.207   6.463   4.139  0.1740  0.1299  1.0402
 6199TIP3    H240013   2.057   6.479   4.153  0.3173  2.9399  0.1144
 6200TIP3   OH240014   3.451   5.802   4.416 -0.1500  0.6378  0.4225
 6200TIP3    H140015   3.536   5.774   4.450  0.5208  1.5048 -0.4861
 6200TIP3    H240016   3.406   5.840   4.492  0.0587 -0.2631  1.0172
 6201TIP3   OH240017   6.571   0.026  13.010  0.6860 -0.0517  0.3371
 6201TIP3    H140018   6.635   0.053  12.943 -0.2461  0.9096 -0.1952
 6201TIP3    H240019   6.611  -0.050  13.052  4.3663  2.9951  3.1132
 6202TIP3   OH240020   2.885   2.448  11.292 -0.0345 -0.1405  0.4255
 6202TIP3    H140021   2.800   2.474  11.257 -1.0718 -1.1095  2.0898
 6202TIP3    H240022   2.928   2.403  11.219 -1.1838 -0.1182 -0.2890
 6203TIP3   OH240023   2.680   1.100  17.094  0.7084 -0.0915 -0.0225
 6203TIP3    H140024   2.703   1.007  17.101  1.7841  0.2746  1.8515
 6203TIP3    H240025   2.763   1.143  17.073  0.2139  0.4842 -0.8917
 6204TIP3   OH240026   0.045   0.668  16.697  0.1011 -0.3384  0.3560
 6204TIP3    H140027   0.086   0.745  16.657 -0.0431 -0.2331  0.4096
 6204TIP3    H240028  -0.041   0.663  16.656 -0.9998  1.1521  2.3165
 6205TIP3   OH240029   3.666   1.939  13.850  0.5413  0.2848 -0.6228
 6205TIP3    H140030   3.646   1.955  13.758  1.4394  0.0536 -0.8718
 6205TIP3    H240031   3.752   1.980  13.863 -0.7532  2.7862  0.8338
 6206TIP3   OH240032   2.394   4.605  14.671 -0.3173 -0.0407  0.2012
 6206TIP3    H140033   2.342   4.683  14.654  0.1867  0.4774  0.9802
 6206TIP3    H240034   2.341   4.554  14.732  0.2171  0.6407  1.2508
 6207TIP3   OH240035   5.814   6.113   5.602 -0.5800 -0.3952 -0.2137
 6207TIP3    H140036   5.764   6.166   5.539 -0.2186  0.6688  0.3713
 6207TIP3    H240037   5.794   6.151   5.687  0.5310 -0.5121  0.1188
 6208TIP3   OH240038   2.849   6.382   4.208 -0.6421  0.6796  0.0613
 6208TIP3    H140039   2.851   6.397   4.303 -0.5474  1.9634 -0.1201
 6208TIP3    H240040   2.842   6.287   4.199  0.5503  0.4272  1.3480
 6209TIP3   OH240041   0.224   2.771  15.462 -0.1064 -0.4052 -0.5299
 6209TIP3    H140042   0.235   2.724  15.379  0.7299  1.6744 -1.7017
 6209TIP3    H240043   0.299   2.831  15.465 -0.8110  0.4597  1.1207
 6210TIP3   OH240044   2.559   2.019   4.531 -0.0456 -0.0082 -0.0597
 6210TIP3    H140045   2.481   2.022   4.475 -0.9338 -2.3134  0.9112
 6210TIP3    H240046   2.526   2.000   4.618  1.5796 -1.9521  0.2296
 6211TIP3   OH240047   2.884   5.759   0.765  0.4519  0.2166 -0.0825
 6211TIP3    H140048   2.860   5.676   0.723 -2.4576  1.1871 -0.5365
 6211TIP3    H240049   2.859   5.748   0.856 -3.5133  1.7012 -0.8130
 6212TIP3   OH240050   6.221   5.720  11.235 -0.3072  0.0160  0.4151
 6212TIP3    H140051   6.190   5.721  11.145  1.2686 -1.6205 -0.2313
 6212TIP3    H240052   6.142   5.728  11.288 -1.2010  1.8309 -1.0797
 6213TIP3   OH240053   4.966   4.999   4.210  0.0386 -0.0200 -0.6189
 6213TIP3    H140054   4.888   5.048   4.235  0.9188  1.2957 -0.3564
 6213TIP3    H240055   4.999   4.963   4.292  1.0528  1.4988 -0.3111
 6214TIP3   OH240056   3.954   1.454   0.565 -0.0269  0.2223 -0.2696
 6214TIP3    H140057   3.862   1.476   0.578 -0.1583 -1.0235  1.2116
 6214TIP3    H240058   3.956   1.358   0.564  1.3381  0.2179  0.4080
 6215TIP3   OH240059   6.204   6.463   3.051  0.2668 -0.1561 -0.1007
 6215TIP3    H140060   6.176   6.391   3.108 -2.1847 -0.3864 -1.4427
 6215TIP3    H240061   6.185   6.542   3.101  0.5679 -0.3972  0.4000
 6216TIP3   OH240062   5.266   6.284   0.838 -0.2919 -0.1918 -0.2813
 6216TIP3    H140063   5.252   6.216   0.772 -1.1609  1.2528 -1.6944
 6216TIP3    H240064   5.347   6.259   0.882  0.9775 -0.6833 -2.6809
 6217TIP3   OH240065   3.327   0.049   2.237  0.0409 -0.0911 -0.7330
 6217TIP3    H140066   3.297   0.116   2.175 -0.0475 -0.2634 -0.8742
 6217TIP3    H240067   3.248   0.024   2.284  0.1711  0.3108 -0.2887
 6218TIP3   OH240068   2.824   2.709  16.748 -0.1778  0.4797  0.0815
 6218TIP3    H140069   2.804   2.769  16.676 -0.1856  0.2016 -0.1529
 6218TIP3    H240070   2.776   2.743  16.823  0.2355  1.0626  0.0860
 6219TIP3   OH240071   4.399   3.653  11.041  0.2673 -0.6863  0.5905
 6219TIP3    H140072   4.483   3.693  11.021  0.2747 -0.7695  0.4526
 6219TIP3    H240073   4.386   3.588  10.972 -0.2326 -0.1986  0.2232
 6220TIP3   OH240074   6.280   0.534  13.134 -0.3925 -0.2741 -0.0155
 6220TIP3    H140075   6.299   0.626  13.114  2.1451 -0.7897 -0.3213
 6220TIP3    H240076   6.286   0.490  13.049 -0.6135 -0.8688  0.2748
 6221TIP3   OH240077   0.832   4.367  13.935 -0.0889 -0.2120  0.3837
 6221TIP3    H140078   0.777   4.435  13.895  0.0298  0.2395  0.9787
 6221TIP3    H240079   0.770   4.301  13.967 -0.1841 -0.5838 -0.5444
 6222TIP3   OH240080   2.259   5.360   1.617 -0.0913 -0.0032  0.1739
 6222TIP3    H140081   2.343   5.362   1.662  0.9497 -3.3689 -1.2429
 6222TIP3    H240082   2.222   5.274   1.640 -1.8651  0.2794 -1.3599
 6223TIP3   OH240083   3.904   4.695  14.059 -0.2596 -0.0970  0.4750
 6223TIP3    H140084   3.991   4.703  14.099 -0.2742 -0.7455  0.6531
 6223TIP3    H240085   3.922   4.670  13.968 -0.2493  0.3759  0.3456
 6224TIP3   OH240086   5.122   6.577  11.883 -0.0722  0.0510  0.5019
 6224TIP3    H140087   5.139   6.486  11.859  0.7678  0.0133  1.1820
 6224TIP3    H240088   5.108   6.622  11.800  0.0250 -0.5903  0.1295
 6225TIP3   OH240089   0.938   3.649  15.751  0.0854 -0.2050 -0.6848
 6225TIP3    H140090   0.865   3.667  15.692 -0.0474 -1.5910 -0.9659
 6225TIP3    H240091   1.003   3.716  15.729 -0.9216  0.8033 -0.6973
 6226TIP3   OH240092   2.409   3.494   0.003  0.0390 -0.3155 -0.0949
 6226TIP3    H140093   2.339   3.433   0.026  0.8760 -0.8716  1.1458
 6226TIP3    H240094   2.441   3.526   0.088  1.7553 -0.6385 -0.5805
 6227TIP3   OH240095   5.902   0.622   2.343  0.5043  0.1491 -0.0583
 6227TIP3    H140096   5.854   0.683   2.399  1.3516  0.0710  0.7896
 6227TIP3    H240097   5.838   0.590   2.281  0.0012  1.8265 -0.4515
 6228TIP3   OH240098   3.017   0.192   5.213 -0.2214  0.1013 -0.2029
 6228TIP3    H140099   3.091   0.217   5.158 -1.8850  1.7421 -1.8122
 6228TIP3    H240100   3.030   0.243   5.294  0.9794 -0.5212  0.0239
 6229TIP3   OH240101   0.658   3.870  16.432  0.1159 -0.0729  0.5436
 6229TIP3    H140102   0.588   3.927  16.402 -0.0460 -0.6804 -0.2638
 6229TIP3    H240103   0.734   3.895  16.378 -0.2731 -1.4191 -0.6936
 6230TIP3   OH240104   6.340   0.132   1.172  0.0746  0.0266  0.4950
 6230TIP3    H140105   6.261   0.082   1.151  1.8163 -2.0997 -1.4993
 6230TIP3    H240106   6.406   0.066   1.193  1.5097  1.7018  1.5888
 6231TIP3   OH240107   3.287   6.638  14.435 -0.2015  1.0446  0.1057
 6231TIP3    H140108   3.300   6.559  14.382 -1.3918  0.9840 -0.1352
 6231TIP3    H240109   3.338   6.623  14.514 -2.1389 -1.0098  1.0865
 6232TIP3   OH240110   3.341   6.528   1.313 -0.0494  0.2920 -0.5837
 6232TIP3    H140111   3.267   6.467   1.319  1.3696 -1.4866  0.0723
 6232TIP3    H240112   3.326   6.591   1.383 -1.1137  0.1758 -0.6904
 6233TIP3   OH240113   1.637   3.368  10.989  0.0767  0.2525  0.0193
 6233TIP3    H140114   1.572   3.325  10.933 -2.3130  2.9110  0.5645
 6233TIP3    H240115   1.704   3.400  10.927 -1.0720  0.6955 -1.0391
 6234TIP3   OH240116   4.816   5.323  14.654 -0.2383 -0.0224 -0.0462
 6234TIP3    H140117   4.737   5.296  14.609 -1.2763  1.8385  0.5381
 6234TIP3    H240118   4.806   5.418  14.665  1.6295  0.1130  0.8834
 6235TIP3   OH240119   2.393   2.330  13.288  0.4532 -0.0501 -0.8421
 6235TIP3    H140120   2.481   2.349  13.321  0.6579 -1.6147 -0.3843
 6235TIP3    H240121   2.334   2.363  13.356  0.7964 -1.2191  0.0522
 6236TIP3   OH240122   1.301   3.755   0.438 -0.2779  0.5087  0.1167
 6236TIP3    H140123   1.269   3.778   0.526 -0.6884  2.7486 -0.5716
 6236TIP3    H240124   1.221   3.748   0.385 -0.0188 -0.6626 -0.1486
 6237TIP3   OH240125   6.398   6.611  16.465  0.0587  0.1573  0.4174
 6237TIP3    H140126   6.489   6.586  16.482  0.0610 -1.1390 -1.2622
 6237TIP3    H240127   6.347   6.554  16.522  0.1995 -1.7928 -1.2842
 6238TIP3   OH240128   4.729   6.643   0.907 -0.0500  0.6124  0.4146
 6238TIP3    H140129   4.781   6.580   0.857 -0.4446 -1.0902  2.0355
 6238TIP3    H240130   4.645   6.646   0.861  0.5013  1.2032 -0.5860
 6239TIP3   OH240131   2.928   5.438   6.383 -0.5416 -0.3583 -0.6628
 6239TIP3    H140132   2.937   5.499   6.311 -0.7473  0.9337  0.3746
 6239TIP3    H240133   2.939   5.352   6.343  0.6948  0.3852 -1.9986
 6240TIP3   OH240134   5.608   6.331   4.378 -0.6027 -0.4435 -0.1428
 6240TIP3    H140135   5.649   6.252   4.413  0.4249  0.0148 -0.2681
 6240TIP3    H240136   5.632   6.400   4.440 -0.3845  0.0068 -0.7116
 6241TIP3   OH240137   4.955   2.374   2.312 -0.5043 -0.3817 -0.2707
 6241TIP3    H140138   4.874   2.352   2.265  1.2007 -1.6451 -2.8687
 6241TIP3    H240139   4.994   2.444   2.260  0.7871 -0.8589  0.0230
 6242TIP3   OH240140   3.293   4.184   4.571 -0.0324 -0.2622  0.1694
 6242TIP3    H140141   3.307   4.116   4.638  0.8615 -0.2583 -0.0092
 6242TIP3    H240142   3.335   4.149   4.493 -1.1744 -0.3176 -0.4324
 6243TIP3   OH240143   2.348   6.023  13.028  0.0697 -0.1195  0.4418
 6243TIP3    H140144   2.368   6.116  13.037 -0.5939 -0.1438  2.9214
 6243TIP3    H240145   2.307   6.015  12.941  0.9135  1.7224 -0.1681
 6244TIP3   OH240146   2.199   2.335  11.295  0.5756 -0.0366 -0.7179
 6244TIP3    H140147   2.215   2.346  11.201  1.2116  0.2392 -0.5814
 6244TIP3    H240148   2.202   2.424  11.330  1.0122 -0.2069 -0.3291
 6245TIP3   OH240149   4.500   4.939  12.694 -0.4626  0.2918 -0.1959
 6245TIP3    H140150   4.462   4.862  12.653  3.1626  0.1412 -3.9332
 6245TIP3    H240151   4.518   4.911  12.784  0.9118 -3.4740 -1.4369
 6246TIP3   OH240152   1.268   6.567  14.911 -0.1754 -0.0919  0.1653
 6246TIP3    H140153   1.286   6.642  14.967  1.3213 -2.1361  2.6389
 6246TIP3    H240154   1.346   6.558  14.857 -0.1073 -0.1830  0.2773
 6247TIP3   OH240155   6.677   2.744   5.010  0.3052 -0.3478  0.2117
 6247TIP3    H140156   6.637   2.724   4.925 -0.1012  0.1755  0.2743
 6247TIP3    H240157   6.604   2.758   5.069  0.5525  0.8645  0.2683
 6248TIP3   OH240158   2.294   3.233  14.536  0.3542  0.4821 -0.3766
 6248TIP3    H140159   2.340   3.182  14.469  0.6684  1.1523 -0.6762
 6248TIP3    H240160   2.362   3.266  14.593  0.4455  2.7976 -1.7260
 6249TIP3   OH240161   1.047   3.584   5.939  0.7626  0.1413 -0.1137
 6249TIP3    H140162   1.128   3.636   5.937  2.0299 -1.7077 -0.2379
 6249TIP3    H240163   1.077   3.494   5.924 -1.5018 -0.4293 -1.7123
 6250TIP3   OH240164   5.767   3.475  16.356  0.0760 -0.2750 -0.6401
 6250TIP3    H140165   5.720   3.391  16.355 -0.2679 -0.0832 -0.6814
 6250TIP3    H240166   5.721   3.527  16.421  1.1164 -0.5781  0.3663
 6251TIP3   OH240167   5.584   4.948   2.531  0.7713 -0.0914  0.2262
 6251TIP3    H140168   5.575   4.888   2.457  0.0410  0.0438  0.1903
 6251TIP3    H240169   5.651   4.909   2.586  0.1429 -1.0740  0.3246
 6252TIP3   OH240170   4.469   5.383  13.036 -0.5692  0.8103  0.3904
 6252TIP3    H140171   4.504   5.359  12.950 -0.4755 -0.2733  0.7143
 6252TIP3    H240172   4.413   5.308  13.060 -1.1653  1.4254  0.9574
 6253TIP3   OH240173   1.672   5.505  16.084  0.1825  0.3975 -0.5311
 6253TIP3    H140174   1.629   5.530  16.165  0.0115  0.1502 -0.5479
 6253TIP3    H240175   1.636   5.420  16.062 -1.8127  1.5951 -2.2988
 6254TIP3   OH240176   5.108   5.903  12.334  0.0896 -0.0938  0.1363
 6254TIP3    H140177   5.174   5.959  12.292  1.5078  0.2085  2.6058
 6254TIP3    H240178   5.030   5.913  12.279  1.4814  1.1165 -1.7581
 6255TIP3   OH240179   0.746   5.500   3.322  0.4211 -0.7486 -0.4821
 6255TIP3    H140180   0.690   5.503   3.245 -1.8093 -1.0765  1.0197
 6255TIP3    H240181   0.733   5.584   3.365  0.3852 -1.1707  0.3542
 6256TIP3   OH240182   6.433   5.559   6.540  0.4203  0.4694 -0.2835
 6256TIP3    H140183   6.355   5.525   6.585 -0.5361  3.2523  0.3762
 6256TIP3    H240184   6.489   5.591   6.611 -0.0031  2.7048 -0.8752
 6257TIP3   OH240185   3.237   2.838  13.433  0.0052  0.4207 -0.5433
 6257TIP3    H140186   3.171   2.852  13.365 -0.6816  2.2731  0.4364
 6257TIP3    H240187   3.191   2.786  13.500  0.0767  0.2542 -0.6235
 6258TIP3   OH240188   4.515   5.540  11.473  0.0497  0.2232 -0.5386
 6258TIP3    H140189   4.468   5.524  11.391  0.5156  1.5099 -1.0693
 6258TIP3    H240190   4.606   5.516  11.454 -0.3056 -2.3851  0.5268
 6259TIP3   OH240191   2.581   6.310  13.474 -0.2739  0.3319  0.2351
 6259TIP3    H140192   2.636   6.372  13.521 -0.1364  0.3472  0.0563
 6259TIP3    H240193   2.493   6.347  13.479 -0.0799  0.9222 -0.4920
 6260TIP3   OH240194   3.613   0.430   6.553 -0.3503  0.3908  0.0641
 6260TIP3    H140195   3.641   0.352   6.504  1.6709  1.3159 -0.3773
 6260TIP3    H240196   3.567   0.484   6.488 -2.0296 -0.5180  0.4450
 6261TIP3   OH240197   0.885   0.134   3.853 -0.2097  0.0393 -0.0160
 6261TIP3    H140198   0.806   0.150   3.905 -1.1742  0.6595 -1.6078
 6261TIP3    H240199   0.938   0.213   3.865 -0.9242  0.6632 -0.7851
 6262TIP3   OH240200   4.458   2.956   4.604  0.3664  0.8697 -0.0047
 6262TIP3    H140201   4.418   2.869   4.595 -3.1973  2.2086  1.2132
 6262TIP3    H240202   4.421   3.007   4.532  3.1218  1.2647 -1.2540
 6263TIP3   OH240203   3.108   2.821  13.200  0.3140 -0.3903  0.1991
 6263TIP3    H140204   3.037   2.765  13.167  1.3372 -1.2178 -0.6799
 6263TIP3    H240205   3.187   2.767  13.191  1.1171  0.6633  0.7614
 6264TIP3   OH240206   5.947   2.266  16.499 -0.2327  0.2594 -0.0720
 6264TIP3    H140207   5.929   2.333  16.566 -0.2960  0.2699 -0.1009
 6264TIP3    H240208   6.021   2.217  16.535  0.2601  0.7750 -0.3644
 6265TIP3   OH240209   4.640   0.115   0.289 -0.6696 -0.6761  0.1326
 6265TIP3    H140210   4.570   0.082   0.232 -2.0869  2.1456  0.0414
 6265TIP3    H240211   4.595   0.141   0.369  0.6077 -0.5439  0.8305
 6266TIP3   OH240212   5.619   2.853  11.763  0.6044 -0.2497 -0.6653
 6266TIP3    H140213   5.662   2.882  11.844  1.2214  0.4085 -1.2159
 6266TIP3    H240214   5.528   2.837  11.789  0.9347 -0.6951  0.3033
 6267TIP3   OH240215   3.765   3.567   5.523  0.6699  0.8408  0.5142
 6267TIP3    H140216   3.757   3.605   5.436  0.5003 -0.1217  0.1039
 6267TIP3    H240217   3.687   3.513   5.534  0.6492  1.0093  1.2998
 6268TIP3   OH240218   5.981   4.030  11.465  0.7438 -0.0850  0.3835
 6268TIP3    H140219   5.924   4.102  11.438 -1.2489 -1.8005 -0.2837
 6268TIP3    H240220   6.044   4.022  11.394  1.2439  1.2258  0.6529
 6269TIP3   OH240221   4.929   2.717  15.002  0.2515  0.1444 -0.3261
 6269TIP3    H140222   4.891   2.790  14.953 -1.0982  0.2085  0.7668
 6269TIP3    H240223   4.871   2.704  15.076  2.1225 -0.0625  1.1942
 6270TIP3   OH240224   2.970   3.349   5.003  0.1101 -0.4384  0.2674
 6270TIP3    H140225   2.980   3.444   5.009  0.0939 -0.2442 -1.9560
 6270TIP3    H240226   3.057   3.315   5.024 -0.0782 -0.0325  1.8836
 6271TIP3   OH240227   1.788   1.533  15.725  0.9504  0.1704 -0.5714
 6271TIP3    H140228   1.811   1.594  15.655 -0.1803 -0.3223 -1.4069
 6271TIP3    H240229   1.701   1.561  15.753  0.7906 -0.5249 -0.3607
 6272TIP3   OH240230   1.923   1.934   6.894  1.0192 -0.2952 -0.3689
 6272TIP3    H140231   1.920   2.000   6.964  2.0779  0.3763 -0.9168
 6272TIP3    H240232   1.845   1.951   6.842  2.0485  1.5894 -1.3920
 6273TIP3   OH240233   2.240   3.598  16.499  0.1375 -0.6037 -0.1929
 6273TIP3    H140234   2.324   3.587  16.544 -0.0422  0.4040  0.4305
 6273TIP3    H240235   2.204   3.510  16.493 -0.9488 -0.6743  3.8586
 6274TIP3   OH240236   4.495   2.021   4.878 -0.0323 -0.2857  0.3352
 6274TIP3    H140237   4.459   1.933   4.872 -0.3446 -0.2783  1.8017
 6274TIP3    H240238   4.590   2.010   4.871 -0.1226 -0.6164 -0.4804
 6275TIP3   OH240239   0.822   3.426   3.752 -0.4143 -0.2209 -0.4625
 6275TIP3    H140240   0.827   3.405   3.659  1.3964  0.1229 -0.4942
 6275TIP3    H240241   0.771   3.507   3.756 -0.5928 -0.2990 -1.1427
 6276TIP3   OH240242   3.712   3.072  13.756  0.4097 -0.0330  0.1154
 6276TIP3    H140243   3.798   3.114  13.762  0.5628  0.0053 -1.6098
 6276TIP3    H240244   3.730   2.979  13.768  0.4081  0.1501  1.6322
 6277TIP3   OH240245   2.298   0.309  16.152 -0.2143  0.2494 -0.2489
 6277TIP3    H140246   2.210   0.273  16.161  0.0252 -0.4885 -0.7636
 6277TIP3    H240247   2.291   0.399  16.184 -0.5901 -0.5599  2.1260
 6278TIP3   OH240248   6.381   0.364  10.567 -0.3897 -0.0364 -0.0825
 6278TIP3    H140249   6.470   0.379  10.537 -1.0586  0.0950 -2.1734
 6278TIP3    H240250   6.369   0.427  10.639  0.7375  0.9554 -0.7265
 6279TIP3   OH240251   1.360   3.144  11.172 -0.2354 -0.4969  0.2769
 6279TIP3    H140252   1.372   3.187  11.087 -1.4719 -0.7726 -0.0550
 6279TIP3    H240253   1.281   3.185  11.209  0.7380  0.2033  1.6817
 6280TIP3   OH240254   1.630   1.096  17.190  0.2774  0.2514 -0.7322
 6280TIP3    H140255   1.697   1.164  17.196  1.9997 -1.3389 -1.1861
 6280TIP3    H240256   1.674   1.016  17.216 -1.0219 -1.1258 -2.5086
 6281TIP3   OH240257   3.562   0.567   6.213 -0.4727  0.4977 -0.1092
 6281TIP3    H140258   3.518   0.565   6.298  1.0126  1.2332  0.7249
 6281TIP3    H240259   3.501   0.615   6.156 -1.6302 -0.2843  0.4250
 6282TIP3   OH240260   1.288   2.394   0.236  0.1677  0.0960 -0.3387
 6282TIP3    H140261   1.220   2.425   0.296 -0.0405 -2.1802  0.7371
 6282TIP3    H240262   1.242   2.373   0.155 -0.0697  0.3662 -0.2750
 6283TIP3   OH240263   3.708   1.615  10.338  0.0255 -0.7752 -0.0546
 6283TIP3    H140264   3.724   1.693  10.285  0.7446 -0.7539  0.1827
 6283TIP3    H240265   3.794   1.575  10.347 -0.2693 -1.3568  0.2032
 6284TIP3   OH240266   3.265   2.428  12.962 -0.5103 -0.2343  0.0456
 6284TIP3    H140267   3.196   2.492  12.979  0.1024  0.5177 -0.2242
 6284TIP3    H240268   3.319   2.428  13.042 -1.3468 -1.5287  0.6421
 6285TIP3   OH240269   3.430   0.656  17.075 -0.2994 -0.1564 -0.0835
 6285TIP3    H140270   3.514   0.615  17.096  0.5534  1.2088 -0.7172
 6285TIP3    H240271   3.368   0.611  17.132  0.6538 -1.9479 -0.3552
 6286TIP3   OH240272   6.058   1.733  14.306 -0.3243 -0.2522 -0.1871
 6286TIP3    H140273   5.985   1.685  14.343 -0.6637 -0.0654 -0.5987
 6286TIP3    H240274   6.085   1.681  14.230 -1.5265  0.8170 -1.4134
 6287TIP3   OH240275   2.620   0.494   0.324  0.6345 -0.1916 -0.1593
 6287TIP3    H140276   2.627   0.434   0.398  2.3194  0.2107  0.0427
 6287TIP3    H240277   2.535   0.537   0.335  0.4835 -0.7855  1.0403
 6288TIP3   OH240278   3.011   1.525   3.028  0.3004 -0.0549 -0.4603
 6288TIP3    H140279   3.081   1.559   2.972  2.0729  1.3003  2.3322
 6288TIP3    H240280   3.019   1.575   3.109 -3.0634 -0.8770  0.5121
 6289TIP3   OH240281   6.307   0.320   0.844 -0.3340  0.2905 -0.3441
 6289TIP3    H140282   6.233   0.352   0.792  0.1054 -0.8600 -1.7334
 6289TIP3    H240283   6.322   0.231   0.812  1.2967  0.3093  0.2910
 6290TIP3   OH240284   2.920   2.990   5.241 -0.4059  0.0661 -0.3692
 6290TIP3    H140285   2.894   3.063   5.183 -0.4254 -0.4433 -1.0162
 6290TIP3    H240286   2.974   2.934   5.185  0.6619  0.2205  0.4763
 6291TIP3   OH240287   2.525   2.300  17.208 -0.2707 -0.0799  0.1657
 6291TIP3    H140288   2.576   2.244  17.266 -0.0649  0.1382  0.1981
 6291TIP3    H240289   2.572   2.384  17.208  0.6903 -0.5704 -1.6594
 6292TIP3   OH240290   4.225   4.977   1.428  0.0402 -0.5289 -0.2578
 6292TIP3    H140291   4.265   4.915   1.368 -1.1237  0.0133 -1.6342
 6292TIP3    H240292   4.240   5.063   1.389 -0.8072 -0.1662  0.1777
 6293TIP3   OH240293   2.080   5.114  17.357  0.3354 -0.1398  0.2000
 6293TIP3    H140294   2.117   5.027  17.345  1.0793 -0.0302  1.5336
 6293TIP3    H240295   2.124   5.149  17.435  1.0108  1.9540 -1.0354
 6294TIP3   OH240296   4.780   4.330  14.279  0.1128 -0.8270  0.1966
 6294TIP3    H140297   4.874   4.345  14.262  0.3356  0.1167  1.9923
 6294TIP3    H240298   4.771   4.341  14.373 -1.8066 -1.0429  0.0770
 6295TIP3   OH240299   3.398   3.104  15.661  0.4462 -0.2084 -0.2961
 6295TIP3    H140300   3.388   3.088  15.755 -0.3622 -1.4543 -0.5673
 6295TIP3    H240301   3.434   3.192  15.655 -0.9896  0.5232  1.1315
 6296TIP3   OH240302   5.441   2.506   4.975  0.4192 -0.5687  0.4413
 6296TIP3    H140303   5.475   2.556   5.049  0.1163 -1.1856  1.0137
 6296TIP3    H240304   5.359   2.468   5.008 -0.0696 -0.2895 -0.4398
 6297TIP3   OH240305   1.620   3.721   5.614 -0.0778 -0.2653 -0.1659
 6297TIP3    H140306   1.571   3.647   5.581  0.7908 -0.8039 -0.2701
 6297TIP3    H240307   1.653   3.765   5.536 -0.1685 -0.0552 -0.0873
 6298TIP3   OH240308   0.430   5.106   5.810  0.2500 -0.4314 -0.1624
 6298TIP3    H140309   0.514   5.145   5.784 -0.5054  0.3209 -1.5632
 6298TIP3    H240310   0.453   5.047   5.882  1.9376 -0.0243 -0.3159
 6299TIP3   OH240311   1.646   6.539   2.861 -0.7085  0.1739  0.3862
 6299TIP3    H140312   1.666   6.448   2.842  0.6026  0.3258  0.9621
 6299TIP3    H240313   1.572   6.535   2.922 -0.8558 -0.4915  0.1701
 6300TIP3   OH240314   1.446   4.076   4.740  0.4607 -0.0560 -0.3224
 6300TIP3    H140315   1.377   4.044   4.682  0.9078 -2.7129  0.4475
 6300TIP3    H240316   1.419   4.046   4.827  1.9800 -0.0897  0.1633
 6301TIP3   OH240317   6.601   2.949   2.435  0.6449 -0.1425 -0.1995
 6301TIP3    H140318   6.521   2.898   2.438  0.3176  0.3917  0.7615
 6301TIP3    H240319   6.583   3.018   2.372  0.0064  0.4846  0.6342
 6302TIP3   OH240320   4.508   2.688   2.779  0.9185  0.0569  0.0603
 6302TIP3    H140321   4.422   2.668   2.742  1.6540  0.5205 -2.0509
 6302TIP3    H240322   4.522   2.781   2.760  1.2066  0.4235  1.9023
 6303TIP3   OH240323   6.091   2.762   5.084  0.1365 -0.6779  0.3249
 6303TIP3    H140324   6.049   2.744   5.168  0.0105  0.3938  0.4946
 6303TIP3    H240325   6.018   2.775   5.023  0.2272 -0.6677  0.2194
 6304TIP3   OH240326   3.887   3.939   0.821  0.4543 -0.3985  0.5728
 6304TIP3    H140327   3.851   3.937   0.910 -0.6502  2.8527  0.3297
 6304TIP3    H240328   3.978   3.966   0.833  0.0805  0.8550  0.7209
 6305TIP3   OH240329   4.966   0.123  13.163  0.8192  0.3601 -0.2194
 6305TIP3    H140330   4.934   0.149  13.077  0.3266 -3.1662 -1.2766
 6305TIP3    H240331   5.020   0.046  13.146 -0.5227 -1.4010  2.6893
 6306TIP3   OH240332   0.444   0.090  14.031  0.3150 -0.1727 -0.9066
 6306TIP3    H140333   0.480   0.025  13.970 -0.3369 -1.0453 -0.3941
 6306TIP3    H240334   0.421   0.039  14.109 -0.5869  0.6083 -0.6431
 6307TIP3   OH240335   1.510   3.309   2.713  0.8867 -0.4481  0.3803
 6307TIP3    H140336   1.605   3.322   2.720  1.4826 -2.9620 -1.6419
 6307TIP3    H240337   1.496   3.219   2.744 -0.9064 -0.0093  0.9285
 6308TIP3   OH240338   2.095   1.526   0.018 -0.8439 -0.2183 -0.5789
 6308TIP3    H140339   2.130   1.538  -0.070 -0.1064 -1.3143 -0.4611
 6308TIP3    H240340   2.028   1.459   0.009 -2.2537  1.1521 -0.6275
 6309TIP3   OH240341   5.138   6.029   6.552 -0.7940  0.0091  0.2665
 6309TIP3    H140342   5.211   6.051   6.494 -0.6976 -0.4106  0.2229
 6309TIP3    H240343   5.061   6.066   6.509 -0.5151  1.1233  0.6979
 6310TIP3   OH240344   3.682   4.332   0.721 -0.1721 -0.4191  0.1240
 6310TIP3    H140345   3.737   4.398   0.763  0.7683 -1.2863  0.3039
 6310TIP3    H240346   3.630   4.295   0.792 -0.7432  0.1644  0.0127
 6311TIP3   OH240347   2.441   6.603   3.955 -0.3194  0.9347 -0.3493
 6311TIP3    H140348   2.382   6.654   4.011  0.0279  0.8873  0.0640
 6311TIP3    H240349   2.507   6.568   4.015 -1.2580 -1.0547 -0.4092
 6312TIP3   OH240350   0.617   2.605   2.347 -0.0212 -0.0780 -0.4642
 6312TIP3    H140351   0.630   2.582   2.439  0.1895 -0.5082 -0.6014
 6312TIP3    H240352   0.567   2.687   2.350  1.1665  0.6588  0.0439
 6313TIP3   OH240353   3.037   2.060  16.143 -0.4358  0.6564  0.0233
 6313TIP3    H140354   3.059   1.972  16.172 -1.1415 -0.1229 -1.6182
 6313TIP3    H240355   2.941   2.062  16.144 -0.4362  1.2359 -0.4079
 6314TIP3   OH240356   3.777   5.314  14.156  0.1417  1.0791 -0.2077
 6314TIP3    H140357   3.782   5.329  14.251 -1.4978  1.0521 -0.1033
 6314TIP3    H240358   3.826   5.233  14.143 -1.8748 -0.4428  1.0314
 6315TIP3   OH240359   3.881   1.712  10.979 -0.4577 -0.3587  0.2054
 6315TIP3    H140360   3.954   1.771  10.958  1.1728 -2.6841 -1.1368
 6315TIP3    H240361   3.846   1.687  10.893 -1.3842 -1.0145  0.7626
 6316TIP3   OH240362   1.907   5.981  11.872 -0.0945 -0.0170 -0.2432
 6316TIP3    H140363   1.814   5.961  11.861  0.1418 -1.0536 -0.4968
 6316TIP3    H240364   1.943   5.904  11.916  0.6012  0.4852  0.0902
 6317TIP3   OH240365   0.397   4.217   4.445 -0.3540 -0.1334  0.4061
 6317TIP3    H140366   0.322   4.271   4.423  1.3042  2.2602  0.2869
 6317TIP3    H240367   0.413   4.164   4.367 -1.9568 -0.7838  0.4930
 6318TIP3   OH240368   1.338   0.104  15.384  0.0229 -0.4562  0.5373
 6318TIP3    H140369   1.345   0.199  15.390  0.0631 -0.4615  0.5782
 6318TIP3    H240370   1.411   0.079  15.327 -0.4412 -0.3928 -0.0990
 6319TIP3   OH240371   0.061   6.647   0.511 -0.2881 -0.1538 -0.4913
 6319TIP3    H140372   0.130   6.706   0.540  1.5894 -1.4146 -2.0998
 6319TIP3    H240373   0.033   6.600   0.590  0.5588  0.5156  0.2166
 6320TIP3   OH240374   2.573   3.655   1.644 -0.1049  0.0652 -0.0549
 6320TIP3    H140375   2.656   3.613   1.621  0.8041  1.9071 -0.3759
 6320TIP3    H240376   2.544   3.696   1.562  0.1800  1.8491  0.6936
 6321TIP3   OH240377   5.233   3.089  17.350  0.1939 -0.8348  0.1889
 6321TIP3    H140378   5.267   3.155  17.410 -1.0566 -2.4215  2.8139
 6321TIP3    H240379   5.140   3.110  17.341  0.4293 -0.4046 -1.5628
 6322TIP3   OH240380   1.019   0.858  13.904  0.1084 -0.5290 -0.1584
 6322TIP3    H140381   1.065   0.915  13.966 -0.1798 -0.8244  0.3319
 6322TIP3    H240382   1.079   0.786  13.887  0.1490 -0.4983 -0.1440
 6323TIP3   OH240383   5.520   2.617  16.381 -0.5805  0.1224  0.1228
 6323TIP3    H140384   5.598   2.567  16.358 -1.2709 -0.1247 -1.8956
 6323TIP3    H240385   5.451   2.582  16.324 -1.1862  3.0916 -1.2024
 6324TIP3   OH240386   1.191   5.958   2.125 -0.1478  0.8273  0.0902
 6324TIP3    H140387   1.166   5.921   2.040 -1.5507 -1.4581  1.4168
 6324TIP3    H240388   1.227   5.884   2.174  0.6932  2.1095  1.4949
 6325TIP3   OH240389   0.049   4.696  15.896 -0.1858 -0.7978  0.4836
 6325TIP3    H140390   0.144   4.690  15.886 -0.3356  0.3611 -2.3782
 6325TIP3    H240391   0.014   4.675  15.810 -2.2970  2.5621  0.3279
 6326TIP3   OH240392   6.719   3.681  12.224  0.6931 -0.2732 -0.5410
 6326TIP3    H140393   6.745   3.609  12.167 -0.8394 -0.5854 -0.8994
 6326TIP3    H240394   6.696   3.753  12.164 -0.0424 -0.2935 -0.2975
 6327TIP3   OH240395   3.387   4.226  12.708  0.1231 -0.0186 -0.1398
 6327TIP3    H140396   3.296   4.234  12.738  0.6636  2.8578  1.0371
 6327TIP3    H240397   3.385   4.258  12.618 -0.4843 -3.1179 -1.3655
 6328TIP3   OH240398   5.063   0.128   2.667  0.1900  0.0199 -0.5577
 6328TIP3    H140399   5.015   0.173   2.736  1.1383 -0.1102  0.2018
 6328TIP3    H240400   5.139   0.184   2.651  2.3330 -2.0408  1.5948
 6329TIP3   OH240401   1.399   3.176  15.927 -0.0854  0.2081 -0.2092
 6329TIP3    H140402   1.349   3.255  15.907  0.1924  0.2079 -0.9485
 6329TIP3    H240403   1.488   3.197  15.900 -0.0878 -0.4918 -0.7909
 6330TIP3   OH240404   2.893   6.738   5.775  0.0252  0.2846 -0.1462
 6330TIP3    H140405   2.925   6.689   5.852 -0.6433 -0.6751 -0.4678
 6330TIP3    H240406   2.949   6.815   5.772  1.5751 -0.7769 -0.0120
 6331TIP3   OH240407   5.365   4.518   2.599  0.1644 -0.4523 -0.1189
 6331TIP3    H140408   5.399   4.603   2.628  1.7344 -1.3486  0.8359
 6331TIP3    H240409   5.279   4.537   2.563  0.9934  1.7359 -1.1073
 6332TIP3   OH240410   0.004   1.447   3.066  0.2835  0.5008 -0.0072
 6332TIP3    H140411   0.066   1.394   3.116 -0.4803 -0.2053  0.1982
 6332TIP3    H240412   0.059   1.513   3.023  1.1223  0.1769  0.5424
 6333TIP3   OH240413   3.440   3.542  12.504 -0.5696 -0.0998  0.3418
 6333TIP3    H140414   3.395   3.496  12.575 -1.4993 -1.0592 -0.8195
 6333TIP3    H240415   3.383   3.616  12.483 -0.0619  0.4541  0.8974
 6334TIP3   OH240416   5.149   1.324   5.849 -0.3587  0.2238 -0.5050
 6334TIP3    H140417   5.232   1.350   5.888 -0.7929  0.3771  0.3508
 6334TIP3    H240418   5.113   1.404   5.812 -0.0183  0.1097 -1.0895
 6335TIP3   OH240419   3.815   0.362   4.200 -0.5256 -0.1458  0.6480
 6335TIP3    H140420   3.905   0.329   4.201 -0.6950 -0.6148  1.2507
 6335TIP3    H240421   3.814   0.430   4.266 -0.1758  1.1261 -0.6007
 6336TIP3   OH240422   1.213   5.003   1.940 -0.7087  0.7522 -0.3922
 6336TIP3    H140423   1.304   5.026   1.958 -0.2535 -0.4780 -0.9762
 6336TIP3    H240424   1.187   5.062   1.869 -0.5031  1.3891  0.0592
 6337TIP3   OH240425   1.526   2.132  15.301  0.0107  0.0258  0.1953
 6337TIP3    H140426   1.515   2.037  15.303  2.9773 -0.3949  0.6383
 6337TIP3    H240427   1.532   2.158  15.393  0.9420  0.3826  0.0401
 6338TIP3   OH240428   1.911   6.494   4.037  0.0266  0.1708  0.4684
 6338TIP3    H140429   1.883   6.437   3.965  0.4705 -1.5451  1.5884
 6338TIP3    H240430   1.837   6.491   4.098  0.0549  0.8247  0.5324
 6339TIP3   OH240431   5.145   2.092  10.887  0.2819  0.2580  0.1150
 6339TIP3    H140432   5.198   2.157  10.933  0.3265  1.4965 -1.5955
 6339TIP3    H240433   5.132   2.129  10.800 -1.5136 -1.0553 -0.2385
 6340TIP3   OH240434   3.671   0.915  14.049 -0.9692 -0.6728 -0.1368
 6340TIP3    H140435   3.727   0.907  14.127 -3.0298  1.2461  1.7254
 6340TIP3    H240436   3.588   0.875  14.076 -1.1974 -1.5652 -2.0512
 6341TIP3   OH240437   6.564   2.404  11.456  0.5404  0.4876  0.1161
 6341TIP3    H140438   6.538   2.314  11.441 -0.4488  0.6516  0.7632
 6341TIP3    H240439   6.573   2.412  11.551 -0.2490  1.2859  0.1432
 6342TIP3   OH240440   6.614   3.737  12.893 -0.0801  0.1057  0.2042
 6342TIP3    H140441   6.656   3.725  12.808  0.0222  0.2922  0.2267
 6342TIP3    H240442   6.528   3.697  12.884  0.2309 -0.5916  0.2704
 6343TIP3   OH240443   2.186   1.154  14.474  0.3871 -0.2602 -0.0729
 6343TIP3    H140444   2.256   1.102  14.512  1.4639  0.6706 -0.7077
 6343TIP3    H240445   2.190   1.237  14.521 -2.1268 -1.0787  1.8108
 6344TIP3   OH240446   0.770   0.670   4.570 -0.4164 -0.9296  0.8169
 6344TIP3    H140447   0.819   0.728   4.628  1.2072 -1.3470 -0.0795
 6344TIP3    H240448   0.785   0.705   4.482 -2.7856 -0.3340  0.5815
 6345TIP3   OH240449   0.267   5.042  13.227 -0.2616 -0.7664 -0.2158
 6345TIP3    H140450   0.341   4.991  13.194 -0.7037 -0.4364 -1.8056
 6345TIP3    H240451   0.251   5.006  13.315  0.2358 -2.4946 -0.7800
 6346TIP3   OH240452   2.747   5.721  12.233  0.2749  0.3809 -0.1396
 6346TIP3    H140453   2.802   5.707  12.311 -1.1240 -0.7884  0.6842
 6346TIP3    H240454   2.657   5.722  12.267 -0.3866 -0.2794 -1.7587
 6347TIP3   OH240455   1.970   3.970  12.419  0.2230  0.3682 -0.5754
 6347TIP3    H140456   2.032   3.921  12.472  0.1685  1.2904  0.3865
 6347TIP3    H240457   2.020   4.047  12.390  0.8383 -1.0216 -3.4900
 6348TIP3   OH240458   4.735   1.589  13.482 -0.0930 -0.4748  0.0038
 6348TIP3    H140459   4.724   1.679  13.455  1.2110 -0.5275 -0.7765
 6348TIP3    H240460   4.670   1.540  13.432  0.8425 -0.2780 -1.4635
 6349TIP3   OH240461   5.256   6.368  16.936  0.3565 -0.2781 -0.3111
 6349TIP3    H140462   5.230   6.327  17.018  0.4042  0.0350 -0.1382
 6349TIP3    H240463   5.182   6.356  16.878 -0.2277  0.6992  0.2095
 6350TIP3   OH240464   6.184   1.050  15.435 -0.2212 -0.0075 -0.0043
 6350TIP3    H140465   6.098   1.038  15.475 -0.1465  0.2813  0.2442
 6350TIP3    H240466   6.219   0.961  15.426 -1.3971 -0.3161 -2.0078
 6351TIP3   OH240467   0.680   5.788  17.070  0.0562 -0.2533  0.6227
 6351TIP3    H140468   0.645   5.835  16.995  0.5833 -0.2001  0.4041
 6351TIP3    H240469   0.607   5.783  17.132  0.2535  1.7432  1.0755
 6352TIP3   OH240470   2.647   4.320   3.359  0.2577  0.1295  0.5873
 6352TIP3    H140471   2.639   4.344   3.451  0.5383 -0.6460  0.8176
 6352TIP3    H240472   2.595   4.386   3.313 -0.4727  0.1052  1.3591
 6353TIP3   OH240473   2.434   1.307   0.607  0.2633 -0.5766  0.6498
 6353TIP3    H140474   2.356   1.311   0.552 -0.5913 -1.1462  1.7893
 6353TIP3    H240475   2.495   1.252   0.557 -0.8125 -1.8094  0.6405
 6354TIP3   OH240476   0.723   3.415   1.560  0.2777 -0.4812  0.5378
 6354TIP3    H140477   0.738   3.441   1.651  0.8504 -0.0409  0.3213
 6354TIP3    H240478   0.810   3.406   1.522  0.0385 -0.2756 -0.0787
 6355TIP3   OH240479   3.102   3.914   4.345  0.9648 -0.4794  0.1679
 6355TIP3    H140480   3.124   3.854   4.274 -0.7307  0.9372 -1.6706
 6355TIP3    H240481   3.131   4.000   4.314 -1.6376  0.4908  0.2105
 6356TIP3   OH240482   1.933   1.604  16.042 -0.7881 -0.0259 -0.2569
 6356TIP3    H140483   1.948   1.629  15.951  1.3850 -1.5522 -0.3824
 6356TIP3    H240484   1.941   1.686  16.091  2.6357  0.2498 -1.0129
 6357TIP3   OH240485   1.024   3.779   0.381 -0.4517  0.1239  0.6700
 6357TIP3    H140486   1.014   3.873   0.363 -0.1927 -0.2832 -1.8288
 6357TIP3    H240487   0.948   3.739   0.342 -0.1981 -0.8089  1.1096
 6358TIP3   OH240488   3.974   1.530   5.719 -0.0414 -0.6120  0.0877
 6358TIP3    H140489   4.044   1.579   5.762  0.7462  0.3579 -2.1553
 6358TIP3    H240490   4.020   1.460   5.672  0.0425  1.8768 -4.0693
 6359TIP3   OH240491   6.392   5.415  13.869  0.0462  0.0352 -0.1129
 6359TIP3    H140492   6.390   5.507  13.842  2.0976 -0.2800 -1.6022
 6359TIP3    H240493   6.396   5.366  13.786  1.3733 -1.2392  0.6550
 6360TIP3   OH240494   4.311   4.783  16.142  0.0518 -0.2465  0.5424
 6360TIP3    H140495   4.395   4.828  16.149 -0.1998  0.1281  1.1876
 6360TIP3    H240496   4.256   4.822  16.210 -0.9120  0.0874 -0.3946
 6361TIP3   OH240497   5.879   6.360  15.382  0.0085 -0.4430 -0.0477
 6361TIP3    H140498   5.812   6.316  15.434 -1.0577  1.3854  0.2181
 6361TIP3    H240499   5.840   6.368  15.295 -0.4399  1.1460  0.2539
 6362TIP3   OH240500   1.095   2.908   4.034 -0.7437  0.1042 -0.0498
 6362TIP3    H140501   1.175   2.877   4.077 -0.7338 -1.7020 -1.2522
 6362TIP3    H240502   1.025   2.858   4.075 -0.7549 -1.5208 -1.8641
 6363TIP3   OH240503   5.659   0.778   4.594  0.0356 -0.2201  0.3131
 6363TIP3    H140504   5.649   0.873   4.587  0.5594 -0.1364  0.6218
 6363TIP3    H240505   5.651   0.746   4.504 -2.0602 -0.1017  0.4047
 6364TIP3   OH240506   5.894   3.045   0.660 -0.4724  0.2364 -0.7913
 6364TIP3    H140507   5.829   3.111   0.637 -1.0895  0.1111  0.5031
 6364TIP3    H240508   5.884   3.034   0.754 -0.1948 -1.5065 -0.9417
 6365TIP3   OH240509   4.616   0.601  14.765 -0.2536  0.0738  0.2761
 6365TIP3    H140510   4.707   0.590  14.795 -0.2514 -1.8662 -0.3535
 6365TIP3    H240511   4.577   0.660  14.830  0.7408 -1.1513  2.0646
 6366TIP3   OH240512   2.466   1.195  14.602  0.8022 -0.3404  0.3906
 6366TIP3    H140513   2.418   1.270  14.566  0.7357 -0.5544  0.0344
 6366TIP3    H240514   2.460   1.128  14.534 -0.2303 -1.1300  1.2277
 6367TIP3   OH240515   1.754   1.788  12.960  0.8253  0.2220  0.1849
 6367TIP3    H140516   1.731   1.700  12.930 -0.7917  0.5894  0.2901
 6367TIP3    H240517   1.685   1.811  13.022  1.7640  1.1957  0.9175
 6368TIP3   OH240518   2.820   3.007  14.477  0.5869 -0.2708 -0.0549
 6368TIP3    H140519   2.762   2.939  14.444  2.1370 -1.5911 -0.1643
 6368TIP3    H240520   2.804   3.009  14.572 -1.9228  1.6579 -0.4277
 6369TIP3   OH240521   5.730   1.609  12.939  0.2144  0.1474  0.3861
 6369TIP3    H140522   5.664   1.622  13.007 -0.7059 -0.7442 -0.3065
 6369TIP3    H240523   5.811   1.592  12.987  0.2183  2.3409  1.2568
 6370TIP3   OH240524   4.320   3.040   2.722  0.0077  0.1569  0.0153
 6370TIP3    H140525   4.406   3.001   2.735  0.6121  0.8193 -1.7145
 6370TIP3    H240526   4.297   3.017   2.631 -2.3404 -1.3209  0.8884
 6371TIP3   OH240527   0.230   3.328   2.068  0.2037 -0.1768 -0.2368
 6371TIP3    H140528   0.298   3.285   2.016  0.0387 -0.8137  0.0661
 6371TIP3    H240529   0.172   3.369   2.003 -0.3730 -1.5185 -0.6068
 6372TIP3   OH240530   4.356   3.723  13.048 -0.1470  0.1096 -0.7591
 6372TIP3    H140531   4.336   3.782  13.121  1.1771  0.0065 -0.2761
 6372TIP3    H240532   4.328   3.770  12.970 -1.1284  0.4376 -0.2275
 6373TIP3   OH240533   5.703   1.326  13.884 -0.5535 -0.2283  0.5774
 6373TIP3    H140534   5.627   1.382  13.866 -2.3955 -2.1748  1.8187
 6373TIP3    H240535   5.680   1.278  13.963  1.4713 -1.8052  0.3059
 6374TIP3   OH240536   2.176   3.982   4.099 -0.0914  0.1063 -0.4219
 6374TIP3    H140537   2.083   3.971   4.119 -0.1297  0.5279 -0.3718
 6374TIP3    H240538   2.216   3.899   4.126  0.0930  1.1071  2.8078
 6375TIP3   OH240539   5.574   3.526  17.061  0.0642 -0.6985 -0.1000
 6375TIP3    H140540   5.505   3.591  17.077 -0.2518 -1.0302 -0.1130
 6375TIP3    H240541   5.536   3.443  17.088 -0.0232 -1.0830 -1.3598
 6376TIP3   OH240542   3.784   1.765   0.012  0.0250  0.6644 -0.2982
 6376TIP3    H140543   3.820   1.741   0.097 -0.2475 -1.8896 -0.8430
 6376TIP3    H240544   3.847   1.731  -0.051 -0.4490  1.3511 -1.1573
 6377TIP3   OH240545   2.952   3.083   3.687  0.1389  0.0571 -0.0999
 6377TIP3    H140546   2.868   3.057   3.648 -0.0091  0.4512 -0.0510
 6377TIP3    H240547   2.977   3.161   3.639  1.2454 -0.9045 -1.1550
 6378TIP3   OH240548   0.170   3.339  15.190  0.1470  0.0414  0.1645
 6378TIP3    H140549   0.216   3.418  15.218  1.0207 -1.0519  2.0518
 6378TIP3    H240550   0.095   3.333  15.249 -0.0831 -0.3791 -0.1658
 6379TIP3   OH240551   4.396   4.902   5.825  0.3048 -0.2427 -0.1019
 6379TIP3    H140552   4.396   4.955   5.904 -1.1250  0.4590 -0.5390
 6379TIP3    H240553   4.487   4.904   5.794  0.7081  0.1415  1.0656
 6380TIP3   OH240554   3.456   5.766   0.725  0.1122 -0.6395  0.2709
 6380TIP3    H140555   3.480   5.843   0.673  0.4586  1.4637  3.2778
 6380TIP3    H240556   3.379   5.730   0.680 -0.3694  1.7587 -1.0174
 6381TIP3   OH240557   1.526   2.323  11.603 -0.1975 -0.3528 -0.0405
 6381TIP3    H140558   1.504   2.231  11.610 -3.7440  0.4163  0.8085
 6381TIP3    H240559   1.471   2.355  11.531  1.8723  0.9441 -1.1653
 6382TIP3   OH240560   4.355   3.702   4.307 -0.1725  0.3711 -0.1462
 6382TIP3    H140561   4.288   3.760   4.343  1.0800  0.9171  1.4323
 6382TIP3    H240562   4.430   3.713   4.365  0.9417 -1.0115 -1.2414
 6383TIP3   OH240563   2.189   0.740  13.389  0.0891  0.1562  0.2363
 6383TIP3    H140564   2.257   0.807  13.384 -1.0888  1.3890  0.2894
 6383TIP3    H240565   2.165   0.724  13.298  0.5359 -0.3864  0.2086
 6384TIP3   OH240566   1.591   6.569  16.260 -0.0004  0.5181 -0.5161
 6384TIP3    H140567   1.675   6.563  16.216  0.2944 -1.6930  0.2286
 6384TIP3    H240568   1.536   6.504  16.216 -0.3665 -0.1884  0.9109
 6385TIP3   OH240569   1.975   5.682  14.457 -0.1327 -0.1588  0.2558
 6385TIP3    H140570   1.998   5.712  14.545  1.7776  0.4092 -0.3880
 6385TIP3    H240571   2.035   5.729  14.399 -0.7730 -1.1617 -1.2920
 6386TIP3   OH240572   4.774   4.832   3.494  0.4414 -0.3827 -0.2714
 6386TIP3    H140573   4.737   4.815   3.407  2.6333 -0.4122 -1.2775
 6386TIP3    H240574   4.839   4.763   3.506 -2.2744 -2.7151  3.0912
 6387TIP3   OH240575   4.575   1.991   3.670  0.1888 -0.9756 -0.0905
 6387TIP3    H140576   4.616   2.077   3.681  0.5891 -0.8225 -2.3626
 6387TIP3    H240577   4.575   1.953   3.758  1.8151  0.5383  0.6146
 6388TIP3   OH240578   4.909   1.277   4.858 -0.2196 -0.2499 -0.1883
 6388TIP3    H140579   4.954   1.332   4.794  2.2021 -1.7571  0.1058
 6388TIP3    H240580   4.917   1.323   4.941  2.0289 -1.0582  0.1058
 6389TIP3   OH240581   6.546   6.458   3.603 -0.7935  0.0351 -0.2670
 6389TIP3    H140582   6.474   6.519   3.590  0.2152  1.7178  1.4732
 6389TIP3    H240583   6.522   6.408   3.682 -0.7896 -0.5767 -0.6430
 6390TIP3   OH240584   5.035   4.033   5.498 -0.4297  0.3863  0.1936
 6390TIP3    H140585   5.103   4.045   5.432  0.0279 -0.9110  0.4112
 6390TIP3    H240586   5.079   3.989   5.570 -1.8397 -2.0880 -0.3465
 6391TIP3   OH240587   6.209   4.714   2.276 -0.8243 -0.2963 -0.0782
 6391TIP3    H140588   6.132   4.735   2.329 -1.6915  1.6511 -1.9555
 6391TIP3    H240589   6.228   4.623   2.298 -2.4952 -0.2698  1.8491
 6392TIP3   OH240590   0.885   1.338  11.409  0.2534 -0.2562  0.0961
 6392TIP3    H140591   0.819   1.326  11.341  1.2678 -3.5215 -0.5195
 6392TIP3    H240592   0.967   1.346  11.360  0.4988  3.1013  0.8617
 6393TIP3   OH240593   2.869   4.246  11.937  0.8980  0.5259  0.6013
 6393TIP3    H140594   2.923   4.251  11.858 -0.7931  0.2993 -0.6197
 6393TIP3    H240595   2.792   4.299  11.918 -1.1993 -2.2628  0.6950
 6394TIP3   OH240596   4.400   2.553  11.692  0.0385 -0.3398  0.6239
 6394TIP3    H140597   4.350   2.578  11.614  1.4640 -0.4973 -0.3670
 6394TIP3    H240598   4.337   2.560  11.764 -1.1697  0.2991 -0.4622
 6395TIP3   OH240599   4.366   4.808   3.149  0.4103 -0.0633 -0.6392
 6395TIP3    H140600   4.285   4.850   3.120  0.4509  1.0966  0.8062
 6395TIP3    H240601   4.337   4.733   3.201  0.2715  0.3118 -0.1772
 6396TIP3   OH240602   4.766   4.259  16.608 -0.0295  0.2997  0.2511
 6396TIP3    H140603   4.827   4.196  16.571 -2.0946 -0.8864 -1.3710
 6396TIP3    H240604   4.800   4.344  16.583  1.1683 -0.3030 -0.2350
 6397TIP3   OH240605   0.338   2.349  13.110  0.0462  0.1422  0.0967
 6397TIP3    H140606   0.321   2.437  13.076  2.8786  0.7120 -0.0739
 6397TIP3    H240607   0.415   2.319  13.062  0.0220 -1.8447  1.1994
 6398TIP3   OH240608   6.401   1.119   5.762 -0.1522 -0.1704 -0.2593
 6398TIP3    H140609   6.376   1.212   5.768  0.7126  0.0741 -0.3801
 6398TIP3    H240610   6.487   1.114   5.802  0.9941 -0.4249 -2.5701
 6399TIP3   OH240611   3.438   4.097  14.018 -0.2697  0.1193 -0.4106
 6399TIP3    H140612   3.373   4.031  14.040 -2.4927  2.5393  0.7888
 6399TIP3    H240613   3.450   4.147  14.099  1.5948  1.0187 -1.1745
 6400TIP3   OH240614   1.222   2.250  13.312 -0.5225  0.2952 -0.2676
 6400TIP3    H140615   1.149   2.212  13.362 -1.3931  2.4887  0.2350
 6400TIP3    H240616   1.300   2.227  13.361 -1.0036 -0.8623 -0.0167
 6401TIP3   OH240617   2.756   1.994   6.184  0.3539 -0.0852  0.0174
 6401TIP3    H140618   2.825   1.954   6.237 -0.0280 -1.4332 -0.4533
 6401TIP3    H240619   2.676   1.949   6.212  0.0441 -0.3061 -1.1743
 6402TIP3   OH240620   4.032   4.865   2.013 -0.5615  0.1945 -0.0033
 6402TIP3    H140621   3.947   4.905   1.991 -0.7194  2.5903  3.9344
 6402TIP3    H240622   4.096   4.932   1.990 -0.3422  0.7639  2.1140
 6403TIP3   OH240623   3.310   1.458   4.872  0.0414  0.2487  0.0204
 6403TIP3    H140624   3.299   1.447   4.778 -3.0116  1.1271  0.1473
 6403TIP3    H240625   3.385   1.404   4.894  1.7793  1.1396 -3.0969
 6404TIP3   OH240626   0.129   2.943  11.412 -0.1971  0.5467  0.1837
 6404TIP3    H140627   0.070   2.871  11.390  0.1119  0.2532  0.3028
 6404TIP3    H240628   0.126   3.002  11.336  1.6242 -0.9435 -1.1402
 6405TIP3   OH240629   5.018   1.063   0.290 -0.1377 -0.1916  0.4514
 6405TIP3    H140630   4.992   0.980   0.250  0.1938  1.0704 -2.6293
 6405TIP3    H240631   5.074   1.105   0.225 -0.1353  2.3865  1.9741
 6406TIP3   OH240632   2.948   3.400   1.721 -0.0534  0.1420  0.3342
 6406TIP3    H140633   2.907   3.451   1.650 -0.1754 -0.3056  0.0804
 6406TIP3    H240634   3.022   3.453   1.748  0.3955  0.0146 -0.5939
 6407TIP3   OH240635   3.491   0.456  15.537 -0.3566 -0.7038 -0.1883
 6407TIP3    H140636   3.433   0.427  15.468 -1.0131  0.1737 -0.0264
 6407TIP3    H240637   3.441   0.446  15.618 -1.1205  1.9138 -0.2183
 6408TIP3   OH240638   5.497   5.363   5.610 -0.6455  0.8015 -0.2382
 6408TIP3    H140639   5.448   5.283   5.631 -1.2038  1.1510 -0.1681
 6408TIP3    H240640   5.433   5.433   5.623 -0.0586  1.2894  0.0455
 6409TIP3   OH240641   1.988   0.803  14.820 -0.0749 -0.3930  0.5155
 6409TIP3    H140642   1.986   0.880  14.763  0.5513 -0.7018  0.0574
 6409TIP3    H240643   1.910   0.754  14.796 -0.8287  0.4116  1.2724
 6410TIP3   OH240644   3.057   2.784  15.383 -0.3320 -0.2273  0.4381
 6410TIP3    H140645   3.134   2.813  15.433 -0.3880 -0.8719  0.9154
 6410TIP3    H240646   2.994   2.756  15.450 -1.5895  1.6955  0.1177
 6411TIP3   OH240647   6.110   2.609  11.680 -0.1762 -0.4633 -0.0417
 6411TIP3    H140648   6.174   2.595  11.609  1.2044  0.9762  0.8491
 6411TIP3    H240649   6.036   2.554  11.656  1.2276 -1.9073 -1.3407
 6412TIP3   OH240650   0.828   1.197   5.920  0.3400  0.0154 -0.2595
 6412TIP3    H140651   0.879   1.175   5.998 -0.0270  1.2407  0.3608
 6412TIP3    H240652   0.737   1.188   5.947  0.2009  0.8527 -0.3969
 6413TIP3   OH240653   0.615   6.523  12.958  0.3772 -0.2510  0.0143
 6413TIP3    H140654   0.669   6.500  12.882  0.9672  0.0609  0.3328
 6413TIP3    H240655   0.575   6.440  12.985 -0.8502 -0.1577 -1.3947
 6414TIP3   OH240656   1.252   3.156  12.500 -0.7748 -0.6093  0.2245
 6414TIP3    H140657   1.165   3.126  12.473 -0.9064  0.5424 -0.6910
 6414TIP3    H240658   1.312   3.090  12.467 -1.1291 -0.3128 -1.0400
 6415TIP3   OH240659   1.776   1.668  17.130  0.0424  0.1647  0.5956
 6415TIP3    H140660   1.792   1.650  17.038 -0.6136  0.8528  0.3300
 6415TIP3    H240661   1.756   1.762  17.133 -1.9059 -0.2178  1.1363
 6416TIP3   OH240662   6.466   3.259   3.425 -1.1311  0.2251  0.3197
 6416TIP3    H140663   6.514   3.297   3.499 -0.2385 -0.7142  0.2507
 6416TIP3    H240664   6.470   3.326   3.357 -1.9177  1.0792  1.0797
 6417TIP3   OH240665   5.713   0.634  13.672 -0.0416 -0.3673 -0.0224
 6417TIP3    H140666   5.696   0.609  13.581 -0.3414  0.3131 -0.1572
 6417TIP3    H240667   5.804   0.663  13.673 -0.6210  1.5946 -0.5614
 6418TIP3   OH240668   5.967   5.779  12.772  0.1760  0.0692 -0.2693
 6418TIP3    H140669   5.936   5.698  12.731 -0.1773 -0.1759  0.4617
 6418TIP3    H240670   6.062   5.775  12.764  0.3130 -1.3866  1.4920
 6419TIP3   OH240671   0.155   4.448   2.192 -0.6770 -0.1066  0.1427
 6419TIP3    H140672   0.197   4.426   2.109 -0.9522  2.2014 -0.6677
 6419TIP3    H240673   0.199   4.527   2.222  1.3399 -2.3220  3.7105
 6420TIP3   OH240674   6.701   0.182  16.436  0.4576 -0.7743 -0.1510
 6420TIP3    H140675   6.782   0.232  16.440 -0.2717  0.3948  1.2989
 6420TIP3    H240676   6.674   0.185  16.345  0.9278  0.6937 -0.2546
 6421TIP3   OH240677   5.696   3.918  10.530  0.3233  0.9694 -0.2408
 6421TIP3    H140678   5.720   3.993  10.584  0.6446  2.0583 -1.8232
 6421TIP3    H240679   5.779   3.877  10.507  0.1897  0.5057  0.1036
 6422TIP3   OH240680   2.288   4.229  14.220 -0.0131  0.3048  0.0827
 6422TIP3    H140681   2.260   4.143  14.251  0.4689 -0.3338 -1.2168
 6422TIP3    H240682   2.282   4.285  14.298  0.7754 -1.1501  1.2407
 6423TIP3   OH240683   0.075   2.565   3.960 -0.0713  0.3656  0.2923
 6423TIP3    H140684   0.044   2.542   3.872  1.8411  0.3634 -0.4414
 6423TIP3    H240685   0.059   2.659   3.967 -2.0408  0.0358  0.7626
 6424TIP3   OH240686   5.507   5.756  12.432 -0.5232 -0.2080  0.3379
 6424TIP3    H140687   5.476   5.786  12.518 -1.0819  2.9772 -0.8254
 6424TIP3    H240688   5.602   5.756  12.439 -0.5358  1.0600  0.6831
 6425TIP3   OH240689   4.626   2.752  14.658 -0.3127  0.3314 -0.7298
 6425TIP3    H140690   4.709   2.776  14.699 -0.8170 -0.6251  0.9561
 6425TIP3    H240691   4.580   2.835  14.647  0.6261  0.8098 -1.1716
 6426TIP3   OH240692   1.302   5.397  15.757  0.4327  0.1893  0.0876
 6426TIP3    H140693   1.349   5.330  15.707 -0.3985  0.2872 -0.8368
 6426TIP3    H240694   1.356   5.475  15.750  0.2891  0.2193 -0.7203
 6427TIP3   OH240695   3.545   3.642  15.580 -0.7188 -0.5123  0.7713
 6427TIP3    H140696   3.558   3.735  15.597 -0.1276 -0.0421 -1.8075
 6427TIP3    H240697   3.576   3.598  15.660 -0.6365  1.4551  1.8731
 6428TIP3   OH240698   1.906   2.692  12.962  0.1530  0.2269  0.0837
 6428TIP3    H140699   1.954   2.665  12.883  2.4470  1.3336  1.0140
 6428TIP3    H240700   1.860   2.612  12.990  1.4662 -0.9321 -0.8832
 6429TIP3   OH240701   2.592   4.004  14.365  0.1454 -0.4926 -0.3664
 6429TIP3    H140702   2.617   4.058  14.290 -1.1781 -1.4525 -1.5473
 6429TIP3    H240703   2.498   3.992  14.356 -0.2075  0.0454  1.9357
 6430TIP3   OH240704   1.540   5.814  12.800  0.6077 -1.0394 -0.2991
 6430TIP3    H140705   1.467   5.877  12.802  1.1554 -0.3912 -0.2916
 6430TIP3    H240706   1.600   5.846  12.866  1.6835 -0.5976 -1.4525
 6431TIP3   OH240707   4.683   3.051   4.045  0.1810  0.3639 -0.4606
 6431TIP3    H140708   4.757   2.996   4.021  0.1302  0.1626 -0.1590
 6431TIP3    H240709   4.608   3.010   4.003 -0.0171 -0.3765  0.5714
 6432TIP3   OH240710   2.823   5.449  14.381  0.3383  0.2387 -0.1844
 6432TIP3    H140711   2.859   5.404  14.304  0.4414  0.8199 -0.4811
 6432TIP3    H240712   2.730   5.426  14.381 -0.3527  2.5094 -2.1788
 6433TIP3   OH240713   3.896   4.307  11.154 -0.2152  0.0372  0.4680
 6433TIP3    H140714   3.885   4.393  11.193  0.5635 -0.0390  0.8782
 6433TIP3    H240715   3.835   4.306  11.080  1.6750  1.9742 -1.2561
 6434TIP3   OH240716   2.718   5.468   3.186  0.5711  0.5687  0.1030
 6434TIP3    H140717   2.754   5.511   3.264  2.1680 -0.6717  0.1105
 6434TIP3    H240718   2.795   5.439   3.137 -0.4027 -1.5092 -0.3092
 6435TIP3   OH240719   4.417   2.814  11.452 -0.2231  0.1467 -0.0870
 6435TIP3    H140720   4.419   2.786  11.360 -1.9580  2.7759 -1.0646
 6435TIP3    H240721   4.325   2.807  11.476  0.1015  0.2311  1.2305
 6436TIP3   OH240722   2.077   2.273  10.755 -0.1933  0.5365  0.2728
 6436TIP3    H140723   2.103   2.363  10.774  0.0936  0.8666 -1.5159
 6436TIP3    H240724   2.003   2.282  10.695 -0.5660 -0.4189  0.5783
 6437TIP3   OH240725   1.768   5.971  14.774  0.9581 -0.3242  0.6261
 6437TIP3    H140726   1.818   5.973  14.692  0.9927  0.0493  0.6513
 6437TIP3    H240727   1.677   5.976  14.746  0.9824  0.1483  0.6184
 6438TIP3   OH240728   3.802   3.749   3.168 -0.3402  0.1501 -0.2316
 6438TIP3    H140729   3.722   3.800   3.176  0.9208  2.2493 -0.1269
 6438TIP3    H240730   3.803   3.719   3.077 -1.3595 -0.1168 -0.1574
 6439TIP3   OH240731   5.185   0.707   0.324  0.0340  0.6490 -0.5358
 6439TIP3    H140732   5.125   0.765   0.371  0.4674  1.2502 -0.7254
 6439TIP3    H240733   5.129   0.634   0.296 -0.6525  1.2861 -0.8648
 6440TIP3   OH240734   0.642   1.325   0.454  0.1627 -0.0001 -0.5264
 6440TIP3    H140735   0.700   1.402   0.459  2.4095 -1.4804 -2.2316
 6440TIP3    H240736   0.648   1.286   0.541 -1.1804  1.7751  0.4436
 6441TIP3   OH240737   6.180   3.805   1.593 -0.0570  0.2417 -0.0618
 6441TIP3    H140738   6.249   3.801   1.659  1.0969 -2.7562 -1.2681
 6441TIP3    H240739   6.103   3.768   1.636 -0.1740  1.0741  0.4634
 6442TIP3   OH240740   1.457   6.408   6.432  0.0229 -0.2189 -0.2195
 6442TIP3    H140741   1.400   6.413   6.508  0.7203  1.4351  0.2404
 6442TIP3    H240742   1.404   6.439   6.359  0.0088  0.2993  0.0097
 6443TIP3   OH240743   2.579   2.168   5.762 -0.0941 -0.5192  0.3453
 6443TIP3    H140744   2.539   2.248   5.796  2.4091  0.9401  0.1050
 6443TIP3    H240745   2.581   2.109   5.838 -2.1537 -0.5164  0.4790
 6444TIP3   OH240746   2.550   5.824  14.422  0.0022  0.3766 -0.4126
 6444TIP3    H140747   2.529   5.887  14.491 -0.7787 -0.0380 -0.2594
 6444TIP3    H240748   2.472   5.823  14.366 -0.7350 -1.7314  0.5615
 6445TIP3   OH240749   0.056   6.633   6.220 -0.5303  0.6077 -0.1083
 6445TIP3    H140750   0.071   6.727   6.232 -0.3744  1.2865 -4.2892
 6445TIP3    H240751  -0.020   6.628   6.163  0.0719 -1.7446 -0.8024
 6446TIP3   OH240752   3.486   5.577  11.256 -0.5715  0.0821 -0.6690
 6446TIP3    H140753   3.571   5.532  11.263  0.4228  1.8184 -1.1082
 6446TIP3    H240754   3.435   5.542  11.328  0.9619 -0.0848  0.3842
 6447TIP3   OH240755   0.910   0.652  13.352  0.1461  0.1708  0.3838
 6447TIP3    H140756   0.943   0.595  13.422 -0.3896 -0.2412  0.3069
 6447TIP3    H240757   0.816   0.637  13.351 -0.0818  1.4568  0.7063
 6448TIP3   OH240758   4.235   3.199   5.485  0.4442 -0.9752 -0.1113
 6448TIP3    H140759   4.295   3.170   5.554  0.0265 -3.6542 -0.7634
 6448TIP3    H240760   4.149   3.198   5.525  0.4087 -0.7630 -0.1814
 6449TIP3   OH240761   5.724   5.055  16.997 -0.0639 -0.0127  0.0591
 6449TIP3    H140762   5.792   5.122  16.991 -1.1032  1.0639  0.0380
 6449TIP3    H240763   5.670   5.082  17.070 -1.9413  0.5831 -1.4582
 6450TIP3   OH240764   0.123   6.306  13.775  0.2899  0.1658  0.2055
 6450TIP3    H140765   0.114   6.233  13.712 -2.1716  0.4976  0.0539
 6450TIP3    H240766   0.151   6.264  13.856  0.4684 -0.7292 -0.3050
 6451TIP3   OH240767   0.946   2.188   5.328 -0.3804  0.0065  0.2531
 6451TIP3    H140768   0.873   2.227   5.375 -2.0241 -0.4921 -1.7584
 6451TIP3    H240769   0.961   2.104   5.371 -1.2563 -0.0607  0.4295
 6452TIP3   OH240770   3.380   3.011  14.167  0.1497  0.0885 -0.9685
 6452TIP3    H140771   3.346   2.984  14.252  2.6067  0.7037  0.2956
 6452TIP3    H240772   3.348   3.100  14.155 -2.0453 -0.7457 -1.8068
 6453TIP3   OH240773   1.260   0.430   4.772 -0.0164 -0.3860  0.4805
 6453TIP3    H140774   1.230   0.520   4.786  0.4429 -0.2302  0.4690
 6453TIP3    H240775   1.281   0.398   4.859  2.3622  0.4166  0.2767
 6454TIP3   OH240776   4.415   2.111  10.504 -0.2488  0.2773 -0.0369
 6454TIP3    H140777   4.330   2.146  10.477 -0.4016  0.2132  0.3586
 6454TIP3    H240778   4.408   2.017  10.491 -0.5233  0.1812  0.7583
 6455TIP3   OH240779   6.423   4.915  11.814 -0.0770 -0.4630 -0.1815
 6455TIP3    H140780   6.328   4.903  11.811 -0.1281 -0.0496 -3.4637
 6455TIP3    H240781   6.453   4.851  11.880 -2.6023 -0.3244  1.2345
 6456TIP3   OH240782   4.307   5.080   6.045 -0.1184  0.0504 -0.6021
 6456TIP3    H140783   4.378   5.114   6.098  0.4279 -0.3199 -1.0821
 6456TIP3    H240784   4.227   5.107   6.091  0.3132  0.9925 -0.3809
 6457TIP3   OH240785   1.555   2.123  11.241  0.1890  0.2707 -0.1222
 6457TIP3    H140786   1.587   2.036  11.261 -2.2281 -0.5640  0.4821
 6457TIP3    H240787   1.574   2.175  11.319 -1.4672 -0.6907  0.9744
 6458TIP3   OH240788   0.485   4.652   6.540  0.1152  0.3848  0.2627
 6458TIP3    H140789   0.419   4.584   6.557  1.4240 -0.8503  0.5830
 6458TIP3    H240790   0.530   4.663   6.623 -0.3845  2.0368  0.3501
 6459TIP3   OH240791   4.329   6.054  14.649  0.2046  0.2324  0.4584
 6459TIP3    H140792   4.397   6.106  14.606  0.2032  1.4150  1.8308
 6459TIP3    H240793   4.370   6.020  14.728 -0.5937  0.3731  0.9419
 6460TIP3   OH240794   3.013   4.735   0.570  0.0260 -0.1620 -0.0900
 6460TIP3    H140795   2.985   4.783   0.648  0.8791  0.2135  0.0054
 6460TIP3    H240796   2.978   4.786   0.497 -0.4731 -0.3145  0.0445
 6461TIP3   OH240797   0.246   6.720  11.326 -0.1941 -0.5401  0.5160
 6461TIP3    H140798   0.283   6.663  11.258 -0.9821 -0.8325  0.3184
 6461TIP3    H240799   0.301   6.799  11.324 -1.2226  0.2155 -1.6999
 6462TIP3   OH240800   6.215   5.793  15.626  0.2085 -0.1456 -0.8305
 6462TIP3    H140801   6.276   5.724  15.653  0.4589 -0.0012 -1.0276
 6462TIP3    H240802   6.160   5.752  15.560 -0.1212 -0.3704 -0.4237
 6463TIP3   OH240803   3.554   6.397   2.239  0.3733 -0.4711 -0.2174
 6463TIP3    H140804   3.514   6.455   2.303 -0.3214 -0.2627 -0.8282
 6463TIP3    H240805   3.646   6.391   2.266  0.2534  0.1926  0.3652
 6464TIP3   OH240806   2.909   1.550   5.431  0.1626  0.0924 -0.3856
 6464TIP3    H140807   2.873   1.533   5.518  1.4349 -1.8395 -0.1827
 6464TIP3    H240808   2.843   1.518   5.370 -0.4016  0.7469 -0.1248
 6465TIP3   OH240809   4.048   0.986   4.698  0.6851  0.1011  0.6363
 6465TIP3    H140810   3.994   0.948   4.766  0.6917 -1.8838 -0.4105
 6465TIP3    H240811   4.029   0.935   4.620  0.5200  2.4167 -0.9631
 6466TIP3   OH240812   5.793   3.350  14.217 -0.4616 -0.0325  0.1822
 6466TIP3    H140813   5.793   3.412  14.290  0.3396 -0.3235  0.4398
 6466TIP3    H240814   5.885   3.346  14.189 -0.4853 -1.1670  0.2280
 6467TIP3   OH240815   3.509   6.123  15.669  0.0996 -0.1114 -0.0284
 6467TIP3    H140816   3.502   6.162  15.581  0.0794 -0.6230 -0.2537
 6467TIP3    H240817   3.557   6.189  15.720  0.2098  0.1410 -0.4519
 6468TIP3   OH240818   2.843   6.623   3.578  0.9312  0.0367 -0.1240
 6468TIP3    H140819   2.922   6.588   3.619  0.7289 -0.0904  0.1616
 6468TIP3    H240820   2.771   6.580   3.624  0.7062 -0.3306 -0.8199
 6469TIP3   OH240821   1.595   2.731   0.710 -0.1423  0.8629 -0.0250
 6469TIP3    H140822   1.518   2.718   0.765 -1.1675 -1.0798 -1.7898
 6469TIP3    H240823   1.658   2.666   0.742 -1.0218 -0.8113 -1.5124
 6470TIP3   OH240824   2.762   0.572   3.883 -0.6392  0.1575 -0.6762
 6470TIP3    H140825   2.753   0.573   3.788 -1.8958  0.3373 -0.5826
 6470TIP3    H240826   2.721   0.489   3.910  0.0318 -0.0611 -0.3200
 6471TIP3   OH240827   5.331   6.357   2.390  0.0984 -1.0586 -0.0579
 6471TIP3    H140828   5.404   6.405   2.429  0.1397 -0.3311 -1.0020
 6471TIP3    H240829   5.254   6.413   2.405  0.1454 -0.6876 -1.1522
 6472TIP3   OH240830   2.984   4.878   4.602 -0.0212  0.5485 -0.4136
 6472TIP3    H140831   3.010   4.787   4.586  0.5637  0.6742 -0.2164
 6472TIP3    H240832   2.891   4.874   4.620  0.1714 -0.1304  0.4917
 6473TIP3   OH240833   5.655   0.250  11.572  0.3015 -0.0464  0.2248
 6473TIP3    H140834   5.655   0.261  11.477  1.4042 -4.2983 -0.5091
 6473TIP3    H240835   5.586   0.186  11.588  2.6754 -2.5111  1.5794
 6474TIP3   OH240836   6.101   1.011   5.431  0.6132 -0.0413 -0.4748
 6474TIP3    H140837   6.111   0.918   5.449 -1.4756 -0.1169  0.6291
 6474TIP3    H240838   6.123   1.054   5.513 -2.5859  0.0715  0.4422
 6475TIP3   OH240839   3.369   0.333  13.771 -0.0246 -0.7668  0.3122
 6475TIP3    H140840   3.348   0.274  13.699 -3.2751  0.0115  0.4488
 6475TIP3    H240841   3.442   0.386  13.739 -0.9174 -0.9018 -2.1449
 6476TIP3   OH240842   6.070   0.304  14.781 -0.3173 -0.3728  0.0297
 6476TIP3    H140843   6.073   0.291  14.876 -1.5537  0.3932  0.2006
 6476TIP3    H240844   5.995   0.363  14.768  0.7755  0.7843 -1.2849
 6477TIP3   OH240845   3.337   4.845   3.020 -0.4355  0.1237 -0.1367
 6477TIP3    H140846   3.336   4.756   2.986  0.9249 -0.0519  0.1997
 6477TIP3    H240847   3.399   4.891   2.963 -0.6421  0.6795  0.0864
 6478TIP3   OH240848   6.043   6.255   4.604 -0.1310 -0.5523 -0.1665
 6478TIP3    H140849   6.085   6.297   4.529 -2.8419  1.7846 -0.5520
 6478TIP3    H240850   6.075   6.305   4.680 -1.5720  0.7611 -0.3886
 6479TIP3   OH240851   5.879   0.427  13.190 -0.3185  0.3534 -0.5517
 6479TIP3    H140852   5.936   0.352  13.174 -1.3723 -0.4809 -0.5521
 6479TIP3    H240853   5.887   0.480  13.111  1.2940  0.8345 -0.0908
 6480TIP3   OH240854   2.343   1.193   3.743 -0.1184  0.2237 -0.4759
 6480TIP3    H140855   2.322   1.101   3.758  0.8432 -0.0010 -0.4289
 6480TIP3    H240856   2.408   1.214   3.810  0.9671  0.4434 -1.5599
 6481TIP3   OH240857   2.600   1.649   3.305  0.1994  0.3340  0.0279
 6481TIP3    H140858   2.522   1.691   3.269 -2.6439 -3.4422  1.2370
 6481TIP3    H240859   2.637   1.599   3.232 -0.2722 -0.1956  0.1462
 6482TIP3   OH240860   0.445   5.307   3.881 -0.0730 -0.6268 -0.0606
 6482TIP3    H140861   0.531   5.320   3.920 -0.2233 -0.5001  0.2332
 6482TIP3    H240862   0.430   5.386   3.829 -1.1115  0.5927  1.9573
 6483TIP3   OH240863   5.256   6.080  13.270  0.8465 -0.0997  0.2303
 6483TIP3    H140864   5.219   6.168  13.265 -2.0250 -1.2111 -0.8658
 6483TIP3    H240865   5.197   6.027  13.215  2.6167 -2.6489  0.6136
 6484TIP3   OH240866   0.572   0.791   6.614  0.0548  0.2350  0.3621
 6484TIP3    H140867   0.651   0.754   6.575 -0.5685 -0.3046 -0.4305
 6484TIP3    H240868   0.503   0.727   6.594 -0.6655  0.9003  0.6465
 6485TIP3   OH240869   5.377   2.418   4.629  0.6189 -0.2311 -0.5108
 6485TIP3    H140870   5.354   2.386   4.542  0.5740 -2.8833  0.3976
 6485TIP3    H240871   5.367   2.513   4.623  1.9584 -0.1784 -3.7593
 6486TIP3   OH240872   0.481   1.289   2.361 -0.2754  0.5725  0.0136
 6486TIP3    H140873   0.486   1.377   2.322 -0.0704  0.0778 -1.1038
 6486TIP3    H240874   0.549   1.239   2.316  1.9223  0.6727  2.9535
 6487TIP3   OH240875   2.298   2.331   1.245 -0.0345  0.9362  0.5935
 6487TIP3    H140876   2.342   2.274   1.182 -0.3796  1.6898 -0.3465
 6487TIP3    H240877   2.220   2.362   1.200 -0.5747  1.0764  1.5905
 6488TIP3   OH240878   6.433   3.058   1.641 -0.2208 -0.7225 -0.0082
 6488TIP3    H140879   6.389   3.003   1.705  0.1169 -0.6923  0.2487
 6488TIP3    H240880   6.398   3.029   1.556 -2.1393  0.5245  0.2710
 6489TIP3   OH240881   4.385   1.117  13.175 -0.4450  0.1096  0.1905
 6489TIP3    H140882   4.349   1.090  13.091 -0.0775  0.5533 -0.1142
 6489TIP3    H240883   4.400   1.211  13.165  1.9212 -0.2347 -0.1336
 6490TIP3   OH240884   0.070   4.033  13.392  0.2788 -0.5708  0.1565
 6490TIP3    H140885   0.019   3.998  13.465 -2.4255 -1.4838 -1.9977
 6490TIP3    H240886   0.040   3.983  13.316  0.0438  2.9066 -2.2726
 6491TIP3   OH240887   5.637   2.175   4.734  0.2490 -0.0403 -0.3797
 6491TIP3    H140888   5.726   2.196   4.705  0.5792  1.4676  1.5022
 6491TIP3    H240889   5.637   2.080   4.744  1.2853 -0.1910 -1.4605
 6492TIP3   OH240890   4.500   1.983  13.912  0.2686  0.0358 -0.1495
 6492TIP3    H140891   4.418   1.972  13.864  1.9061  0.4895 -3.3614
 6492TIP3    H240892   4.548   1.901  13.896  2.3314  1.5460 -2.6778
 6493TIP3   OH240893   6.602   5.072  14.003  0.1817  0.2334  0.0100
 6493TIP3    H140894   6.690   5.062  14.039  0.3824  1.9961  0.1339
 6493TIP3    H240895   6.570   5.154  14.041 -1.8440 -0.7546  0.5770
 6494TIP3   OH240896   0.926   0.202   5.187 -0.2765 -0.2224 -0.1426
 6494TIP3    H140897   0.901   0.126   5.135 -0.0900  0.1465 -0.7822
 6494TIP3    H240898   1.002   0.238   5.142  1.3742 -1.2125  1.6439
 6495TIP3   OH240899   0.408   5.390  14.430 -0.2679  0.1568 -0.0274
 6495TIP3    H140900   0.432   5.474  14.469 -1.3815  1.1575 -1.3769
 6495TIP3    H240901   0.399   5.409  14.336 -1.9528 -1.1166 -0.1695
 6496TIP3   OH240902   3.575   6.716  13.932 -0.8778  0.1966  0.0630
 6496TIP3    H140903   3.582   6.812  13.939 -1.3229  0.2340  0.0260
 6496TIP3    H240904   3.499   6.694  13.985 -1.0695 -0.0864 -0.3321
 6497TIP3   OH240905   3.300   4.092   1.013  0.0028 -0.1787 -0.4148
 6497TIP3    H140906   3.313   4.013   0.960  0.6373 -0.0055 -0.5323
 6497TIP3    H240907   3.232   4.141   0.968 -0.4505 -0.6895 -0.2997
 6498TIP3   OH240908   5.006   0.185   6.160  1.0186 -0.3020 -0.3580
 6498TIP3    H140909   5.060   0.259   6.131 -1.1719  1.4160 -0.3700
 6498TIP3    H240910   4.954   0.221   6.232 -0.7716 -1.5197 -0.9693
 6499TIP3   OH240911   4.385   2.520  12.644  0.0357 -0.0886 -0.5740
 6499TIP3    H140912   4.315   2.515  12.710 -2.3719  0.1900 -2.9131
 6499TIP3    H240913   4.375   2.607  12.606 -0.1891 -1.0098 -2.7856
 6500TIP3   OH240914   2.880   3.190  16.406 -0.2061  0.8269 -0.2114
 6500TIP3    H140915   2.951   3.213  16.347 -0.6348 -1.8937 -1.9507
 6500TIP3    H240916   2.805   3.241  16.375  0.0932  0.9706 -0.7063
 6501TIP3   OH240917   2.559   6.434   2.167 -0.1474  0.4203 -0.3425
 6501TIP3    H140918   2.497   6.461   2.099  1.0262 -0.0969 -1.6800
 6501TIP3    H240919   2.544   6.495   2.239 -1.0298  1.3849 -1.3064
 6502TIP3   OH240920   6.640   3.295   6.067  0.3202 -0.1618 -0.4326
 6502TIP3    H140921   6.641   3.293   6.163  0.6392  0.7634 -0.4025
 6502TIP3    H240922   6.657   3.387   6.045 -1.2181 -0.0624 -1.3627
 6503TIP3   OH240923   0.862   3.719  13.110 -0.0424  0.3074 -0.3925
 6503TIP3    H140924   0.871   3.705  13.016 -0.3927  3.9452 -1.1088
 6503TIP3    H240925   0.767   3.728  13.124  0.1012  1.2510  0.0290
 6504TIP3   OH240926   2.048   1.691   1.947 -0.4016 -0.1362  0.7456
 6504TIP3    H140927   2.070   1.598   1.945  0.8671  0.1578 -0.0180
 6504TIP3    H240928   2.087   1.723   2.029  3.5517  0.6681 -1.2210
 6505TIP3   OH240929   2.293   1.332  11.406  0.2856 -0.0356 -0.6405
 6505TIP3    H140930   2.363   1.327  11.471  1.5289 -0.8268 -1.9888
 6505TIP3    H240931   2.318   1.268  11.339 -2.0983 -0.8747 -0.8220
 6506TIP3   OH240932   4.035   5.940   3.234 -0.0069 -0.3402 -0.0629
 6506TIP3    H140933   4.009   6.029   3.213 -0.1812 -0.5369 -0.6899
 6506TIP3    H240934   4.120   5.929   3.192 -0.8100 -1.0631 -1.5695
 6507TIP3   OH240935   2.359   6.119  13.316  0.1923 -0.2196 -0.0275
 6507TIP3    H140936   2.392   6.154  13.233 -0.4232 -2.0545 -1.1017
 6507TIP3    H240937   2.353   6.196  13.373 -0.0634  1.2276 -1.8965
 6508TIP3   OH240938   5.204   5.231   3.947 -0.2993 -0.0321  0.8018
 6508TIP3    H140939   5.114   5.247   3.919  0.7238  2.1593 -1.6759
 6508TIP3    H240940   5.215   5.285   4.025 -1.9162 -2.7827  3.1268
 6509TIP3   OH240941   1.188   3.029  10.951  1.0875 -0.4827  0.1695
 6509TIP3    H140942   1.240   3.090  10.897  1.1603 -0.6148  0.0903
 6509TIP3    H240943   1.149   3.085  11.018  1.4604 -0.4018  0.3268
 6510TIP3   OH240944   3.775   1.166   5.584 -0.1131  0.3981  0.2226
 6510TIP3    H140945   3.696   1.112   5.575  1.2010 -1.3532 -1.7509
 6510TIP3    H240946   3.790   1.202   5.496  1.9624 -0.3800  0.1960
 6511TIP3   OH240947   6.057   2.050   3.250  0.4739 -0.6196 -0.9758
 6511TIP3    H140948   6.006   2.037   3.330  2.3717  0.5731  0.4954
 6511TIP3    H240949   6.004   2.008   3.182 -0.1875 -3.6817  1.1800
 6512TIP3   OH240950   6.569   5.338   1.177 -0.1735 -0.0615  0.4837
 6512TIP3    H140951   6.617   5.419   1.191 -0.4800  0.3604 -0.7529
 6512TIP3    H240952   6.477   5.361   1.190 -0.2699 -0.1816  0.0361
 6513TIP3   OH240953   4.355   0.809  16.013  0.2467  0.0139  0.3482
 6513TIP3    H140954   4.362   0.817  15.918 -0.2022  1.1672  0.4015
 6513TIP3    H240955   4.335   0.716  16.028 -1.4133  0.1400 -0.7975
 6514TIP3   OH240956   5.564   6.130   5.107  0.2655 -0.2031 -0.1812
 6514TIP3    H140957   5.516   6.192   5.053  1.0398 -0.8383 -1.6441
 6514TIP3    H240958   5.500   6.063   5.131 -0.4666  0.8940  1.0468
 6515TIP3   OH240959   1.179   0.336   1.604  0.3080  0.0838  0.7565
 6515TIP3    H140960   1.119   0.290   1.546  0.3005 -0.8808  1.5004
 6515TIP3    H240961   1.203   0.271   1.671  0.7379  0.9938  1.5214
 6516TIP3   OH240962   6.618   1.056  14.735 -0.6057 -0.0277  0.2062
 6516TIP3    H140963   6.564   1.135  14.730 -0.3714  0.0759 -0.8686
 6516TIP3    H240964   6.561   0.986  14.702 -1.0446 -0.4633  1.7721
 6517TIP3   OH240965   4.452   3.601  16.150 -0.2676 -0.4339  0.0591
 6517TIP3    H140966   4.499   3.680  16.124 -0.2542  0.4276  2.4653
 6517TIP3    H240967   4.472   3.591  16.243 -1.6613 -2.3189  0.2130
 6518TIP3   OH240968   4.158   5.933   4.543  0.1152  0.4049  0.0195
 6518TIP3    H140969   4.082   5.875   4.556 -0.1154  1.0458  1.7483
 6518TIP3    H240970   4.187   5.954   4.631  1.4508  1.3198 -0.6124
 6519TIP3   OH240971   2.856   5.996  13.621 -0.1535  0.8090 -0.3242
 6519TIP3    H140972   2.948   6.003  13.594 -0.1908  0.3060 -0.5993
 6519TIP3    H240973   2.807   5.996  13.539 -0.5609  2.9784 -0.1343
 6520TIP3   OH240974   5.596   2.459   4.310 -0.0647 -0.1702  0.7839
 6520TIP3    H140975   5.683   2.488   4.283 -0.6696  1.9095  0.9149
 6520TIP3    H240976   5.613   2.393   4.377  1.4563  1.4966  2.1378
 6521TIP3   OH240977   4.237   5.903  14.292  0.2748 -0.2509 -0.0066
 6521TIP3    H140978   4.330   5.914  14.315  0.2566 -1.9085  0.9986
 6521TIP3    H240979   4.190   5.946  14.364  0.2664 -2.9843  1.7798
 6522TIP3   OH240980   6.069   1.677  16.970 -0.3357 -0.6381 -0.1315
 6522TIP3    H140981   6.152   1.708  17.006 -0.1909 -0.2628 -0.7665
 6522TIP3    H240982   6.011   1.754  16.972 -0.3060 -0.5925 -0.7369
 6523TIP3   OH240983   3.197   2.635   4.047 -0.0903 -0.2698 -0.1384
 6523TIP3    H140984   3.214   2.640   4.141 -0.3330  0.9914 -0.1431
 6523TIP3    H240985   3.271   2.682   4.007  0.7819 -2.0313 -0.6893
 6524TIP3   OH240986   2.919   2.242   4.430 -0.2909  0.2489 -0.3011
 6524TIP3    H140987   2.825   2.227   4.417 -0.4754  0.7385  0.4230
 6524TIP3    H240988   2.961   2.195   4.357 -1.1173  0.3624 -0.8670
 6525TIP3   OH240989   0.033   2.502  16.494 -0.9100  0.1706  0.0395
 6525TIP3    H140990  -0.039   2.514  16.432 -0.2133 -1.9553 -1.2703
 6525TIP3    H240991   0.091   2.576  16.478 -0.8550 -0.2105 -1.7507
 6526TIP3   OH240992   2.301   0.039  15.951 -0.0259  0.1442  0.1918
 6526TIP3    H140993   2.277   0.126  15.919 -0.5792 -0.5085 -1.2385
 6526TIP3    H240994   2.218  -0.009  15.955  0.0130  0.1420  2.6008
 6527TIP3   OH240995   0.332   6.323   2.598 -0.2714  0.0342 -0.4952
 6527TIP3    H140996   0.264   6.270   2.638 -1.7756  1.3525 -1.2254
 6527TIP3    H240997   0.381   6.261   2.543  1.0228 -1.5356  2.2010
 6528TIP3   OH240998   5.698   0.335   4.003 -0.5772 -0.2543 -0.3121
 6528TIP3    H140999   5.749   0.323   3.923  0.1176  0.7577 -0.0478
 6528TIP3    H241000   5.724   0.263   4.059 -2.1139 -1.8046 -1.4773
 6529TIP3   OH241001   2.513   2.485   3.867  0.5264  0.1093  0.3749
 6529TIP3    H141002   2.603   2.511   3.886  0.4465  0.9096 -0.3148
 6529TIP3    H241003   2.460   2.559   3.898  0.3322  1.0854 -2.0784
 6530TIP3   OH241004   4.970   0.181   4.651 -0.1079 -0.2189 -0.4898
 6530TIP3    H141005   4.989   0.139   4.567  1.9704  3.1843 -1.9447
 6530TIP3    H241006   5.044   0.157   4.707 -1.0336 -1.7305  0.1657
 6531TIP3   OH241007   0.962   0.220  14.242 -0.1279 -0.1536 -0.0081
 6531TIP3    H141008   0.961   0.155  14.172 -1.2756 -0.8922  0.6576
 6531TIP3    H241009   0.881   0.270  14.228 -0.6208 -0.6306  1.0708
 6532TIP3   OH241010   2.707   3.478  13.918 -0.8686 -0.7272 -0.4637
 6532TIP3    H141011   2.648   3.428  13.974 -1.9781  2.1634  1.1929
 6532TIP3    H241012   2.762   3.528  13.980 -0.8131  1.1361 -1.9118
 6533TIP3   OH241013   0.408   5.772   3.876 -0.1076  0.0469 -0.1777
 6533TIP3    H141014   0.353   5.699   3.847 -0.2024 -0.9710  2.3023
 6533TIP3    H241015   0.350   5.848   3.878 -1.0944 -0.7103  1.0645
 6534TIP3   OH241016   5.821   4.097  14.414  0.4274 -0.4827  0.0555
 6534TIP3    H141017   5.790   4.173  14.365 -0.4567 -0.4753  0.6051
 6534TIP3    H241018   5.858   4.039  14.348 -1.8735 -1.0449 -0.8144
 6535TIP3   OH241019   0.319   0.211   1.951 -0.1889 -0.1682 -0.0329
 6535TIP3    H141020   0.368   0.293   1.943  0.5769 -0.7040 -0.9190
 6535TIP3    H241021   0.239   0.236   1.998  0.8275  0.7454  1.2675
 6536TIP3   OH241022   0.597   6.382   6.240 -0.4639  0.5844 -0.1488
 6536TIP3    H141023   0.619   6.410   6.329 -0.2119 -0.5498  0.1610
 6536TIP3    H241024   0.671   6.328   6.212 -0.1588  1.5664 -1.3745
 6537TIP3   OH241025   0.935   0.570   1.102 -0.3937  0.2366 -0.2069
 6537TIP3    H141026   0.981   0.611   1.028  0.0017  0.4357  0.1460
 6537TIP3    H241027   0.851   0.615   1.105 -0.4397  0.1820 -0.5774
 6538TIP3   OH241028   5.785   0.228  12.703  0.4251  0.3388 -0.3631
 6538TIP3    H141029   5.798   0.294  12.634  2.0465  1.0703  0.5841
 6538TIP3    H241030   5.831   0.151  12.671 -0.3543  0.0682 -0.8766
 6539TIP3   OH241031   6.190   0.282   3.260 -0.0871  0.5818 -0.0908
 6539TIP3    H141032   6.103   0.312   3.234  0.1195  1.1682 -0.1032
 6539TIP3    H241033   6.190   0.287   3.355 -0.5059 -0.6486 -0.0024
 6540TIP3   OH241034   0.330   3.405  12.443  0.2646  0.2397  0.2475
 6540TIP3    H141035   0.367   3.339  12.501 -1.0449 -0.2987  0.5094
 6540TIP3    H241036   0.237   3.407  12.465 -0.2095  0.2727 -1.5811
 6541TIP3   OH241037   0.843   3.125  10.949  1.0902 -0.6939 -0.2599
 6541TIP3    H141038   0.896   3.096  10.875  2.4916 -1.7688  1.0842
 6541TIP3    H241039   0.904   3.176  11.003 -0.0236  0.4694 -0.0461
 6542TIP3   OH241040   3.891   0.763  12.200 -0.5751  0.4558 -0.6798
 6542TIP3    H141041   3.899   0.737  12.292  0.5168  3.0400  0.0470
 6542TIP3    H241042   3.867   0.683  12.154 -0.0940 -1.1456  1.6980
 6543TIP3   OH241043   5.884   2.613  13.462  0.6202 -0.2153 -0.0303
 6543TIP3    H141044   5.860   2.646  13.548 -1.3850  1.6404 -1.2043
 6543TIP3    H241045   5.826   2.538  13.448  1.2962 -0.8382  0.3768
 6544TIP3   OH241046   1.662   4.945   1.362 -0.3980  0.0893  0.0664
 6544TIP3    H141047   1.694   4.931   1.273  0.0328 -1.8823  0.4827
 6544TIP3    H241048   1.728   5.002   1.402 -0.5198  0.8724 -0.8139
 6545TIP3   OH241049   1.727   4.270   0.062  0.2086  0.6199 -0.0719
 6545TIP3    H141050   1.644   4.254   0.017 -0.0965 -0.0690  0.7218
 6545TIP3    H241051   1.755   4.356   0.030 -0.8864  0.9307 -0.2330
 6546TIP3   OH241052   0.558   4.185   0.614  0.1335  0.5802  0.7839
 6546TIP3    H141053   0.578   4.261   0.669 -0.9858  1.6337 -0.2086
 6546TIP3    H241054   0.481   4.145   0.655 -1.8683  2.4501 -0.9482
 6547TIP3   OH241055   1.368   2.343   5.089 -0.3195  0.7283 -0.0261
 6547TIP3    H141056   1.396   2.281   5.156  0.5873  0.9095 -0.2106
 6547TIP3    H241057   1.273   2.342   5.092 -0.2934  0.2793  0.8418
 6548TIP3   OH241058   0.475   2.815  12.912  1.0257 -0.2486 -0.1455
 6548TIP3    H141059   0.554   2.851  12.872  0.7962 -1.8117 -2.1680
 6548TIP3    H241060   0.493   2.722  12.920 -0.8194 -0.7472 -1.2524
 6549TIP3   OH241061   0.603   3.533  16.083  0.8152  0.0460 -0.0509
 6549TIP3    H141062   0.548   3.479  16.140 -0.1037 -0.9413 -1.7962
 6549TIP3    H241063   0.541   3.579  16.026  1.7137  0.9659 -0.3280
 6550TIP3   OH241064   2.019   1.183   4.717 -0.0146 -0.1668  0.0602
 6550TIP3    H141065   1.944   1.240   4.704  0.7671  1.2316  1.3879
 6550TIP3    H241066   1.982   1.098   4.742 -1.1629  0.0820 -0.7529
 6551TIP3   OH241067   5.648   4.789   0.019  0.2346  0.2446  0.3004
 6551TIP3    H141068   5.635   4.829  -0.066  0.0005 -0.3427  0.0562
 6551TIP3    H241069   5.624   4.697   0.007  1.1372 -0.0700  0.7423
 6552TIP3   OH241070   2.912   5.115   5.659  0.1261 -0.0776  0.4019
 6552TIP3    H141071   2.982   5.101   5.723  0.3312 -0.4341  0.1071
 6552TIP3    H241072   2.940   5.193   5.610  1.1660 -1.1894 -0.8195
 6553TIP3   OH241073   2.335   6.452  16.338  0.0142  0.8342 -0.1924
 6553TIP3    H141074   2.357   6.543  16.316 -0.2123  1.1498  0.8499
 6553TIP3    H241075   2.343   6.448  16.433  1.0262 -0.5082 -0.3085
 6554TIP3   OH241076   2.051   6.719   3.277  0.2322 -0.4463 -0.6519
 6554TIP3    H141077   2.060   6.717   3.372  0.1260 -0.4783 -0.6424
 6554TIP3    H241078   1.962   6.749   3.262  0.0407 -1.0477 -0.7340
 6555TIP3   OH241079   4.572   6.180   1.265 -0.3761  0.0095 -0.2018
 6555TIP3    H141080   4.564   6.172   1.360 -1.6278  0.5954 -0.2305
 6555TIP3    H241081   4.637   6.250   1.252 -0.6121  0.3153  0.2414
 6556TIP3   OH241082   5.936   1.001  17.224 -0.5490 -0.0005  0.3605
 6556TIP3    H141083   5.889   0.924  17.193 -1.0631 -0.7588  2.8100
 6556TIP3    H241084   5.959   0.980  17.314 -1.0178  2.8531  1.2402
 6557TIP3   OH241085   2.008   5.232   0.924 -0.5592 -0.3373 -0.0426
 6557TIP3    H141086   2.009   5.185   0.841  0.7828 -2.7841  1.2238
 6557TIP3    H241087   1.936   5.191   0.973 -0.3199 -0.0331  0.5729
 6558TIP3   OH241088   6.454   0.840   5.703  0.4145  0.1284 -0.4047
 6558TIP3    H141089   6.493   0.924   5.680 -0.7453  0.7286 -0.2678
 6558TIP3    H241090   6.383   0.862   5.764  0.0778 -0.9506 -0.3783
 6559TIP3   OH241091   5.317   4.883   1.626  0.7545  0.4718 -0.6238
 6559TIP3    H141092   5.351   4.883   1.716  2.6978  0.1603 -1.2931
 6559TIP3    H241093   5.230   4.921   1.633 -0.2065 -1.8679  1.7465
 6560TIP3   OH241094   4.621   6.717  16.919 -0.0776 -0.4186 -0.3648
 6560TIP3    H141095   4.602   6.674  17.002  0.8605  0.4886  0.3383
 6560TIP3    H241096   4.537   6.754  16.891 -0.3675 -0.6246  0.2263
 6561TIP3   OH241097   1.545   6.439  12.259  0.8220 -0.9217  0.2363
 6561TIP3    H141098   1.573   6.497  12.188  1.5620 -0.1903  1.1028
 6561TIP3    H241099   1.451   6.455  12.268  0.9148 -0.2673  0.0961
 6562TIP3   OH241100   3.974   2.130   4.678  0.2855  0.1642  0.2476
 6562TIP3    H141101   3.985   2.137   4.773  1.2162  1.5953  0.0781
 6562TIP3    H241102   3.997   2.217   4.646 -0.1531 -0.2627 -1.2870
 6563TIP3   OH241103   0.966   2.380   3.872  0.5805 -0.1752 -0.9329
 6563TIP3    H141104   0.993   2.460   3.919 -0.4361 -1.1295  1.4172
 6563TIP3    H241105   1.000   2.308   3.925 -2.4243 -1.3468 -0.4252
 6564TIP3   OH241106   3.149   3.599   1.345  0.3630 -0.5629 -0.5131
 6564TIP3    H141107   3.093   3.625   1.272  0.3905  0.1390 -0.2922
 6564TIP3    H241108   3.121   3.511   1.367  0.4688 -0.8487 -1.4833
 6565TIP3   OH241109   5.125   3.819  12.158  0.3735  0.1742  0.1802
 6565TIP3    H141110   5.197   3.820  12.094  0.3417  0.3328  0.1450
 6565TIP3    H241111   5.167   3.797  12.241  0.1391 -1.9964 -0.2145
 6566TIP3   OH241112   0.717   5.329   4.641 -0.4930  0.6002 -0.4035
 6566TIP3    H141113   0.702   5.247   4.689 -0.3484  1.2351  0.7484
 6566TIP3    H241114   0.694   5.307   4.550 -1.1496 -0.5169  0.0038
 6567TIP3   OH241115   1.162   0.266   5.071 -0.4478  0.6195  0.6261
 6567TIP3    H141116   1.202   0.226   5.149  0.8052  0.2922 -0.1569
 6567TIP3    H241117   1.126   0.191   5.023 -0.1727  0.6936  0.3077
 6568TIP3   OH241118   4.959   5.811   4.970  0.1426  0.4172 -0.1458
 6568TIP3    H141119   5.052   5.816   4.949  0.5558  0.7698  1.5625
 6568TIP3    H241120   4.926   5.901   4.960 -0.0616  0.2661 -0.8882
 6569TIP3   OH241121   4.059   2.628   2.237 -0.2629 -0.5302  0.0388
 6569TIP3    H141122   4.059   2.533   2.254  0.5269 -0.6445 -0.4806
 6569TIP3    H241123   4.091   2.667   2.318 -1.0615 -0.6650  0.4240
 6570TIP3   OH241124   5.310   2.098   2.220  0.4925  0.2275  0.7654
 6570TIP3    H141125   5.384   2.144   2.180  0.9484 -0.5685  0.6703
 6570TIP3    H241126   5.308   2.013   2.176 -2.3080  1.2526 -1.3427
 6571TIP3   OH241127   0.180   3.214   2.881  0.1304  0.0854  0.5954
 6571TIP3    H141128   0.164   3.224   2.787  0.2813 -0.2649  0.5320
 6571TIP3    H241129   0.275   3.198   2.888 -0.2958 -3.1812  0.5137
 6572TIP3   OH241130   0.701   2.477   3.769 -0.2852  0.7216 -0.4534
 6572TIP3    H141131   0.639   2.422   3.721 -1.2793  0.0136  1.4884
 6572TIP3    H241132   0.764   2.415   3.806  1.0134  1.3368 -1.5415
 6573TIP3   OH241133   5.274   3.943   1.582  0.2591  0.6470  0.5640
 6573TIP3    H141134   5.225   3.997   1.520 -0.8924 -1.5874 -0.5791
 6573TIP3    H241135   5.352   3.915   1.534 -1.2072 -2.0493 -0.4175
 6574TIP3   OH241136   4.661   1.856  12.082 -0.4179  0.1077 -0.8620
 6574TIP3    H141137   4.639   1.792  12.150  0.7672  1.7662  1.2001
 6574TIP3    H241138   4.589   1.849  12.019 -2.0360 -0.9339  0.9692
 6575TIP3   OH241139   5.600   2.821  16.855  0.4424  0.6414  0.4302
 6575TIP3    H141140   5.540   2.802  16.927  1.1734  1.0197  1.1535
 6575TIP3    H241141   5.569   2.904  16.819 -0.3294  0.1197 -0.1410
 6576TIP3   OH241142   5.721   2.990  10.933 -0.0519  0.2409 -0.5883
 6576TIP3    H141143   5.703   2.986  10.839 -2.0659  0.1756 -0.2482
 6576TIP3    H241144   5.765   3.074  10.945 -2.1750  1.5479 -1.2969
 6577TIP3   OH241145   4.377   6.302  16.672  0.2277  0.5054 -0.4609
 6577TIP3    H141146   4.323   6.236  16.717 -2.2812  1.9220 -1.1947
 6577TIP3    H241147   4.372   6.379  16.729  0.2564  1.1026 -1.2537
 6578TIP3   OH241148   2.979   3.159   4.280  0.3965 -0.3257  0.1647
 6578TIP3    H141149   3.059   3.163   4.332 -0.8862 -1.2191  2.3692
 6578TIP3    H241150   2.919   3.221   4.323 -1.4394 -2.6724  1.2276
 6579TIP3   OH241151   3.977   1.629   2.471  0.5336 -0.5194  0.0830
 6579TIP3    H141152   3.988   1.544   2.427  0.7842 -1.1061  1.2348
 6579TIP3    H241153   4.065   1.653   2.499  0.8850  1.3377 -2.3125
 6580TIP3   OH241154   0.181   0.873   3.916  0.5862  0.1410  0.0001
 6580TIP3    H141155   0.266   0.838   3.941 -0.1279 -1.4822  0.2716
 6580TIP3    H241156   0.200   0.934   3.844  2.0007  0.1125  0.3341
 6581TIP3   OH241157   2.767   3.646   3.393  0.0600  0.4209 -0.3188
 6581TIP3    H141158   2.810   3.729   3.372 -0.8183  0.8805 -0.3273
 6581TIP3    H241159   2.700   3.635   3.326 -1.0593  0.6333  0.7180
 6582TIP3   OH241160   6.617   5.634   0.938 -0.4952 -0.0623 -0.4310
 6582TIP3    H141161   6.599   5.636   1.032  3.0623  0.0851  0.3809
 6582TIP3    H241162   6.558   5.566   0.904 -2.8663  0.8537  1.5935
 6583TIP3   OH241163   6.343   5.391   0.595  0.1605 -0.0978  0.4721
 6583TIP3    H141164   6.344   5.422   0.686  1.7413 -1.2084  0.8928
 6583TIP3    H241165   6.267   5.333   0.590 -0.8263  1.1406  0.6233
 6584TIP3   OH241166   1.437   2.207  16.862 -0.1619 -0.1261  0.3679
 6584TIP3    H141167   1.503   2.241  16.802 -1.4872  0.1915 -0.9657
 6584TIP3    H241168   1.461   2.244  16.947  1.2061  0.1899 -0.1332
 6585TIP3   OH241169   6.087   3.494   4.100 -0.5643  0.0121  0.1799
 6585TIP3    H141170   6.144   3.497   4.176  0.1953  0.6846 -0.3940
 6585TIP3    H241171   6.143   3.521   4.027 -1.3629 -0.2787 -0.5597
 6586TIP3   OH241172   0.937   1.318  15.466  0.0788  0.3784  0.8445
 6586TIP3    H141173   0.980   1.251  15.413  1.2688  0.1144  2.0927
 6586TIP3    H241174   0.885   1.369  15.403 -0.4951 -1.4100 -0.1995
 6587TIP3   OH241175   4.331   2.236   3.836 -0.3026 -0.2503  0.3409
 6587TIP3    H141176   4.273   2.311   3.847 -0.5378  0.1776 -2.9307
 6587TIP3    H241177   4.419   2.272   3.847 -0.4928 -0.2535  2.1377
 6588TIP3   OH241178   4.692   0.058   3.216  0.5633  0.1167 -0.1195
 6588TIP3    H141179   4.690  -0.020   3.271  1.6209 -1.1127 -1.7361
 6588TIP3    H241180   4.782   0.062   3.184  0.4376  1.8331 -0.3421
 6589TIP3   OH241181   3.197   4.778   5.779  0.7838  0.0928  0.3647
 6589TIP3    H141182   3.184   4.700   5.725  1.7874  0.5633 -0.5914
 6589TIP3    H241183   3.288   4.803   5.765  0.7028  0.9942  1.2688
 6590TIP3   OH241184   2.281   5.375  11.082  0.0760  0.3276  0.2334
 6590TIP3    H141185   2.218   5.443  11.058  0.7844  0.9977  0.2379
 6590TIP3    H241186   2.339   5.418  11.144  1.2765  0.1014 -0.6940
 6591TIP3   OH241187   3.124   5.381  15.031  0.1112 -0.1782  0.1352
 6591TIP3    H141188   3.037   5.352  15.058 -0.6428  1.9575  0.2002
 6591TIP3    H241189   3.167   5.409  15.112  0.9297 -1.3217  0.1204
 6592TIP3   OH241190   3.863   6.017   6.461 -0.6250  0.1104 -0.1874
 6592TIP3    H141191   3.924   6.062   6.402 -1.6639  2.4883  0.4006
 6592TIP3    H241192   3.777   6.032   6.422 -1.1792  0.4063  1.0904
 6593TIP3   OH241193   0.775   6.455  16.698  0.0244  0.1896 -0.8393
 6593TIP3    H141194   0.810   6.433  16.784  0.1701 -0.7484 -1.1295
 6593TIP3    H241195   0.703   6.516  16.717 -0.0939 -0.1831 -0.0383
 6594TIP3   OH241196   5.336   1.570  10.480  0.3874  0.2715  0.5125
 6594TIP3    H141197   5.261   1.621  10.448 -1.0952 -0.7722  2.1759
 6594TIP3    H241198   5.408   1.594  10.421 -1.4967  0.4949 -1.8524
 6595TIP3   OH241199   4.214   3.890   4.425 -0.1556 -0.4666  0.2517
 6595TIP3    H141200   4.142   3.848   4.471  1.0446 -0.9989  1.7392
 6595TIP3    H241201   4.175   3.968   4.386 -2.0087 -1.9291 -0.9710
 6596TIP3   OH241202   3.951   0.725   2.380 -0.4512  0.1851  0.1733
 6596TIP3    H141203   3.898   0.801   2.405  0.3398  0.5168  0.9066
 6596TIP3    H241204   3.930   0.659   2.446 -1.7696 -0.5562 -0.9441
 6597TIP3   OH241205   1.403   5.248  12.078  0.1462  0.5455  0.1236
 6597TIP3    H141206   1.361   5.168  12.045  2.7293 -0.4852 -0.8965
 6597TIP3    H241207   1.496   5.228  12.078  0.8844  3.5112  0.0384
 6598TIP3   OH241208   0.833   5.963   3.476 -0.2004  0.1414  0.0184
 6598TIP3    H141209   0.881   5.915   3.543 -0.5052  0.3873  0.4138
 6598TIP3    H241210   0.898   6.023   3.438 -0.1295  0.2901  0.3734
 6599TIP3   OH241211   3.688   4.087  11.202 -0.2648  0.6041  0.0642
 6599TIP3    H141212   3.688   4.137  11.120  0.3722  1.6277  0.6708
 6599TIP3    H241213   3.780   4.079  11.226 -0.2631 -1.6225 -0.4278
 6600TIP3   OH241214   2.297   0.357  17.427 -0.2354  0.1978  0.6347
 6600TIP3    H141215   2.289   0.265  17.402  0.0666  0.1020  0.8883
 6600TIP3    H241216   2.348   0.356  17.508 -0.8266  0.5319  1.0285
 6601TIP3   OH241217   3.203   5.522   2.980  0.1458 -0.6745  0.2683
 6601TIP3    H141218   3.169   5.611   2.990  0.5482 -0.5569  0.6253
 6601TIP3    H241219   3.294   5.533   2.953  0.4104 -0.9648  1.0115
 6602TIP3   OH241220   3.885   5.555   6.676 -0.4067  0.7400  0.2521
 6602TIP3    H141221   3.974   5.585   6.697  0.0711  0.2056 -0.9427
 6602TIP3    H241222   3.829   5.609   6.731  0.6062  1.7384  0.3532
 6603TIP3   OH241223   1.207   4.027  14.757 -0.2613  0.2360  0.3035
 6603TIP3    H141224   1.126   3.999  14.714 -0.9720  0.3865  1.5108
 6603TIP3    H241225   1.215   4.120  14.734  0.6451 -0.2370 -1.4440
 6604TIP3   OH241226   2.500   2.783   0.800  0.5676  0.1023 -0.6213
 6604TIP3    H141227   2.544   2.737   0.871  0.4841 -0.8078 -1.1482
 6604TIP3    H241228   2.565   2.847   0.769  0.3551  0.9936  0.7196
 6605TIP3   OH241229   2.124   5.558   1.955  0.3783  0.4065 -0.5791
 6605TIP3    H141230   2.149   5.597   1.871 -0.3170  0.2203 -0.8819
 6605TIP3    H241231   2.187   5.594   2.018  0.1063  1.5634 -0.9467
 6606TIP3   OH241232   5.947   0.008  14.114  0.2538 -0.2959  0.2488
 6606TIP3    H141233   6.024   0.046  14.072  2.0906 -2.7677  1.1558
 6606TIP3    H241234   5.956   0.030  14.207 -0.0808 -0.6735  0.3758
 6607TIP3   OH241235   1.410   6.011   3.869  0.2953 -0.0576  0.5612
 6607TIP3    H141236   1.489   5.957   3.876  1.0704  1.0645  0.7286
 6607TIP3    H241237   1.436   6.085   3.814  0.0496  1.4982  2.4183
 6608TIP3   OH241238   4.371   1.282  10.939 -0.0409 -0.0467  0.2732
 6608TIP3    H141239   4.385   1.230  10.859 -0.2441 -0.5903  0.5830
 6608TIP3    H241240   4.459   1.291  10.976  0.0061 -0.1107  0.1808
 6609TIP3   OH241241   1.526   0.250   1.081  0.5577  0.2593  0.4662
 6609TIP3    H141242   1.575   0.332   1.093  1.4640 -0.2918  0.6876
 6609TIP3    H241243   1.568   0.189   1.142 -0.5217 -0.1941  0.7632
 6610TIP3   OH241244   6.044   3.785  13.576 -0.1203  0.0532  0.4867
 6610TIP3    H141245   6.099   3.828  13.640  0.8807 -0.8155  0.2430
 6610TIP3    H241246   6.103   3.763  13.504 -0.5649 -1.7432  0.6215
 6611TIP3   OH241247   1.605   1.883   1.618 -0.2780  0.0719  0.1482
 6611TIP3    H141248   1.651   1.932   1.549  0.6423 -2.0610 -0.8513
 6611TIP3    H241249   1.672   1.863   1.682 -0.0494 -1.9090 -0.6551
 6612TIP3   OH241250   2.392   3.592   3.754 -0.0020  0.0267  0.2405
 6612TIP3    H141251   2.296   3.592   3.753 -0.0112 -1.1110  0.3832
 6612TIP3    H241252   2.417   3.517   3.701  0.7768 -0.6716  1.5535
 6613TIP3   OH241253   3.623   1.525   5.264 -0.0028 -0.1832 -0.4037
 6613TIP3    H141254   3.702   1.572   5.238  1.2376 -1.9805 -0.0600
 6613TIP3    H241255   3.563   1.593   5.293  1.9404  1.1664  0.6779
 6614TIP3   OH241256   6.592   6.716  14.023 -0.5726 -0.2662  0.1026
 6614TIP3    H141257   6.686   6.728  14.029 -0.4655 -0.3221 -1.1225
 6614TIP3    H241258   6.559   6.800  13.991 -0.8013 -0.5525 -0.4492
 6615TIP3   OH241259   0.835   5.946  12.802  0.0193  0.3021 -0.3595
 6615TIP3    H141260   0.748   5.959  12.841 -0.3501  0.4399 -1.1898
 6615TIP3    H241261   0.826   5.982  12.713  0.7111 -0.3379 -0.7013
 6616TIP3   OH241262   2.873   5.617   5.916 -0.2102 -0.1393 -0.1212
 6616TIP3    H141263   2.782   5.612   5.886 -0.7158 -0.3714  1.3230
 6616TIP3    H241264   2.926   5.606   5.837 -1.4137  2.2231 -1.3639
 6617TIP3   OH241265   2.262   4.794  11.874  0.2676  0.3097 -0.0478
 6617TIP3    H141266   2.248   4.791  11.969  0.7600 -0.2144  0.0161
 6617TIP3    H241267   2.184   4.837  11.839  1.3873  3.3603  0.8601
 6618TIP3   OH241268   1.883   3.848   2.323 -0.5636  0.0523  0.0365
 6618TIP3    H141269   1.915   3.767   2.364  1.6351  0.2490 -1.1576
 6618TIP3    H241270   1.848   3.820   2.239  1.0918  0.4066 -0.8031
 6619TIP3   OH241271   1.778   2.740   3.561 -0.2783  0.2701 -0.0971
 6619TIP3    H141272   1.732   2.752   3.645 -1.2732 -0.8638 -0.4515
 6619TIP3    H241273   1.738   2.804   3.503 -1.2054 -0.4564 -0.2987
 6620TIP3   OH241274   2.605   6.538   0.076  0.3029 -0.0715 -0.1132
 6620TIP3    H141275   2.575   6.500  -0.007 -0.5710  2.0285 -0.8314
 6620TIP3    H241276   2.694   6.505   0.087  0.3190 -0.6667 -1.7259
 6621TIP3   OH241277   3.458   3.414   6.306 -0.1555  0.4936 -0.3375
 6621TIP3    H141278   3.427   3.490   6.257 -0.8021  1.1768  1.0820
 6621TIP3    H241279   3.401   3.410   6.383 -0.5000 -1.7528 -0.6374
 6622TIP3   OH241280   1.145   6.602   1.533 -0.2073 -0.1074  0.3503
 6622TIP3    H141281   1.149   6.688   1.492  0.7809 -0.1315  0.3743
 6622TIP3    H241282   1.141   6.620   1.627  1.6988 -0.0739  0.4649
 6623TIP3   OH241283   2.836   0.531  17.191  0.5662  0.1706  0.7414
 6623TIP3    H141284   2.804   0.511  17.102  0.9451  0.9706  0.4251
 6623TIP3    H241285   2.794   0.465  17.246 -2.3965  1.6729  0.4834
 6624TIP3   OH241286   0.797   2.128  12.902  0.1375 -0.4174  0.3741
 6624TIP3    H141287   0.858   2.078  12.956 -0.5842 -1.0269  0.6627
 6624TIP3    H241288   0.757   2.063  12.844 -0.9865 -0.2410  0.9098
 6625TIP3   OH241289   1.815   2.334   5.231 -0.2812  0.0370  0.5058
 6625TIP3    H141290   1.730   2.346   5.189  0.2297  1.4459 -0.2006
 6625TIP3    H241291   1.869   2.291   5.165 -0.2544 -0.2928  0.7358
 6626TIP3   OH241292   0.657   1.523   3.237  0.1492  0.5678  0.2079
 6626TIP3    H141293   0.729   1.460   3.244  0.5134  0.8797 -0.5768
 6626TIP3    H241294   0.655   1.546   3.144 -0.9725  0.5640  0.2222
 6627TIP3   OH241295   4.616   0.513  16.412 -0.3158 -0.1069 -0.1684
 6627TIP3    H141296   4.694   0.542  16.365 -0.2073 -0.5524 -0.2753
 6627TIP3    H241297   4.595   0.428  16.372 -0.5448 -0.2298  0.2106
 6628TIP3   OH241298   2.477   3.533   5.844  0.3962 -0.0228 -0.2264
 6628TIP3    H141299   2.430   3.497   5.919 -0.8415  1.4477 -0.2571
 6628TIP3    H241300   2.503   3.456   5.793 -2.5233 -0.9189 -0.5101
 6629TIP3   OH241301   5.597   5.689   6.344 -0.4287 -0.2707  0.3701
 6629TIP3    H141302   5.516   5.701   6.395  0.0204  1.0451  0.7989
 6629TIP3    H241303   5.643   5.772   6.352  0.3586 -0.5564 -0.9757
 6630TIP3   OH241304   3.551   6.590   2.730 -0.1245  0.3553  0.1115
 6630TIP3    H141305   3.620   6.657   2.736  0.6662 -0.3052 -1.2732
 6630TIP3    H241306   3.470   6.640   2.721  0.3809  1.1373 -0.1824
 6631TIP3   OH241307   5.168   4.865  13.852 -0.1457 -0.0796  0.2747
 6631TIP3    H141308   5.253   4.853  13.811 -0.0704  1.0189  0.0896
 6631TIP3    H241309   5.157   4.787  13.907  0.8934 -0.3163  0.1657
 6632TIP3   OH241310   5.960   0.596   4.922  0.5379 -0.3212  0.3376
 6632TIP3    H141311   6.045   0.601   4.966 -0.2763 -1.2296  2.1026
 6632TIP3    H241312   5.975   0.539   4.847  1.6654  0.1836  0.1676
 6633TIP3   OH241313   4.526   6.232  14.580  0.1577  0.3679  0.2293
 6633TIP3    H141314   4.554   6.323  14.587  0.2852  0.6679 -2.9930
 6633TIP3    H241315   4.597   6.182  14.620 -0.3640  1.5963  3.0057
 6634TIP3   OH241316   5.963   6.611  15.452 -0.3439 -0.1784 -0.7826
 6634TIP3    H141317   5.964   6.525  15.411 -1.5210 -1.0925  0.9821
 6634TIP3    H241318   5.879   6.615  15.497 -0.0833  1.6904 -0.3675
 6635TIP3   OH241319   3.081   5.231  16.441  0.9068  0.1282  0.0549
 6635TIP3    H141320   3.169   5.193  16.439  1.1503  0.6159  1.1296
 6635TIP3    H241321   3.069   5.261  16.531  0.1341  1.2154 -0.3864
 6636TIP3   OH241322   1.530   2.492  13.202  0.0080  0.0308  0.1332
 6636TIP3    H141323   1.595   2.457  13.263  0.0706  1.6656  1.0763
 6636TIP3    H241324   1.575   2.494  13.118  0.7127 -0.1688  0.4938
 6637TIP3   OH241325   6.592   1.564  17.423 -0.3953 -0.6056  0.5291
 6637TIP3    H141326   6.651   1.628  17.462  3.3581 -1.9802 -2.2564
 6637TIP3    H241327   6.609   1.483  17.471 -1.4439 -0.6116  0.9002
 6638TIP3   OH241328   3.422   1.600  12.831  0.7136 -0.0715  0.2678
 6638TIP3    H141329   3.512   1.570  12.845  0.9153  1.4604  2.9212
 6638TIP3    H241330   3.391   1.549  12.756  3.4557 -1.3238 -0.1328
 6639TIP3   OH241331   4.696   3.602   3.985 -0.6088  0.3726  0.0658
 6639TIP3    H141332   4.724   3.511   3.983 -1.1266  0.1793  1.1363
 6639TIP3    H241333   4.604   3.599   4.012 -0.3807  1.2634  1.0063
 6640TIP3   OH241334   5.626   2.328   5.507 -0.3573  0.2117 -0.0274
 6640TIP3    H141335   5.709   2.302   5.467  0.9084 -0.5067  2.8334
 6640TIP3    H241336   5.590   2.247   5.542 -1.2181  0.8405  0.5748
 6641TIP3   OH241337   1.683   6.696  15.990 -0.4878  0.0836  0.5507
 6641TIP3    H141338   1.749   6.668  16.053  0.3092  1.0354  0.1606
 6641TIP3    H241339   1.687   6.791  15.992 -1.8719  0.1624  0.5332
 6642TIP3   OH241340   2.013   2.981  15.990  0.2107 -0.0075 -0.0528
 6642TIP3    H141341   1.950   3.049  15.966  0.6675  0.1862 -0.7407
 6642TIP3    H241342   1.988   2.905  15.937  0.6003  0.1008 -0.4054
 6643TIP3   OH241343   3.117   5.152  13.416  0.4068  0.1853  0.3454
 6643TIP3    H141344   3.132   5.223  13.354 -0.3149 -0.0925 -0.1541
 6643TIP3    H241345   3.035   5.175  13.460 -0.2012 -0.6726 -0.3065
 6644TIP3   OH241346   2.915   1.899  14.821  0.3391 -0.3177 -0.4576
 6644TIP3    H141347   2.952   1.818  14.784 -0.2067 -1.8178  2.0671
 6644TIP3    H241348   2.830   1.873  14.857  0.1897  1.3564  0.5253
 6645TIP3   OH241349   6.506   3.715  14.233  0.3297  0.1201 -0.6189
 6645TIP3    H141350   6.593   3.710  14.272 -0.1654  1.3546  0.7395
 6645TIP3    H241351   6.475   3.625  14.230  0.7153 -0.1028  1.1372
 6646TIP3   OH241352   2.665   4.934  16.172 -0.1600 -1.0657 -0.2371
 6646TIP3    H141353   2.715   5.012  16.196  0.2593 -1.6015  0.6691
 6646TIP3    H241354   2.574   4.964  16.168 -0.1719 -0.7813  1.3980
 6647TIP3   OH241355   1.486   0.665  16.201 -0.2346 -0.3636 -0.2469
 6647TIP3    H141356   1.400   0.630  16.226  0.5809 -1.7039  0.8109
 6647TIP3    H241357   1.482   0.757  16.225 -1.6567 -0.2151 -0.9667
 6648TIP3   OH241358   4.986   6.022   0.278  0.9159  0.0879  0.0020
 6648TIP3    H141359   5.016   5.962   0.346  0.1008 -0.9810 -0.5417
 6648TIP3    H241360   4.958   6.101   0.326  0.2648 -0.6787  0.9325
 6649TIP3   OH241361   6.069   2.506   5.772  0.5020  0.0311  0.2247
 6649TIP3    H141362   6.061   2.539   5.862  2.1062 -1.1074  0.8270
 6649TIP3    H241363   6.119   2.425   5.781 -2.7623 -2.3997 -1.2111
 6650TIP3   OH241364   4.546   0.272   3.154 -0.6859  0.1903  0.0398
 6650TIP3    H141365   4.515   0.257   3.065  0.3953  0.6374 -0.4285
 6650TIP3    H241366   4.575   0.186   3.184  1.3852  0.4489 -1.0252
 6651TIP3   OH241367   0.873   3.298   5.106  0.2159  0.2039  0.2764
 6651TIP3    H141368   0.895   3.370   5.048  0.5493 -1.3853 -1.6941
 6651TIP3    H241369   0.778   3.306   5.118  0.1994  0.7874 -0.1871
 6652TIP3   OH241370   4.246   1.978   3.906 -0.2024 -0.1179 -0.0014
 6652TIP3    H141371   4.267   2.037   3.833  1.8283  0.4784  0.9960
 6652TIP3    H241372   4.200   1.905   3.865  0.1046  0.6139 -1.7421
 6653TIP3   OH241373   0.788   1.049   2.985  0.0506 -0.0483  0.1172
 6653TIP3    H141374   0.844   1.074   2.911  0.1840  0.7088  0.4659
 6653TIP3    H241375   0.711   1.009   2.944 -0.1133  0.8292 -0.4647
 6654TIP3   OH241376   5.575   0.908  13.879  0.3481  0.0442  0.1203
 6654TIP3    H141377   5.591   0.815  13.893  0.6522  0.1536  0.5388
 6654TIP3    H241378   5.661   0.945  13.861 -0.0167 -0.0738 -2.1356
 6655TIP3   OH241379   5.949   6.404   4.142 -0.6231  0.3608 -0.1850
 6655TIP3    H141380   5.926   6.317   4.176 -2.0095  0.7355 -0.1221
 6655TIP3    H241381   5.875   6.429   4.087  0.3164  0.9981 -1.2070
 6656TIP3   OH241382   0.855   2.933  11.574 -0.4732  0.0186 -0.7795
 6656TIP3    H141383   0.894   2.957  11.490 -0.4268  1.5271 -0.3601
 6656TIP3    H241384   0.766   2.967  11.570 -0.9513 -1.1978 -0.7647
 6657TIP3   OH241385   3.181   1.670   6.399  0.1088  0.6523  0.0076
 6657TIP3    H141386   3.271   1.684   6.429  0.0405  0.5970  0.2407
 6657TIP3    H241387   3.163   1.744   6.341 -0.0209  1.1874  0.7123
 6658TIP3   OH241388   5.412   4.574  13.211 -0.5643 -0.3130 -0.1826
 6658TIP3    H141389   5.498   4.606  13.236 -0.4204 -2.0150  1.7609
 6658TIP3    H241390   5.412   4.577  13.116  2.4914 -2.2503 -0.3828
 6659TIP3   OH241391   0.236   1.978  16.784  0.0458 -0.5050  0.6169
 6659TIP3    H141392   0.287   2.042  16.834  0.2761  0.3209 -0.6144
 6659TIP3    H241393   0.149   1.982  16.823  0.4431 -0.5477  1.5257
 6660TIP3   OH241394   2.064   2.369  16.092  0.7216 -0.3680  0.2649
 6660TIP3    H141395   2.048   2.442  16.153  0.6634 -0.1510 -0.0085
 6660TIP3    H241396   2.131   2.402  16.033  0.5683 -0.4756  0.0343
 6661TIP3   OH241397   5.204   0.043  15.320  0.0412  0.5418 -0.1604
 6661TIP3    H141398   5.164   0.095  15.390  1.3721  2.0710 -0.4916
 6661TIP3    H241399   5.141   0.047  15.248 -0.5097  0.4765  0.3088
 6662TIP3   OH241400   6.592   0.485  12.346  0.0864 -0.0506  0.2244
 6662TIP3    H141401   6.575   0.575  12.320 -3.9302 -1.0851 -1.4529
 6662TIP3    H241402   6.635   0.446  12.270 -2.8154 -0.6440 -1.2713
 6663TIP3   OH241403   3.979   6.118  13.628 -0.3075  0.3067  0.4222
 6663TIP3    H141404   3.972   6.022  13.624  0.4661  0.2886 -1.0189
 6663TIP3    H241405   4.073   6.135  13.618 -0.5890  1.2644 -0.8522
 6664TIP3   OH241406   5.527   3.370   4.078  0.1564  0.2249 -0.0849
 6664TIP3    H141407   5.590   3.399   4.143 -1.3238  0.2353  1.4069
 6664TIP3    H241408   5.536   3.275   4.075  0.4128  0.2490 -0.0786
 6665TIP3   OH241409   0.156   4.777   5.565  0.1749  0.4554 -0.5536
 6665TIP3    H141410   0.191   4.826   5.490  1.8824  1.7973  1.0222
 6665TIP3    H241411   0.079   4.828   5.592 -0.9533 -0.5024 -1.8540
 6666TIP3   OH241412   5.762   3.785   1.732  0.4604  0.0869 -0.2128
 6666TIP3    H141413   5.680   3.766   1.687  1.2440  1.0018 -2.1381
 6666TIP3    H241414   5.828   3.737   1.683  1.0975 -0.7119  1.3696
 6667TIP3   OH241415   5.649   3.546   5.779 -0.0392  0.4671 -0.6919
 6667TIP3    H141416   5.557   3.545   5.806 -0.3859  1.3271 -1.7876
 6667TIP3    H241417   5.666   3.636   5.753  1.5197  0.6373  0.7480
 6668TIP3   OH241418   2.744   4.614   6.492  0.3221  0.5432  0.4405
 6668TIP3    H141419   2.778   4.651   6.573  0.9118  0.9435  0.0195
 6668TIP3    H241420   2.808   4.640   6.425 -0.2603  0.3992 -0.1851
 6669TIP3   OH241421   5.268   0.487   0.705 -0.6426 -0.1252  0.0312
 6669TIP3    H141422   5.248   0.576   0.732  0.3291  0.1887 -0.2416
 6669TIP3    H241423   5.306   0.496   0.618 -0.2075 -0.7685  0.1440
 6670TIP3   OH241424   2.825   6.629  13.895  0.1492  0.4003  0.0386
 6670TIP3    H141425   2.871   6.598  13.816 -0.4853  0.7849 -0.4916
 6670TIP3    H241426   2.862   6.715  13.912  0.5097  0.1889  0.3589
 6671TIP3   OH241427   0.897   2.906   5.975 -0.6801 -0.0854 -0.4722
 6671TIP3    H141428   0.966   2.877   5.915 -1.6971 -0.3929 -1.5444
 6671TIP3    H241429   0.914   2.999   5.988  0.3156 -0.2973 -0.1836
 6672TIP3   OH241430   5.843   1.720   4.310 -0.1398 -0.2012  0.4065
 6672TIP3    H141431   5.876   1.630   4.314 -0.0745 -0.2067 -0.1411
 6672TIP3    H241432   5.921   1.775   4.318 -0.2363 -0.1783  1.2932
 6673TIP3   OH241433   5.136   5.281   4.947 -0.1566 -0.0600 -0.2160
 6673TIP3    H141434   5.198   5.350   4.923  1.1246 -0.9584  0.4024
 6673TIP3    H241435   5.190   5.213   4.987 -1.4121 -1.3368 -0.6097
 6674TIP3   OH241436   2.077   1.759  13.781  0.2466 -0.5284  0.6394
 6674TIP3    H141437   2.055   1.796  13.695 -0.2456 -0.9033  0.6007
 6674TIP3    H241438   2.070   1.664  13.769 -0.5760 -0.5618  1.2863
 6675TIP3   OH241439   0.040   2.928  16.261 -0.2240 -0.3514 -0.2042
 6675TIP3    H141440   0.023   2.950  16.353  1.0623  0.2343 -0.0897
 6675TIP3    H241441   0.101   2.855  16.265  0.0453 -0.1478 -0.5966
 6676TIP3   OH241442   6.536   3.142  13.661 -0.3771  0.2702 -0.4265
 6676TIP3    H141443   6.474   3.214  13.649 -0.0091  0.7383  0.4277
 6676TIP3    H241444   6.483   3.071  13.699 -0.0503  1.3160  2.1603
 6677TIP3   OH241445   0.411   6.634  15.227  0.4447  0.1015 -0.1688
 6677TIP3    H141446   0.490   6.581  15.225 -0.1301 -0.7805 -0.2988
 6677TIP3    H241447   0.414   6.679  15.311  0.5700 -0.7551  0.3037
 6678TIP3   OH241448   4.390   0.602   3.595  0.5762 -0.1578  0.1258
 6678TIP3    H141449   4.474   0.556   3.588  0.5755 -0.3988  1.4060
 6678TIP3    H241450   4.347   0.561   3.670 -1.5885 -1.4205 -1.7007
 6679TIP3   OH241451   2.922   2.350  13.947 -0.2151 -0.0572 -0.4158
 6679TIP3    H141452   2.985   2.366  14.017  0.5532 -0.2439 -1.0532
 6679TIP3    H241453   2.968   2.293  13.886 -0.3261  1.3015 -1.8308
 6680TIP3   OH241454   4.331   6.539   5.948 -0.4787  0.1174 -0.1935
 6680TIP3    H141455   4.377   6.589   6.015 -0.4228 -0.1217 -0.0510
 6680TIP3    H241456   4.269   6.600   5.910 -1.4055 -0.0876  0.9501
 6681TIP3   OH241457   6.686   3.824   1.341  0.2983  0.0488 -0.1902
 6681TIP3    H141458   6.666   3.865   1.425 -0.5119  1.0075 -0.8343
 6681TIP3    H241459   6.763   3.770   1.358  1.2525  1.6585  0.7467
 6682TIP3   OH241460   6.480   5.090   3.946  0.2793  0.2693  0.4587
 6682TIP3    H141461   6.390   5.069   3.923 -0.0907  3.0074 -1.0609
 6682TIP3    H241462   6.475   5.123   4.035  0.0970 -1.1901  1.0121
 6683TIP3   OH241463   5.103   1.611   4.097 -0.3874 -0.9816  0.9691
 6683TIP3    H141464   5.119   1.705   4.110  0.9517 -0.6747 -2.0398
 6683TIP3    H241465   5.008   1.605   4.084 -0.4389  0.0347  0.7435
 6684TIP3   OH241466   1.633   3.172  10.574  0.3150  0.2598 -0.5462
 6684TIP3    H141467   1.572   3.117  10.621  0.7670  1.9958  2.2791
 6684TIP3    H241468   1.578   3.229  10.519 -0.4636  0.3617  0.3320
 6685TIP3   OH241469   6.137   0.749   1.108  0.3570 -0.0512 -0.8859
 6685TIP3    H141470   6.078   0.824   1.105  1.6099  1.0117 -0.0758
 6685TIP3    H241471   6.218   0.784   1.145  0.6468 -2.0205  0.5088
 6686TIP3   OH241472   5.524   2.547   6.056  0.0689  0.5927  0.1590
 6686TIP3    H141473   5.574   2.622   6.023  0.6325 -0.0837 -0.5680
 6686TIP3    H241474   5.433   2.576   6.055  0.3981  1.7384  1.1983
 6687TIP3   OH241475   3.780   6.559  15.888 -0.1161  0.3229  0.2956
 6687TIP3    H141476   3.791   6.629  15.823 -0.1746 -0.7503 -0.9159
 6687TIP3    H241477   3.805   6.599  15.971 -0.9200  2.0141 -0.2222
 6688TIP3   OH241478   0.257   3.885   0.945 -0.5265 -0.3174  0.5844
 6688TIP3    H141479   0.343   3.924   0.934 -1.1588  1.0366  0.2334
 6688TIP3    H241480   0.224   3.919   1.028 -0.0675 -2.1929  1.6109
 6689TIP3   OH241481   0.107   1.757  13.775 -0.3842 -0.2818  0.2022
 6689TIP3    H141482   0.037   1.821  13.760 -0.9377 -0.9319 -0.0727
 6689TIP3    H241483   0.159   1.759  13.695  0.9891  1.4709  1.0754
 6690TIP3   OH241484   0.340   1.928   1.261 -0.1675 -0.4218 -0.1036
 6690TIP3    H141485   0.340   1.892   1.172 -0.3437  1.5726 -0.9658
 6690TIP3    H241486   0.402   1.873   1.309  3.0022  0.7287 -2.4865
 6691TIP3   OH241487   3.811   3.162  16.211  0.3171  0.4182  0.0413
 6691TIP3    H141488   3.850   3.244  16.240  0.8397 -0.3264  1.5552
 6691TIP3    H241489   3.887   3.106  16.189 -0.0368  0.4558 -1.3827
 6692TIP3   OH241490   6.124   5.008   2.624 -0.1111  0.1159 -0.1485
 6692TIP3    H141491   6.126   4.986   2.718 -0.5608 -0.9917 -0.3850
 6692TIP3    H241492   6.084   4.932   2.582  0.4232  0.4445 -1.2953
 6693TIP3   OH241493   3.206   4.115  11.536 -0.0432 -0.1547 -0.2219
 6693TIP3    H141494   3.272   4.116  11.467 -1.5812 -0.3997 -1.7325
 6693TIP3    H241495   3.201   4.024  11.563 -0.2869 -0.2527 -0.6044
 6694TIP3   OH241496   2.697   1.384  15.922  0.3387 -0.2760 -0.1721
 6694TIP3    H141497   2.646   1.312  15.961  0.1099 -0.3908 -0.6783
 6694TIP3    H241498   2.787   1.353  15.924  0.1709 -0.8464 -0.9593
 6695TIP3   OH241499   5.277   6.141   4.870 -0.3521  0.7620  0.3327
 6695TIP3    H141500   5.344   6.208   4.882 -1.0072  1.0426  3.5726
 6695TIP3    H241501   5.205   6.185   4.825  0.5660  1.1925 -0.7537
 6696TIP3   OH241502   1.184   4.284  16.025  0.4703  0.5001 -0.0032
 6696TIP3    H141503   1.092   4.310  16.022  0.9018  2.1333 -1.8710
 6696TIP3    H241504   1.231   4.365  16.006  2.4143  0.0555  2.5037
 6697TIP3   OH241505   5.628   5.101  16.470 -0.2453  0.3419 -0.1888
 6697TIP3    H141506   5.654   5.184  16.510 -0.9712  0.0901  0.8637
 6697TIP3    H241507   5.586   5.053  16.542 -0.4237 -0.6643 -0.9523
 6698TIP3   OH241508   1.240   5.801   3.590 -0.1161  0.0774  0.3048
 6698TIP3    H141509   1.178   5.845   3.649  1.0077 -1.8365  3.1326
 6698TIP3    H241510   1.326   5.829   3.621  0.5241 -0.9616 -0.4764
 6699TIP3   OH241511   1.404   4.821  17.219  0.2040  0.7192 -0.7363
 6699TIP3    H141512   1.381   4.794  17.130  0.0388  1.3788 -0.8979
 6699TIP3    H241513   1.321   4.830  17.265  0.3170 -0.2743 -0.3092
 6700TIP3   OH241514   4.264   0.876  11.439  0.3236 -0.1362 -0.2177
 6700TIP3    H141515   4.203   0.806  11.464 -0.0741  0.4446  0.4910
 6700TIP3    H241516   4.280   0.862  11.346 -0.3444 -0.7204 -0.2550
 6701TIP3   OH241517   3.084   6.678  16.257 -0.5804 -0.3697  0.4464
 6701TIP3    H141518   3.025   6.624  16.204  0.5884 -1.3568  0.1175
 6701TIP3    H241519   3.027   6.716  16.324 -1.6879 -0.8421 -0.1935
 6702TIP3   OH241520   3.311   5.522  17.222 -0.2823 -0.0004 -0.6437
 6702TIP3    H141521   3.313   5.576  17.143 -1.1518 -0.4227 -0.9725
 6702TIP3    H241522   3.339   5.435  17.191  3.4824  0.7083  0.3205
 6703TIP3   OH241523   2.748   6.236   2.223  0.9657  0.0435 -0.2270
 6703TIP3    H141524   2.690   6.310   2.209 -0.1909 -0.7589  0.1309
 6703TIP3    H241525   2.831   6.261   2.182 -0.0074  0.7200 -1.8506
 6704TIP3   OH241526   1.292   5.635   0.584 -0.4844 -0.3274 -0.1788
 6704TIP3    H141527   1.316   5.586   0.663  0.4628 -0.3461 -0.4760
 6704TIP3    H241528   1.279   5.725   0.615 -0.7126 -0.4506  0.0965
 6705TIP3   OH241529   1.697   4.617   1.940 -0.2355 -0.4620  0.3771
 6705TIP3    H141530   1.694   4.538   1.885  0.9907 -1.4832  1.6733
 6705TIP3    H241531   1.777   4.605   1.993 -0.3315  1.4012  0.9896
 6706TIP3   OH241532   1.373   0.904  17.350  0.3383 -0.1959 -0.5784
 6706TIP3    H141533   1.280   0.917  17.366  0.2613  0.4893 -1.5359
 6706TIP3    H241534   1.379   0.880  17.257  1.0129 -1.4250 -0.2455
 6707TIP3   OH241535   1.790   3.653  17.154 -0.2003 -0.1446  0.0489
 6707TIP3    H141536   1.735   3.730  17.167  0.2375  0.1974 -0.1348
 6707TIP3    H241537   1.801   3.647  17.059  1.2596  0.6165  0.1583
 6708TIP3   OH241538   5.592   1.983  13.145 -0.4525  0.9101  0.1773
 6708TIP3    H141539   5.576   1.906  13.092  1.0522  1.6652 -1.4803
 6708TIP3    H241540   5.563   1.959  13.233  0.4237 -1.6961 -0.1763
 6709TIP3   OH241541   4.047   3.034  15.913 -0.2884  0.1740  0.0256
 6709TIP3    H141542   3.955   3.010  15.914  0.3022 -2.3595  1.4741
 6709TIP3    H241543   4.082   2.990  15.835 -0.1325  0.4371 -0.0548
 6710TIP3   OH241544   0.357   5.635   3.453 -0.8775  0.4378  0.3847
 6710TIP3    H141545   0.379   5.718   3.411 -0.8862  0.9622  1.3865
 6710TIP3    H241546   0.261   5.633   3.454 -0.8775  0.3215  0.1826
 6711TIP3   OH241547   4.671   3.296  12.163 -0.0862 -0.9430 -0.0441
 6711TIP3    H141548   4.645   3.226  12.222 -1.5323  0.0932  0.6049
 6711TIP3    H241549   4.588   3.331  12.129  0.4602  1.4603  0.8736
 6712TIP3   OH241550   3.960   6.723   0.812  0.6135 -0.3192  0.2825
 6712TIP3    H141551   4.028   6.763   0.758  0.2018  0.2265  0.1577
 6712TIP3    H241552   4.001   6.709   0.897  0.5483  1.1213  0.5821
 6713TIP3   OH241553   2.744   5.200  12.952  0.3483  0.7113  0.5336
 6713TIP3    H141554   2.691   5.158  13.020 -0.5567  0.7910 -0.1033
 6713TIP3    H241555   2.830   5.212  12.992  0.2538 -0.5673  1.1700
 6714TIP3   OH241556   3.292   0.930   0.454  0.0810 -0.1437 -0.0294
 6714TIP3    H141557   3.257   0.842   0.468  1.3610 -0.5673  0.6816
 6714TIP3    H241558   3.367   0.917   0.396 -0.1337  0.5761 -0.4830
 6715TIP3   OH241559   1.157   6.417   2.425 -0.2398 -0.2543  0.9376
 6715TIP3    H141560   1.178   6.325   2.443  0.0751 -0.1112  1.3041
 6715TIP3    H241561   1.168   6.425   2.330 -3.3462 -1.3777  0.3603
 6716TIP3   OH241562   4.677   4.021  11.833 -0.7729 -0.2469  0.2125
 6716TIP3    H141563   4.647   3.959  11.766 -1.3228 -0.6066  0.7707
 6716TIP3    H241564   4.619   4.096  11.824  0.7770  0.8194 -1.3882
 6717TIP3   OH241565   2.496   4.988  12.043  0.3472 -0.8191 -0.1027
 6717TIP3    H141566   2.590   4.990  12.025  0.6280  1.1914  1.2889
 6717TIP3    H241567   2.489   5.003  12.138 -1.3963  0.1805 -0.3451
 6718TIP3   OH241568   0.343   3.239  10.828  0.1868  0.0892  0.3574
 6718TIP3    H141569   0.382   3.326  10.814  1.3854 -0.8427 -3.3010
 6718TIP3    H241570   0.418   3.183  10.848  0.0973 -0.7984 -1.5929
 6719TIP3   OH241571   2.145   2.445  17.001 -0.1620 -0.0988 -0.5226
 6719TIP3    H141572   2.190   2.367  16.967  0.2991  0.4770 -1.2626
 6719TIP3    H241573   2.179   2.455  17.090 -0.1967 -0.7214 -0.4320
 6720TIP3   OH241574   3.216   6.489   2.202 -0.1335 -0.4330 -0.1129
 6720TIP3    H141575   3.209   6.453   2.113 -0.7365 -1.0121  0.1615
 6720TIP3    H241576   3.242   6.414   2.256  1.8341  0.2373 -0.0327
 6721TIP3   OH241577   5.410   3.412   1.285 -0.4853  0.4171 -0.0393
 6721TIP3    H141578   5.352   3.427   1.211 -0.8099  2.2448  0.5322
 6721TIP3    H241579   5.468   3.489   1.286  2.3373 -1.5366 -0.8798
 6722TIP3   OH241580   1.033   3.851  12.597  0.3730  0.1185  0.4669
 6722TIP3    H141581   1.070   3.817  12.678  0.1849  1.2404  1.0547
 6722TIP3    H241582   1.049   3.783  12.532 -1.0278 -1.5784  1.8158
 6723TIP3   OH241583   4.110   4.587  13.188 -0.7509 -0.0907 -0.2330
 6723TIP3    H141584   4.162   4.534  13.128 -3.8232 -2.8891 -0.7168
 6723TIP3    H241585   4.146   4.568  13.275  1.8249  1.6857 -0.8033
 6724TIP3   OH241586   2.631   6.440  17.054 -0.0959 -0.3236  0.1207
 6724TIP3    H141587   2.655   6.531  17.073  0.5587 -0.2538 -0.9863
 6724TIP3    H241588   2.589   6.410  17.135  1.0268  0.4941  1.0469
 6725TIP3   OH241589   0.096   5.033  11.870  0.2682 -0.4372  0.0433
 6725TIP3    H141590   0.076   5.072  11.955  0.7685  0.6835 -0.3304
 6725TIP3    H241591   0.017   5.047  11.818  0.1041 -0.7722  0.2020
 6726TIP3   OH241592   1.599   0.819   2.740 -0.3543  0.6392  0.0400
 6726TIP3    H141593   1.549   0.850   2.665  0.8865  0.6474 -0.8128
 6726TIP3    H241594   1.597   0.723   2.734 -0.6050  0.6302  0.2418
 6727TIP3   OH241595   5.403   3.338  13.287  0.0824  0.3820  0.3103
 6727TIP3    H141596   5.420   3.401  13.357  0.9727  1.7222 -1.0665
 6727TIP3    H241597   5.490   3.307  13.261 -0.2516 -0.1671 -0.1762
 6728TIP3   OH241598   4.950   4.576  14.928  0.1272 -0.6822  0.5339
 6728TIP3    H141599   5.036   4.595  14.965  0.2400 -1.1114  0.4945
 6728TIP3    H241600   4.888   4.604  14.996  0.2601  0.4423  0.2115
 6729TIP3   OH241601   4.668   1.542  12.363 -0.1716 -0.6466  0.2026
 6729TIP3    H141602   4.671   1.504  12.450 -1.2801 -1.3167 -0.0349
 6729TIP3    H241603   4.650   1.635  12.378  2.1636 -0.2174  0.7684
 6730TIP3   OH241604   4.620   2.102  14.115  0.1185  0.0808  0.3092
 6730TIP3    H141605   4.587   2.083  14.027  0.9466  0.6753 -0.1546
 6730TIP3    H241606   4.554   2.159  14.154  0.3388  0.8639 -0.4177
 6731TIP3   OH241607   2.159   5.996  10.659 -0.0390 -0.0631 -0.3876
 6731TIP3    H141608   2.091   6.055  10.628  0.5271  0.4767 -0.6389
 6731TIP3    H241609   2.162   6.009  10.754  2.8366  3.4713 -0.7498
 6732TIP3   OH241610   0.338   5.509  12.045  0.1256  0.7482  0.2456
 6732TIP3    H141611   0.426   5.547  12.040 -0.1106  1.1760 -1.2105
 6732TIP3    H241612   0.283   5.582  12.076  0.1517  0.7016  0.4045
 6733TIP3   OH241613   3.225   5.251   0.492 -0.2782 -0.1552  0.1769
 6733TIP3    H141614   3.174   5.315   0.441 -1.2674 -1.7424 -0.9312
 6733TIP3    H241615   3.316   5.281   0.483 -0.5956  0.4989 -1.2352
 6734TIP3   OH241616   2.898   0.641   0.636 -0.5496 -1.0131 -0.4344
 6734TIP3    H141617   2.885   0.622   0.544 -0.0884  2.8185 -1.4565
 6734TIP3    H241618   2.830   0.704   0.658  0.4851 -0.4398  1.3190
 6735TIP3   OH241619   2.948   3.868   0.905 -0.5174 -0.4811  0.7708
 6735TIP3    H141620   2.941   3.830   0.993 -0.9906 -1.4422  0.3274
 6735TIP3    H241621   2.996   3.803   0.855 -0.5290 -0.0761  0.2286
 6736TIP3   OH241622   3.385   5.437  11.043 -0.0358  0.2484 -0.1152
 6736TIP3    H141623   3.353   5.492  10.972 -1.5569 -0.5120 -0.0523
 6736TIP3    H241624   3.438   5.496  11.097  1.8535  0.6712 -2.2795
 6737TIP3   OH241625   4.494   0.390  15.020  0.0208  0.6713  0.0609
 6737TIP3    H141626   4.492   0.417  15.112  0.5240 -2.9380  1.2642
 6737TIP3    H241627   4.446   0.308  15.017  2.0313 -0.5581 -2.4031
 6738TIP3   OH241628   5.938   1.282  17.319  0.0422  0.7188  0.2465
 6738TIP3    H141629   5.997   1.248  17.252 -1.2250  0.0006 -0.5390
 6738TIP3    H241630   5.944   1.378  17.310 -0.7159  0.6358 -1.4626
 6739TIP3   OH241631   6.276   2.007   4.907 -0.0185  0.0636  0.8577
 6739TIP3    H141632   6.237   1.952   4.839 -0.4564  0.3289  0.8921
 6739TIP3    H241633   6.343   1.951   4.947  1.1672  0.3228 -0.6587
 6740TIP3   OH241634   3.251   1.193  13.316 -0.0017 -0.2513 -0.0563
 6740TIP3    H141635   3.337   1.200  13.275 -1.1274 -2.1738 -3.0290
 6740TIP3    H241636   3.245   1.103  13.346 -1.2438 -0.3750 -0.5959
 6741TIP3   OH241637   0.260   5.756   4.706  0.1373  0.8156 -0.5570
 6741TIP3    H141638   0.346   5.797   4.704  1.9551 -2.6618 -0.0132
 6741TIP3    H241639   0.266   5.684   4.643 -1.4826 -1.0179  1.2352
 6742TIP3   OH241640   6.222   2.729  15.110 -0.3942 -0.1987 -0.0371
 6742TIP3    H141641   6.169   2.655  15.140 -0.2683  1.0651  3.7637
 6742TIP3    H241642   6.312   2.695  15.108 -0.5952 -0.7272 -0.6334
 6743TIP3   OH241643   6.049   1.894  12.411  0.3330  0.1238 -0.5938
 6743TIP3    H141644   6.011   1.837  12.344 -0.5425  1.5055 -1.3277
 6743TIP3    H241645   6.117   1.842  12.451 -0.8553 -1.6635 -0.7931
 6744TIP3   OH241646   5.801   0.782   2.774  0.2867 -0.0588 -0.7750
 6744TIP3    H141647   5.837   0.770   2.862  0.9682 -0.6197 -1.1152
 6744TIP3    H241648   5.722   0.727   2.773  0.5853 -0.4984 -0.6833
 6745TIP3   OH241649   6.117   5.140  14.393 -0.0067  0.6294  0.5646
 6745TIP3    H141650   6.129   5.229  14.426  1.3603  0.1773  1.3550
 6745TIP3    H241651   6.118   5.085  14.471 -0.0704 -0.1603  0.0254
 6746TIP3   OH241652   1.297   5.698  14.704 -1.0815  0.2342  0.2564
 6746TIP3    H141653   1.256   5.635  14.644  1.5604 -1.4209  0.0083
 6746TIP3    H241654   1.305   5.651  14.787  0.6889  0.2827  0.1487
 6747TIP3   OH241655   3.197   2.044  15.252 -0.4084  0.1646  0.4240
 6747TIP3    H141656   3.199   2.134  15.218  1.1570  0.3954  1.0765
 6747TIP3    H241657   3.153   1.994  15.183  1.2618  0.9100 -1.2616
 6748TIP3   OH241658   2.207   5.223   4.307 -0.1781  0.2162  0.0016
 6748TIP3    H141659   2.276   5.268   4.357 -0.5151 -1.3712  2.0594
 6748TIP3    H241660   2.225   5.130   4.321 -0.9770 -0.2850 -1.9985
 6749TIP3   OH241661   4.409   3.289  12.043 -0.2347 -0.2874  0.0302
 6749TIP3    H141662   4.324   3.277  12.000 -0.0543 -0.9799 -0.1403
 6749TIP3    H241663   4.388   3.331  12.127 -0.5798  1.2214 -0.7783
 6750TIP3   OH241664   0.617   5.781  10.693  0.2776 -0.5008 -0.2104
 6750TIP3    H141665   0.671   5.702  10.706 -1.7458 -1.8726  0.4137
 6750TIP3    H241666   0.585   5.802  10.781  0.1225  0.5391 -0.5075
 6751TIP3   OH241667   1.477   6.264  15.351 -0.0431  0.2419  0.4358
 6751TIP3    H141668   1.554   6.270  15.409  0.5989  0.2150 -0.3965
 6751TIP3    H241669   1.415   6.327  15.387  0.3379  0.2218  1.1589
 6752TIP3   OH241670   1.387   3.087   4.707 -0.2711 -0.0441 -0.1531
 6752TIP3    H141671   1.432   3.165   4.674  0.8727  0.4984  2.4365
 6752TIP3    H241672   1.295   3.101   4.682  0.1182  1.5224 -0.8501
 6753TIP3   OH241673   4.209   3.201  12.535  0.5551 -0.3969 -0.3821
 6753TIP3    H141674   4.287   3.226  12.486  0.0194  0.2165 -0.9210
 6753TIP3    H241675   4.243   3.142  12.603  1.1624 -2.2174 -2.1540
 6754TIP3   OH241676   0.274   4.192  13.314 -0.3600  0.2265 -0.3190
 6754TIP3    H141677   0.211   4.166  13.381 -0.2445 -1.8454 -0.9432
 6754TIP3    H241678   0.274   4.119  13.251  0.5022  1.4989 -1.8793
 6755TIP3   OH241679   2.596   1.245  10.920 -0.4157  0.2580 -0.6131
 6755TIP3    H141680   2.563   1.324  10.878  1.0529  1.3278  0.1550
 6755TIP3    H241681   2.587   1.177  10.853 -1.9857  0.9674 -1.1846
 6756TIP3   OH241682   3.623   4.761   3.163  0.0026 -0.7473 -0.1516
 6756TIP3    H141683   3.563   4.736   3.093 -0.5754 -2.1952  0.8001
 6756TIP3    H241684   3.692   4.694   3.161  0.9902  0.2542 -0.5037
 6757TIP3   OH241685   5.982   2.486  10.266 -0.7902 -0.6553  0.0274
 6757TIP3    H141686   5.996   2.566  10.216  1.4593 -0.9112  0.1602
 6757TIP3    H241687   5.966   2.419  10.200  2.6890 -1.0959 -0.5328
 6758TIP3   OH241688   2.104   0.963   2.607  0.0185  0.5989 -0.0241
 6758TIP3    H141689   2.084   0.948   2.515 -0.1389 -1.7077  0.3204
 6758TIP3    H241690   2.037   0.913   2.655  0.1799  1.6237  1.3488
 6759TIP3   OH241691   1.904   0.854  13.337 -0.2805 -0.6897  0.6235
 6759TIP3    H141692   1.957   0.911  13.281 -0.3889  0.3378  1.5433
 6759TIP3    H241693   1.826   0.906  13.358 -1.0634 -1.6992  0.3488
 6760TIP3   OH241694   6.555   1.168   1.741  0.4841  0.0196 -0.1156
 6760TIP3    H141695   6.614   1.169   1.666 -0.6161  0.7082 -0.9998
 6760TIP3    H241696   6.579   1.246   1.792  1.2285 -0.4473  0.2696
 6761TIP3   OH241697   4.746   6.468  16.823  0.1038  0.1888 -0.1507
 6761TIP3    H141698   4.703   6.548  16.855 -0.5947 -0.3205  0.2140
 6761TIP3    H241699   4.679   6.400  16.833  0.8906 -0.5548  0.0891
 6762TIP3   OH241700   6.482   2.187   3.868  0.3419  0.7704 -0.4570
 6762TIP3    H141701   6.509   2.262   3.920  0.5755 -0.4685  1.2655
 6762TIP3    H241702   6.544   2.185   3.795  0.3439  2.2125 -0.5266
 6763TIP3   OH241703   3.904   0.546  15.049 -0.1062 -0.1268 -0.0934
 6763TIP3    H141704   3.928   0.566  15.139 -1.5791  1.6890 -0.0355
 6763TIP3    H241705   3.945   0.614  14.997 -0.0575 -0.6022 -0.6948
 6764TIP3   OH241706   2.975   5.934  17.245  0.2328 -0.1017  0.5341
 6764TIP3    H141707   2.880   5.938  17.232  0.5030  0.9910 -1.3852
 6764TIP3    H241708   2.999   6.021  17.276  0.6809 -0.1687  0.3893
 6765TIP3   OH241709   2.190   3.950  13.367 -0.5494 -0.0637 -0.1962
 6765TIP3    H141710   2.251   3.905  13.309 -0.1930  0.8788 -0.5827
 6765TIP3    H241711   2.237   3.958  13.450 -0.3826  0.1080 -0.3051
 6766TIP3   OH241712   1.136   0.678   0.383 -0.1702 -0.5843  0.6678
 6766TIP3    H141713   1.064   0.730   0.345 -0.3245 -0.0465  1.6495
 6766TIP3    H241714   1.188   0.742   0.432  1.7011 -0.7466 -0.9923
 6767TIP3   OH241715   4.982   5.037   1.582 -0.2413  0.4698 -0.1743
 6767TIP3    H141716   5.014   5.022   1.671 -1.3201  0.3366  0.1999
 6767TIP3    H241717   4.890   5.060   1.593 -0.7074 -0.6952 -1.3317
 6768TIP3   OH241718   2.741   1.168  11.655  0.6139 -0.1509 -0.4691
 6768TIP3    H141719   2.833   1.187  11.676  0.7916  0.1826 -1.4603
 6768TIP3    H241720   2.722   1.086  11.701  0.5688  1.1400  1.9585
 6769TIP3   OH241721   1.548   1.829  15.665  0.1319  0.6356  0.1607
 6769TIP3    H141722   1.503   1.758  15.711 -2.4895  1.7147 -0.5613
 6769TIP3    H241723   1.576   1.889  15.733 -0.1517  0.2774  0.5970
 6770TIP3   OH241724   6.120   5.986  10.627 -0.5484  0.0901 -0.0355
 6770TIP3    H141725   6.185   5.975  10.697 -1.1475 -0.4780  0.4450
 6770TIP3    H241726   6.040   5.949  10.664 -1.0248  0.3581 -0.7994
 6771TIP3   OH241727   6.708   1.105   2.984  0.2150 -0.6222  0.6451
 6771TIP3    H141728   6.801   1.117   2.968  0.2162 -1.0166  0.3489
 6771TIP3    H241729   6.691   1.013   2.963 -0.2756 -0.5111  0.5287
 6772TIP3   OH241730   0.249   0.418   0.235  0.7158  0.2476 -0.6166
 6772TIP3    H141731   0.243   0.395   0.328 -3.0184  1.7211 -0.3296
 6772TIP3    H241732   0.271   0.511   0.234 -1.8275  0.9116 -0.9969
 6773TIP3   OH241733   1.316   2.483  11.445 -0.0781 -0.8197 -0.2606
 6773TIP3    H141734   1.358   2.527  11.371  0.2091  0.2450  0.5208
 6773TIP3    H241735   1.279   2.403  11.407  2.8390 -1.9832 -0.9713
 6774TIP3   OH241736   0.075   1.840   0.935  0.1804  0.3807 -0.5270
 6774TIP3    H141737   0.008   1.781   0.969 -0.2247 -0.6331 -2.9097
 6774TIP3    H241738   0.148   1.830   0.996 -0.9554 -0.2710  0.7980
 6775TIP3   OH241739   1.706   6.752  15.059  1.1378  0.1925 -0.3325
 6775TIP3    H141740   1.733   6.661  15.071  0.5881 -0.0888 -1.1398
 6775TIP3    H241741   1.724   6.771  14.967 -0.4632  0.2836 -0.6670
 6776TIP3   OH241742   1.275   4.434  16.587  0.5533 -0.1636  0.6331
 6776TIP3    H141743   1.327   4.485  16.525  0.0626  0.3808  0.6640
 6776TIP3    H241744   1.308   4.462  16.673  0.1192  0.2962  0.6573
 6777TIP3   OH241745   4.013   5.976  12.186 -0.2126 -0.1060 -0.1821
 6777TIP3    H141746   4.023   6.053  12.131  2.0966 -2.2647 -3.1303
 6777TIP3    H241747   3.919   5.966  12.198 -0.6548  1.8779 -1.6497
 6778TIP3   OH241748   6.458   1.838   3.230 -0.0004 -0.2400  0.4481
 6778TIP3    H141749   6.527   1.793   3.181 -0.5645 -0.1339 -0.4764
 6778TIP3    H241750   6.403   1.768   3.264 -0.0444 -0.2985  0.2606
 6779TIP3   OH241751   4.270   6.719  12.664  0.0042 -0.0337  0.1782
 6779TIP3    H141752   4.237   6.638  12.623  0.9452 -0.6776  0.6501
 6779TIP3    H241753   4.204   6.742  12.729 -0.0233 -0.7450  0.4160
 6780TIP3   OH241754   1.489   0.564   4.249 -0.0803  0.1539 -0.0704
 6780TIP3    H141755   1.438   0.572   4.330 -0.8156  1.2860 -0.6155
 6780TIP3    H241756   1.576   0.595   4.272  0.1086 -0.8497  0.6250
 6781TIP3   OH241757   3.664   5.621  13.746  0.3004 -0.0922 -0.2152
 6781TIP3    H141758   3.676   5.694  13.806  0.7796  0.0189 -0.4361
 6781TIP3    H241759   3.629   5.661  13.666  1.8144  0.1212 -0.8148
 6782TIP3   OH241760   5.686   1.070  10.960  0.1214  0.2124 -0.2624
 6782TIP3    H141761   5.669   1.056  10.867  0.5199 -1.3311 -0.1185
 6782TIP3    H241762   5.612   1.030  11.005  0.1486  0.5682  0.1076
 6783TIP3   OH241763   4.164   5.886  11.917 -0.3097 -0.0448 -0.4504
 6783TIP3    H141764   4.258   5.886  11.930 -0.3508  0.7955 -0.0727
 6783TIP3    H241765   4.137   5.796  11.937  0.4241 -0.3355 -0.7308
 6784TIP3   OH241766   5.476   0.622  16.133  0.6228  0.0703 -0.0550
 6784TIP3    H141767   5.542   0.599  16.068  0.6936 -1.4510  0.5030
 6784TIP3    H241768   5.424   0.542  16.144 -0.7699  0.9639  0.1624
 6785TIP3   OH241769   2.430   5.326   4.451  0.5584  0.0034  0.2477
 6785TIP3    H141770   2.501   5.289   4.399  0.8019  0.1465  0.4769
 6785TIP3    H241771   2.470   5.347   4.535  0.7063  1.7946 -0.2142
 6786TIP3   OH241772   4.869   2.233  13.486  0.0809 -0.1085 -0.0354
 6786TIP3    H141773   4.901   2.323  13.489  0.0744 -0.0871 -0.6408
 6786TIP3    H241774   4.945   2.179  13.506  0.3936 -0.0318 -0.9719
 6787TIP3   OH241775   1.521   5.078  17.132  0.2140  0.1671 -0.6724
 6787TIP3    H141776   1.479   5.061  17.048 -0.3114 -0.6166 -0.2613
 6787TIP3    H241777   1.463   5.038  17.197  0.8774  0.3003  0.0218
 6788TIP3   OH241778   6.546   1.444  11.455  0.5825  0.0807 -0.5305
 6788TIP3    H141779   6.461   1.480  11.427 -0.3337 -2.4623 -1.3100
 6788TIP3    H241780   6.591   1.424  11.374  1.3527  0.0963 -0.1118
 6789TIP3   OH241781   1.521   2.218  12.920  0.3862  0.3204  0.2813
 6789TIP3    H141782   1.488   2.194  12.833  0.4690 -1.6107  0.7503
 6789TIP3    H241783   1.471   2.164  12.980  1.4675  0.4538  1.3323
 6790TIP3   OH241784   2.050   4.622  12.359 -0.2975 -0.0713 -0.2114
 6790TIP3    H141785   1.989   4.599  12.289 -1.0553  1.1518  0.0300
 6790TIP3    H241786   2.003   4.604  12.440 -0.2460  0.6399 -0.0204
 6791TIP3   OH241787   0.330   4.576  12.381 -0.2008  0.3034 -0.4303
 6791TIP3    H141788   0.287   4.491  12.387  1.0258 -0.3937 -0.9288
 6791TIP3    H241789   0.271   4.629  12.327 -0.8373 -0.3326 -0.3768
 6792TIP3   OH241790   1.294   0.315   1.260 -0.0851  0.4786 -0.1624
 6792TIP3    H141791   1.285   0.320   1.165  1.3605  1.2577 -0.2824
 6792TIP3    H241792   1.207   0.336   1.293 -0.9802 -1.1784 -1.3095
 6793TIP3   OH241793   6.563   2.181  13.202  0.2038 -0.4963 -0.7967
 6793TIP3    H141794   6.615   2.159  13.125 -0.2504  0.1762 -1.3016
 6793TIP3    H241795   6.496   2.241  13.170  0.9192  1.0004  0.3772
 6794TIP3   OH241796   1.703   4.666  13.860 -0.2372 -0.9336  0.4284
 6794TIP3    H141797   1.656   4.680  13.777  0.4316 -1.6268 -0.0811
 6794TIP3    H241798   1.763   4.741  13.866 -0.7306 -0.5481  0.6069
 6795TIP3   OH241799   0.418   5.019  15.181 -0.2244  0.5643 -0.2655
 6795TIP3    H141800   0.447   5.109  15.166  2.0884 -0.0749 -0.0080
 6795TIP3    H241801   0.428   4.977  15.096  1.3462 -0.0991  0.2225
 6796TIP3   OH241802   5.927   1.674  15.684 -0.5847 -0.5050 -0.0088
 6796TIP3    H141803   6.016   1.670  15.718 -0.1557  1.0756 -0.8620
 6796TIP3    H241804   5.921   1.602  15.622 -0.1872 -1.1279  0.6569
 6797TIP3   OH241805   0.323   4.941   1.622  0.0485 -0.4467  0.3362
 6797TIP3    H141806   0.337   4.859   1.575  0.0463  0.3793 -1.1683
 6797TIP3    H241807   0.233   4.966   1.600  0.1847  0.1601  0.4401
 6798TIP3   OH241808   6.223   4.625  12.006 -0.0191  0.5349 -0.4597
 6798TIP3    H141809   6.152   4.562  12.020  0.6273 -0.1880 -0.4245
 6798TIP3    H241810   6.258   4.642  12.094  0.5776  0.0347 -0.5954
 6799TIP3   OH241811   4.798   0.268   0.823  0.1595  0.2483 -0.1236
 6799TIP3    H141812   4.883   0.240   0.788  1.4676  1.6956  1.6485
 6799TIP3    H241813   4.740   0.272   0.747  1.5676 -1.1158 -1.3355
 6800TIP3   OH241814   5.578   1.542  12.285  0.0031  0.0122  0.5032
 6800TIP3    H141815   5.497   1.538  12.232 -0.1444  2.7420  0.3873
 6800TIP3    H241816   5.632   1.471  12.250 -0.9188  0.3967 -1.9366
 6801TIP3   OH241817   1.781   1.275  11.770 -0.1523 -0.1784  0.0163
 6801TIP3    H141818   1.775   1.190  11.815  0.2645 -1.3029 -1.9617
 6801TIP3    H241819   1.785   1.339  11.841  0.8458 -1.8907  1.5887
 6802TIP3   OH241820   3.523   5.728   1.133  0.1241  0.5875  0.3483
 6802TIP3    H141821   3.545   5.787   1.062  0.4760 -1.6029 -1.4620
 6802TIP3    H241822   3.456   5.670   1.097 -0.5826  0.1468  2.2098
 6803TIP3   OH241823   1.004   3.617  13.668  0.1984  0.0891 -1.0236
 6803TIP3    H141824   0.970   3.672  13.739  0.4313 -1.6992  0.5590
 6803TIP3    H241825   1.076   3.667  13.631  0.1703  1.0123  0.1093
 6804TIP3   OH241826   2.408   5.422   0.116 -0.1209  0.0168  0.0557
 6804TIP3    H141827   2.370   5.471   0.188 -0.3644  2.0632 -1.3771
 6804TIP3    H241828   2.502   5.434   0.126 -0.1513  0.2547  0.0601
 6805TIP3   OH241829   6.610   0.572  17.274 -0.0030 -0.1406 -0.0330
 6805TIP3    H141830   6.657   0.656  17.269  0.8839 -0.5802  0.7092
 6805TIP3    H241831   6.637   0.525  17.195  0.4250 -0.1824  0.1307
 6806TIP3   OH241832   2.824   4.072  12.315  0.1464 -0.3468  0.5677
 6806TIP3    H141833   2.901   4.126  12.294 -0.3319 -0.4634 -1.6993
 6806TIP3    H241834   2.749   4.128  12.294 -0.3644 -1.8773 -2.1595
 6807TIP3   OH241835   1.702   0.979   5.676  0.0524 -0.1292  0.0888
 6807TIP3    H141836   1.779   0.963   5.729  0.0742 -1.3481 -0.2788
 6807TIP3    H241837   1.657   1.052   5.719  0.6931 -0.3103  1.0800
 6808TIP3   OH241838   6.089   2.455   1.405  0.7178 -0.0198  0.2045
 6808TIP3    H141839   6.150   2.385   1.378 -0.9621 -1.2029 -0.7020
 6808TIP3    H241840   6.086   2.514   1.329  0.5720 -0.0704  0.1716
 6809TIP3   OH241841   2.564   1.957  14.697  0.7628  0.5225  0.4979
 6809TIP3    H141842   2.535   1.866  14.703 -0.0717  0.6656 -0.8763
 6809TIP3    H241843   2.627   1.968  14.769  0.5209 -0.9960  0.9606
 6810TIP3   OH241844   5.739   2.392  13.404 -0.4659  0.0093  0.8705
 6810TIP3    H141845   5.657   2.359  13.440 -1.0596  0.2412 -0.2247
 6810TIP3    H241846   5.781   2.316  13.364  0.5446 -0.4064  2.6049
 6811TIP3   OH241847   6.062   4.075   6.288 -0.7788 -0.1101  0.5811
 6811TIP3    H141848   6.156   4.096   6.284 -0.3971 -1.0536  3.0748
 6811TIP3    H241849   6.056   3.987   6.251 -0.5746 -0.3475  1.1148
 6812TIP3   OH241850   4.366   2.851  14.380 -0.0388 -0.4070 -0.0905
 6812TIP3    H141851   4.342   2.775  14.433  3.0233 -0.0987  2.0138
 6812TIP3    H241852   4.431   2.897  14.433  0.2601  2.1826 -2.4905
 6813TIP3   OH241853   0.605   3.048   2.567  0.4831  0.0477 -0.2509
 6813TIP3    H141854   0.611   3.116   2.500  0.8942 -1.1659 -1.4962
 6813TIP3    H241855   0.532   2.993   2.539 -0.6697  0.6493  1.4270
 6814TIP3   OH241856   3.907   4.847  15.288  0.3195 -0.3251  0.7939
 6814TIP3    H141857   3.822   4.873  15.251  0.2139 -0.4585  0.9418
 6814TIP3    H241858   3.933   4.770  15.238  1.2150  0.7673 -0.4779
 6815TIP3   OH241859   5.789   0.792   1.595  0.3739  0.1744  0.7742
 6815TIP3    H141860   5.703   0.817   1.561  0.6966 -1.2139 -1.2384
 6815TIP3    H241861   5.780   0.699   1.617  1.2247  0.1315  0.9685
 6816TIP3   OH241862   4.159   4.367   5.270 -0.1207  0.0358  0.2565
 6816TIP3    H141863   4.154   4.422   5.348  0.0833 -1.2664  1.2303
 6816TIP3    H241864   4.247   4.330   5.273  0.1125  0.4526 -0.9551
 6817TIP3   OH241865   5.663   0.580  13.420 -0.6238 -0.1815 -0.3209
 6817TIP3    H141866   5.656   0.596  13.326  0.3274 -0.7537 -0.4971
 6817TIP3    H241867   5.699   0.492  13.427  1.7456  0.7674  0.5434
 6818TIP3   OH241868   2.105   6.027  13.191  0.4986  0.5262 -0.2966
 6818TIP3    H141869   2.200   6.038  13.194  0.3782  1.6022 -0.0739
 6818TIP3    H241870   2.090   5.935  13.215  1.6085 -0.3634 -2.7013
 6819TIP3   OH241871   2.192   1.808   4.378  0.5197 -0.2040 -0.2732
 6819TIP3    H141872   2.110   1.777   4.417  1.0010 -1.9172 -0.5235
 6819TIP3    H241873   2.257   1.743   4.405  1.3684 -0.0306 -1.7759
 6820TIP3   OH241874   3.608   4.067   1.783 -0.4061 -0.1492 -0.1710
 6820TIP3    H141875   3.587   4.008   1.711 -0.5550 -0.3136  0.0052
 6820TIP3    H241876   3.597   4.013   1.862 -0.2414  0.0277 -0.0264
 6821TIP3   OH241877   4.577   4.861  11.502  0.2565  0.3004  0.4188
 6821TIP3    H141878   4.551   4.922  11.434  1.1399  0.2369  0.0161
 6821TIP3    H241879   4.618   4.915  11.570  1.0303  0.1762  0.0668
 6822TIP3   OH241880   3.185   4.008  14.591 -0.0769 -0.2430  0.5785
 6822TIP3    H141881   3.262   3.991  14.536 -0.5436  1.4357 -0.7086
 6822TIP3    H241882   3.149   3.921  14.608  0.7292 -0.9146 -0.8568
 6823TIP3   OH241883   3.470   0.535  14.776 -0.1586  0.2235  0.1849
 6823TIP3    H141884   3.379   0.511  14.757  0.2958 -1.6354  0.0751
 6823TIP3    H241885   3.521   0.476  14.721  1.1156  0.7957  0.7320
 6824TIP3   OH241886   4.901   5.213  14.897  0.1846 -0.1295  0.2207
 6824TIP3    H141887   4.839   5.247  14.833  0.1462 -0.4508  0.0841
 6824TIP3    H241888   4.850   5.151  14.949 -0.3037  1.5463  1.8445
 6825TIP3   OH241889   1.182   6.349  11.827 -0.7696 -0.1205 -0.3251
 6825TIP3    H141890   1.250   6.366  11.762 -0.0926 -0.8331  0.1814
 6825TIP3    H241891   1.191   6.421  11.890 -0.4262 -0.2516 -0.2206
 6826TIP3   OH241892   6.186   2.578  12.550  0.4452 -0.3647 -0.2724
 6826TIP3    H141893   6.199   2.534  12.634  0.4974 -0.8089 -0.5125
 6826TIP3    H241894   6.210   2.513  12.484 -3.5595 -1.5519 -0.8341
 6827TIP3   OH241895   6.340   1.314  13.042  0.3518 -0.2694  0.4755
 6827TIP3    H141896   6.251   1.282  13.034  0.1717 -0.0794  1.5498
 6827TIP3    H241897   6.333   1.392  13.096  1.1384 -0.0958  0.3482
 6828TIP3   OH241898   4.114   1.656  13.090 -0.1160  0.7241 -0.2974
 6828TIP3    H141899   4.115   1.583  13.152  1.2325 -1.0461 -2.2411
 6828TIP3    H241900   4.201   1.696  13.099 -0.1663  0.8890 -0.5351
 6829TIP3   OH241901   1.872   6.672  16.673 -0.0383  0.2305  0.1864
 6829TIP3    H141902   1.952   6.703  16.631 -0.9507  1.3478 -0.8058
 6829TIP3    H241903   1.815   6.647  16.600 -1.4151  1.5673  0.7529
 6830TIP3   OH241904   5.751   5.969   2.191  0.5040  0.1331 -0.1347
 6830TIP3    H141905   5.810   5.908   2.148  1.1898  1.6976 -1.5454
 6830TIP3    H241906   5.757   6.049   2.138  0.1726  1.6563  2.0126
 6831TIP3   OH241907   0.446   6.074   4.920 -0.1331 -0.4044 -1.0259
 6831TIP3    H141908   0.351   6.066   4.921 -0.1378 -1.1088  1.8149
 6831TIP3    H241909   0.474   6.015   4.850 -1.6964 -2.0570 -0.3341
 6832TIP3   OH241910   6.694   5.548  14.176  0.0797  0.5073  0.2272
 6832TIP3    H141911   6.645   5.465  14.180 -0.9006  0.9617 -1.2122
 6832TIP3    H241912   6.661   5.599  14.249 -0.6388  0.2894  0.0664
 6833TIP3   OH241913   1.900   6.615   5.876  0.3729 -0.7797  0.8271
 6833TIP3    H141914   1.836   6.686   5.878  2.9602  1.9620 -1.9385
 6833TIP3    H241915   1.977   6.652   5.920  2.0751 -1.4294 -1.4244
 6834TIP3   OH241916   1.951   4.663  13.051  0.0700 -0.0243 -0.1897
 6834TIP3    H141917   1.957   4.660  13.147 -0.6048 -0.2056 -0.1474
 6834TIP3    H241918   2.017   4.601  13.021  0.9625  0.7546  0.1261
 6835TIP3   OH241919   5.450   0.379   3.935  0.8533 -0.0367  0.0369
 6835TIP3    H141920   5.440   0.445   3.867 -0.4002 -0.7027 -0.4558
 6835TIP3    H241921   5.544   0.380   3.957  1.0609  1.0036 -0.8486
 6836TIP3   OH241922   5.216   5.931  14.953  0.6233 -0.4664 -0.0250
 6836TIP3    H141923   5.237   5.861  15.016  0.5003 -0.6711 -0.2085
 6836TIP3    H241924   5.278   5.918  14.881  1.7248  0.6522  0.7005
 6837TIP3   OH241925   1.184   5.560   4.448  0.2899  0.5105  0.1858
 6837TIP3    H141926   1.246   5.610   4.396  0.7465 -0.7412 -0.4980
 6837TIP3    H241927   1.237   5.493   4.492 -0.2027  1.0313  1.6494
 6838TIP3   OH241928   0.031   6.234  16.452  0.0882 -0.1414 -0.3573
 6838TIP3    H141929   0.071   6.165  16.399  2.3133 -0.4375  1.5171
 6838TIP3    H241930   0.002   6.190  16.532  0.7080  0.8981  0.4829
 6839TIP3   OH241931   2.866   0.984  16.267  0.2585 -0.1304 -0.0935
 6839TIP3    H141932   2.840   1.027  16.348 -0.8258  0.4799 -0.7382
 6839TIP3    H241933   2.842   0.893  16.279  0.5985 -0.1508  0.4651
 6840TIP3   OH241934   4.943   2.623  14.373  0.4256  0.6015  0.1649
 6840TIP3    H141935   4.999   2.637  14.450  1.7306 -0.0230 -0.6200
 6840TIP3    H241936   4.916   2.532  14.379 -1.5588  1.2178  1.1707
 6841TIP3   OH241937   0.403   1.652  15.043  0.0146 -0.2110 -0.2218
 6841TIP3    H141938   0.493   1.621  15.036  0.9415  2.2819 -0.4883
 6841TIP3    H241939   0.394   1.715  14.972 -1.4116  0.7694  0.7694
 6842TIP3   OH241940   5.292   3.030  10.961  0.7551  0.1813 -0.7012
 6842TIP3    H141941   5.199   3.039  10.940  0.3766 -1.1972  0.3033
 6842TIP3    H241942   5.315   2.941  10.936  1.0877 -0.4396  1.6182
 6843TIP3   OH241943   2.613   6.483   3.771 -0.1448 -0.1314  0.3729
 6843TIP3    H141944   2.608   6.405   3.826 -1.8770 -0.0535  0.3834
 6843TIP3    H241945   2.541   6.538   3.801 -0.5745  0.3101 -1.3545
 6844TIP3   OH241946   2.782   0.903  12.698  0.3815 -0.1968 -0.3904
 6844TIP3    H141947   2.848   0.885  12.631  0.9719 -1.2614  0.4338
 6844TIP3    H241948   2.733   0.978  12.665  0.7929 -0.5585 -1.9099
 6845TIP3   OH241949   4.793   0.456   1.395 -0.4918  0.0569 -0.6444
 6845TIP3    H141950   4.884   0.480   1.412 -0.0037 -0.7316 -1.9301
 6845TIP3    H241951   4.748   0.540   1.383  0.4601  0.4501 -1.7331
 6846TIP3   OH241952   6.445   4.781   5.209  0.0498  0.1485  0.1524
 6846TIP3    H141953   6.531   4.760   5.246 -0.2145 -1.3282 -0.0253
 6846TIP3    H241954   6.395   4.815   5.283  0.5995  0.4825  0.3793
 6847TIP3   OH241955   4.636   2.820  12.281 -0.3210  0.3174 -0.0119
 6847TIP3    H141956   4.652   2.752  12.346 -1.0496  0.5384  0.4023
 6847TIP3    H241957   4.559   2.790  12.233 -0.4202  0.6653 -0.0778
 6848TIP3   OH241958   1.823   0.442   4.546 -0.1487 -0.5434  0.4642
 6848TIP3    H141959   1.882   0.514   4.524 -0.1532 -0.1478  1.6675
 6848TIP3    H241960   1.797   0.459   4.637 -2.0330 -0.7469  0.0201
 6849TIP3   OH241961   1.891   4.627  11.093 -0.0442  0.0308 -0.0135
 6849TIP3    H141962   1.970   4.649  11.141 -1.5900  0.2847  2.5817
 6849TIP3    H241963   1.899   4.534  11.073  0.4327 -0.1922  1.1774
 6850TIP3   OH241964   2.324   0.142  14.883 -0.1322  0.2195  0.3751
 6850TIP3    H141965   2.386   0.096  14.939  0.2865  1.7230  1.1971
 6850TIP3    H241966   2.318   0.230  14.920 -0.7867  0.8959 -1.2246
 6851TIP3   OH241967   1.878   6.258  14.147 -0.7868 -0.4160 -0.1896
 6851TIP3    H141968   1.950   6.271  14.208  0.1915 -0.5913 -1.2792
 6851TIP3    H241969   1.870   6.341  14.101  0.2445 -1.0928 -1.6480
 6852TIP3   OH241970   0.945   4.614   5.051 -0.0664  0.0900  0.1254
 6852TIP3    H141971   0.900   4.675   5.110 -1.3649 -0.1036 -0.6067
 6852TIP3    H241972   0.915   4.528   5.078 -0.2169 -0.0384 -0.4397
 6853TIP3   OH241973   4.567   2.256  13.770 -0.1388 -0.3285 -0.1737
 6853TIP3    H141974   4.659   2.260  13.795 -0.4968 -0.7602  1.3586
 6853TIP3    H241975   4.564   2.194  13.697  0.9037  0.5349 -0.9689
 6854TIP3   OH241976   5.808   6.352  14.700 -0.1036 -0.1152  0.1354
 6854TIP3    H141977   5.760   6.269  14.697 -0.5636  0.1707 -1.4353
 6854TIP3    H241978   5.740   6.419  14.698  0.2614  0.3104 -3.0133
 6855TIP3   OH241979   4.196   6.585   0.201  0.1059  0.2321  0.2390
 6855TIP3    H141980   4.125   6.608   0.261  1.0212  0.3840  1.2980
 6855TIP3    H241981   4.151   6.557   0.121 -1.2513 -1.9263  1.6349
 6856TIP3   OH241982   5.187   1.627  10.995 -0.0907  0.4574 -0.0621
 6856TIP3    H141983   5.222   1.597  10.912 -1.5046 -0.4464 -0.3638
 6856TIP3    H241984   5.217   1.718  11.002  1.4679  0.0242 -0.7174
 6857TIP3   OH241985   3.609   0.869   4.999  0.2788 -0.4922 -0.0100
 6857TIP3    H141986   3.546   0.938   5.022  0.7878  0.0958 -0.3697
 6857TIP3    H241987   3.554   0.794   4.974 -0.2976 -0.6856  1.6836
 6858TIP3   OH241988   4.454   0.061   4.762 -0.1001  0.2365  0.5841
 6858TIP3    H141989   4.362   0.067   4.736  0.1808  0.8474 -0.3335
 6858TIP3    H241990   4.494   0.140   4.726  0.9244 -0.3591  0.3782
 6859TIP3   OH241991   5.862   2.417  11.085  0.0526 -0.5740  0.5049
 6859TIP3    H141992   5.835   2.325  11.094  0.7524 -0.8445 -0.0877
 6859TIP3    H241993   5.807   2.452  11.015 -0.8345 -0.2794  1.3204
 6860TIP3   OH241994   2.853   4.700   2.769 -0.0983 -0.3520 -0.7834
 6860TIP3    H141995   2.836   4.651   2.689  0.2056  0.2474 -1.2121
 6860TIP3    H241996   2.792   4.774   2.766 -0.6515 -0.7605 -0.0705
 6861TIP3   OH241997   4.240   5.024  11.416 -0.7247  0.2884  0.7450
 6861TIP3    H141998   4.231   4.930  11.399  0.1594  0.2508  0.4297
 6861TIP3    H241999   4.333   5.042  11.402 -1.0330  1.3775  0.0194
 6862TIP3   OH242000   0.067   0.495   3.802 -0.4156 -0.9544 -0.1142
 6862TIP3    H142001   0.089   0.444   3.724  0.0548  1.2912 -1.5595
 6862TIP3    H242002  -0.007   0.549   3.776 -0.9093 -0.8760  1.3489
 6863TIP3   OH242003   6.565   5.412  11.602  0.2391  0.0379  0.8270
 6863TIP3    H142004   6.496   5.350  11.577 -0.1623  1.0660 -0.7639
 6863TIP3    H242005   6.542   5.493  11.556  1.8723  0.7543  1.2133
 6864TIP3   OH242006   4.089   4.673   2.697 -0.1482  0.2160  0.2746
 6864TIP3    H142007   4.032   4.746   2.670  0.0618 -0.0365 -0.9217
 6864TIP3    H242008   4.089   4.614   2.621  0.9034 -0.2772  0.6489
 6865TIP3   OH242009   1.348   1.502   3.456  0.1859 -0.0155 -0.6991
 6865TIP3    H142010   1.397   1.583   3.440 -1.0698  1.0149  0.4091
 6865TIP3    H242011   1.347   1.494   3.552  0.5808 -1.5453 -0.8022
 6866TIP3   OH242012   2.707   3.256  15.765 -0.6226 -0.2335 -0.2065
 6866TIP3    H142013   2.629   3.227  15.718  0.3723 -0.8632 -1.5314
 6866TIP3    H242014   2.780   3.217  15.717  0.6111  1.6143  0.0408
 6867TIP3   OH242015   2.289   1.309  16.633  0.2421 -0.0021  0.1622
 6867TIP3    H142016   2.215   1.364  16.606 -1.0868 -0.9294  1.7373
 6867TIP3    H242017   2.336   1.363  16.698  0.4825  0.2608 -0.2231
 6868TIP3   OH242018   0.718   4.346  10.660 -0.1478  0.0122  0.2326
 6868TIP3    H142019   0.774   4.300  10.722  3.8448  0.9356 -2.2820
 6868TIP3    H242020   0.691   4.278  10.597  2.9192  0.2618 -1.5653
 6869TIP3   OH242021   1.215   3.171   6.173  0.0901 -0.1138 -0.3517
 6869TIP3    H142022   1.199   3.080   6.198  1.5818 -0.4585 -0.5801
 6869TIP3    H242023   1.289   3.198   6.227 -1.4787  1.5835  1.0667
 6870TIP3   OH242024   2.541   2.091  16.748 -0.3247 -0.2342  0.1692
 6870TIP3    H142025   2.509   2.108  16.659 -0.9364 -0.8348  0.2645
 6870TIP3    H242026   2.544   1.995  16.755 -0.0257 -0.1929  0.7085
 6871TIP3   OH242027   4.394   0.908  11.732 -0.5800 -0.1087  0.3288
 6871TIP3    H142028   4.300   0.921  11.719 -0.2048  2.7085 -0.3145
 6871TIP3    H242029   4.428   0.997  11.746  2.0525 -0.9970  0.0386
 6872TIP3   OH242030   3.458   6.556   2.438 -0.3221 -0.0637  0.5695
 6872TIP3    H142031   3.479   6.546   2.531 -1.1129  2.5688  1.1143
 6872TIP3    H242032   3.362   6.556   2.435 -0.3034  0.3189 -0.1846
 6873TIP3   OH242033   5.352   0.627   3.417  0.9168 -0.1785  0.1313
 6873TIP3    H142034   5.405   0.687   3.469  0.8842 -0.0030 -0.0384
 6873TIP3    H242035   5.392   0.541   3.431  1.3834 -0.0126 -0.1750
 6874TIP3   OH242036   4.155   1.536  17.122  0.1090 -0.0149  0.8060
 6874TIP3    H142037   4.241   1.502  17.097  0.0160  0.0906  0.3189
 6874TIP3    H242038   4.161   1.631  17.106 -0.7273 -0.2330 -1.2327
 6875TIP3   OH242039   5.791   2.336   5.727 -0.4318 -0.3385 -0.1252
 6875TIP3    H142040   5.783   2.281   5.649 -0.0206  0.6915 -0.9244
 6875TIP3    H242041   5.816   2.422   5.693  0.4661 -0.0384  1.1979
 6876TIP3   OH242042   1.400   2.382  16.410 -0.5105  0.2867 -0.0395
 6876TIP3    H142043   1.490   2.415  16.413 -0.7534  1.0741 -0.6750
 6876TIP3    H242044   1.347   2.457  16.435 -0.9273 -0.6446  2.0265
 6877TIP3   OH242045   1.472   6.176   0.253 -0.1976 -0.4854  0.0926
 6877TIP3    H142046   1.488   6.250   0.312 -1.4476  0.3794 -0.6058
 6877TIP3    H242047   1.378   6.159   0.261  0.0733 -2.0348  0.2630
 6878TIP3   OH242048   0.484   5.097   0.734  0.0157  0.4080  0.1963
 6878TIP3    H142049   0.493   5.110   0.640  1.2709 -0.9462  0.0946
 6878TIP3    H242050   0.487   5.002   0.745  0.1535  0.5613  1.6334
 6879TIP3   OH242051   5.919   2.735   2.903  0.3969 -0.7323 -0.8831
 6879TIP3    H142052   5.990   2.743   2.840  1.8715  0.4373  0.8014
 6879TIP3    H242053   5.914   2.821   2.944 -0.3664 -1.4842  0.6917
 6880TIP3   OH242054   0.003   3.675  14.654  0.4634  0.5609  0.8624
 6880TIP3    H142055  -0.008   3.587  14.689 -2.2523  0.4473 -0.0619
 6880TIP3    H242056  -0.010   3.733  14.729 -0.3522  0.2162  0.9895
 6881TIP3   OH242057   1.898   1.284   5.494 -0.8996  0.3480 -0.3563
 6881TIP3    H142058   1.954   1.345   5.543 -0.5241 -0.8573  0.7719
 6881TIP3    H242059   1.811   1.297   5.533 -0.9995  0.7571 -0.7052
 6882TIP3   OH242060   4.753   5.869   3.675 -0.4272 -0.6146  0.2615
 6882TIP3    H142061   4.685   5.936   3.669  0.9977  0.8172 -0.5798
 6882TIP3    H242062   4.805   5.894   3.752 -0.3708 -1.2288  0.4279
 6883TIP3   OH242063   2.302   4.613  13.053 -0.2154 -0.0379  0.0656
 6883TIP3    H142064   2.270   4.584  12.968  1.1054  1.1097 -0.8755
 6883TIP3    H242065   2.378   4.558  13.070 -1.9083 -2.0334  1.7933
 6884TIP3   OH242066   5.978   5.817  15.433 -0.1412 -0.1782 -0.0589
 6884TIP3    H142067   5.955   5.897  15.385  1.7763  0.3492 -0.1783
 6884TIP3    H242068   5.966   5.840  15.525 -2.3482 -0.7070 -0.1599
 6885TIP3   OH242069   3.543   4.369  12.908  0.6062 -0.1388  0.1228
 6885TIP3    H142070   3.473   4.327  12.958  0.5677 -0.1026  0.0999
 6885TIP3    H242071   3.543   4.323  12.824  0.0602  0.4043 -0.1861
 6886TIP3   OH242072   5.729   4.093   1.405 -0.3676  0.1070 -0.4244
 6886TIP3    H142073   5.645   4.138   1.400 -1.4193 -1.3842  2.1931
 6886TIP3    H242074   5.742   4.056   1.317 -1.3061  2.1904 -1.5085
 6887TIP3   OH242075   2.929   0.711  17.376 -0.4539 -0.3772 -0.2334
 6887TIP3    H142076   2.868   0.779  17.405 -2.3293 -1.6860 -0.9005
 6887TIP3    H242077   2.880   0.661  17.312  1.0875 -1.9936 -0.2270
 6888TIP3   OH242078   1.437   0.689  10.960  0.3172  0.5110  0.2161
 6888TIP3    H142079   1.380   0.664  11.034  0.1155 -1.0376 -0.4126
 6888TIP3    H242080   1.382   0.743  10.905 -0.6214 -1.0015 -0.4011
 6889TIP3   OH242081   3.276   0.462  12.348  0.3094  0.2570  0.3934
 6889TIP3    H142082   3.332   0.459  12.270 -0.3701 -0.9586 -0.0707
 6889TIP3    H242083   3.222   0.383  12.342 -0.6468  0.8033  1.4418
 6890TIP3   OH242084   2.960   1.404  16.518  0.1534 -0.0332 -0.3538
 6890TIP3    H142085   2.979   1.479  16.574  1.5916  0.7339 -1.7762
 6890TIP3    H242086   2.873   1.423  16.482  0.3259  0.7525 -0.3839
 6891TIP3   OH242087   0.812   0.697  12.344 -0.3835 -0.0650  0.3163
 6891TIP3    H142088   0.779   0.632  12.283  1.1214 -0.1537 -0.4643
 6891TIP3    H242089   0.907   0.682  12.345 -0.3515 -0.0279  2.6381
 6892TIP3   OH242090   6.220   2.653  15.499 -0.0871  0.2676  0.4191
 6892TIP3    H142091   6.160   2.714  15.455  0.7747  1.4942  0.8825
 6892TIP3    H242092   6.304   2.665  15.454 -0.1466 -1.4313 -0.2253
 6893TIP3   OH242093   4.428   6.640  16.613 -0.9552 -0.1188 -0.7742
 6893TIP3    H142094   4.378   6.562  16.636 -0.7894 -0.7215 -2.3417
 6893TIP3    H242095   4.413   6.652  16.520  0.5899  0.5674 -0.9759
 6894TIP3   OH242096   0.265   1.633   3.314 -0.3523 -0.0491  0.4224
 6894TIP3    H142097   0.184   1.678   3.291  0.0728  0.8885  0.7154
 6894TIP3    H242098   0.326   1.703   3.338  0.9508 -0.6084 -1.0142
 6895TIP3   OH242099   2.912   0.751  10.960  0.1115 -0.3206 -0.3387
 6895TIP3    H142100   2.971   0.827  10.956  2.5271 -2.1055 -0.7114
 6895TIP3    H242101   2.858   0.758  10.882  0.2229  1.0630 -0.3117
 6896TIP3   OH242102   4.065   0.825  11.993  0.5937 -0.5024  0.3014
 6896TIP3    H142103   3.992   0.822  12.055 -0.5445 -1.5343 -1.0038
 6896TIP3    H242104   4.063   0.914  11.957  0.1421 -0.4366  0.4815
 6897TIP3   OH242105   6.721   0.392  12.964 -0.3812 -0.1425 -1.2837
 6897TIP3    H142106   6.640   0.380  12.916 -1.6011  1.7670  0.1467
 6897TIP3    H242107   6.736   0.487  12.962 -0.3276  0.0013  1.7048
 6898TIP3   OH242108   5.190   4.233   1.247  0.6419  0.5940 -0.2685
 6898TIP3    H142109   5.208   4.326   1.255  0.0306  0.6157  1.0866
 6898TIP3    H242110   5.169   4.221   1.154  2.6619  1.4191 -0.8823
 6899TIP3   OH242111   0.691   0.873  16.357 -0.6890 -0.3477  0.9537
 6899TIP3    H142112   0.706   0.882  16.451  0.6805  0.1335  0.7014
 6899TIP3    H242113   0.604   0.833  16.351 -0.9016 -0.1635  2.4118
 6900TIP3   OH242114   5.307   5.855  13.427 -0.2494 -0.3303  0.2398
 6900TIP3    H142115   5.397   5.825  13.433 -0.2293 -0.1569  0.9059
 6900TIP3    H242116   5.312   5.935  13.374 -0.2887 -1.4004 -1.4127
 6901TIP3   OH242117   3.499   2.623   1.761  0.3048 -0.6819 -0.4721
 6901TIP3    H142118   3.445   2.647   1.686 -0.9784  1.5572  1.0526
 6901TIP3    H242119   3.589   2.625   1.728 -0.1628  1.1754 -1.7301
 6902TIP3   OH242120   1.724   3.848  12.368  0.0059  0.0041  0.0150
 6902TIP3    H142121   1.812   3.885  12.376 -0.2301  0.7610 -0.6732
 6902TIP3    H242122   1.667   3.911  12.413 -0.0494 -1.1138  1.5434
 6903TIP3   OH242123   4.109   2.875   1.422 -0.0959 -0.3473 -0.2250
 6903TIP3    H142124   4.036   2.935   1.434  0.4514 -0.0450  1.9383
 6903TIP3    H242125   4.186   2.931   1.417  0.2480 -0.7794  0.1197
 6904TIP3   OH242126   3.841   2.477  11.813 -0.3077 -0.0228 -0.2969
 6904TIP3    H142127   3.862   2.568  11.791  1.0090 -0.3605 -0.5661
 6904TIP3    H242128   3.808   2.481  11.903 -0.3019  0.7357 -0.3237
 6905TIP3   OH242129   4.963   3.901  14.905  0.6864 -0.0554  0.2378
 6905TIP3    H142130   4.924   3.954  14.975  1.3509  1.1435 -0.2748
 6905TIP3    H242131   5.051   3.881  14.936  0.6725 -0.2916  0.1276
 6906TIP3   OH242132   1.521   0.450  15.472  0.1282  0.2906 -0.4039
 6906TIP3    H142133   1.532   0.471  15.379 -0.3896 -1.0040 -0.7839
 6906TIP3    H242134   1.587   0.382  15.489  2.8719  3.1087  1.1912
 6907TIP3   OH242135   4.493   5.932   2.231  0.0842 -0.1374  0.4215
 6907TIP3    H142136   4.557   5.951   2.299  0.0730 -1.2825  0.7806
 6907TIP3    H242137   4.442   5.858   2.265  2.4785 -3.3609 -2.2467
 6908TIP3   OH242138   1.079   3.243  16.741  0.0894 -0.3691  0.3383
 6908TIP3    H142139   1.066   3.207  16.829  1.2210  1.6788  1.4014
 6908TIP3    H242140   1.164   3.209  16.713 -0.1467 -0.7996  0.1308
 6909TIP3   OH242141   2.214   6.318   5.955 -0.5421  0.0899 -0.6661
 6909TIP3    H142142   2.288   6.262   5.931 -0.7563  0.0958 -1.3551
 6909TIP3    H242143   2.154   6.260   6.001  0.5958  0.4294  1.3564
 6910TIP3   OH242144   5.846   6.624  11.651  0.4216 -0.4208  0.7836
 6910TIP3    H142145   5.771   6.638  11.593  1.9095  0.4846 -1.0539
 6910TIP3    H242146   5.876   6.535  11.631  0.5602 -0.3331  0.5902
 6911TIP3   OH242147   3.122   1.544  13.579  0.2351  0.3181 -0.3472
 6911TIP3    H142148   3.042   1.596  13.574 -0.8129 -1.1300  0.4185
 6911TIP3    H242149   3.191   1.607  13.597 -1.1158  1.3502  1.6242
 6912TIP3   OH242150   2.162   4.736   4.504  0.4618 -0.1819  0.0206
 6912TIP3    H142151   2.218   4.676   4.553 -1.0855  0.7012  3.1326
 6912TIP3    H242152   2.073   4.702   4.516 -0.0658  0.3807 -1.8485
 6913TIP3   OH242153   1.291   1.179  12.966  0.1188  0.1708  0.3692
 6913TIP3    H142154   1.322   1.198  12.878 -0.9609 -1.5418 -0.4243
 6913TIP3    H242155   1.370   1.156  13.015  0.6924  0.8928 -0.1893
 6914TIP3   OH242156   2.290   4.475  13.728 -0.1882  0.0675 -0.4317
 6914TIP3    H142157   2.357   4.525  13.774 -0.7911  0.2933  0.2300
 6914TIP3    H242158   2.322   4.468  13.638  1.0195 -0.3909  0.0272
 6915TIP3   OH242159   5.273   0.331  12.560  0.5020  0.1729  0.2238
 6915TIP3    H142160   5.352   0.346  12.507  1.3076 -0.4988  1.1969
 6915TIP3    H242161   5.288   0.246  12.601 -2.0577 -1.4635 -1.8683
 6916TIP3   OH242162   0.085   5.884   0.856 -0.2649 -0.3566 -0.1540
 6916TIP3    H142163   0.114   5.952   0.795 -0.9106 -1.0359 -1.2612
 6916TIP3    H242164   0.092   5.802   0.806 -0.2421 -1.0083  0.8874
 6917TIP3   OH242165   4.419   1.392  14.050  0.1921 -0.0819  0.0316
 6917TIP3    H142166   4.391   1.483  14.063  0.5205  0.0296 -0.0247
 6917TIP3    H242167   4.505   1.387  14.093  1.2069  0.2237 -1.8340
 6918TIP3   OH242168   3.874   5.227  12.553 -0.0792 -0.0151  0.1517
 6918TIP3    H142169   3.958   5.236  12.510 -0.9356 -0.5363 -1.7475
 6918TIP3    H242170   3.894   5.225  12.647  1.8015  1.8103 -0.1504
 6919TIP3   OH242171   4.127   6.125   1.178  0.0770 -0.3194 -0.4093
 6919TIP3    H142172   4.152   6.096   1.266  1.1161  0.5247 -0.4061
 6919TIP3    H242173   4.199   6.182   1.151 -1.5302  1.6900 -0.6901
 6920TIP3   OH242174   0.893   4.046  13.482 -0.3292  0.6717  0.0537
 6920TIP3    H142175   0.831   4.065  13.553 -0.5562  0.8341 -0.1841
 6920TIP3    H242176   0.956   4.118  13.486 -0.8309  1.1490 -0.4468
 6921TIP3   OH242177   3.686   3.634   0.453  0.3180  0.0214  0.4407
 6921TIP3    H142178   3.674   3.643   0.358 -1.1574 -0.2363  0.5705
 6921TIP3    H242179   3.750   3.701   0.476  1.7967 -0.8604 -0.9371
 6922TIP3   OH242180   6.520   6.360  16.314  0.6075 -0.7652 -0.4276
 6922TIP3    H142181   6.615   6.368  16.302  0.7263  3.6710  1.8515
 6922TIP3    H242182   6.508   6.348  16.408 -1.1531 -1.9282 -0.7420
 6923TIP3   OH242183   2.140   4.018   5.907  0.4898  0.0504 -0.7148
 6923TIP3    H142184   2.102   4.062   5.831  0.1501 -0.6580 -0.9649
 6923TIP3    H242185   2.072   4.023   5.974 -0.3881 -1.8582 -1.3929
 6924TIP3   OH242186   5.577   3.377  16.043 -0.4387 -0.3707  0.5348
 6924TIP3    H142187   5.557   3.470  16.057  1.3548  0.0971  0.1478
 6924TIP3    H242188   5.531   3.354  15.962 -3.5493 -0.7428  2.2259
 6925TIP3   OH242189   2.994   5.881  14.508 -0.2325  0.1738  0.3163
 6925TIP3    H142190   2.978   5.967  14.547  0.7214  0.2965  0.4724
 6925TIP3    H242191   3.053   5.838  14.570  0.4739 -0.0209 -0.4782
 6926TIP3   OH242192   3.733   5.421   5.700  0.1185  0.4086  0.7755
 6926TIP3    H142193   3.642   5.445   5.683 -0.1564 -0.7091  0.5575
 6926TIP3    H242194   3.775   5.502   5.729 -0.7291  1.1302  0.0337
 6927TIP3   OH242195   1.321   5.239   1.068  0.0210 -0.1557  0.0498
 6927TIP3    H142196   1.327   5.319   1.017 -0.8474 -0.0605  0.0873
 6927TIP3    H242197   1.324   5.169   1.003 -2.1949 -0.0135 -0.2758
 6928TIP3   OH242198   2.312   2.820   4.684  0.4910 -0.6942 -0.1402
 6928TIP3    H142199   2.345   2.746   4.632 -0.2508  0.9399 -3.1908
 6928TIP3    H242200   2.391   2.862   4.719  1.3382 -0.2116 -2.4394
 6929TIP3   OH242201   0.120   2.852   2.804 -0.2731 -0.1425  0.4308
 6929TIP3    H142202   0.158   2.827   2.888  1.0789 -2.0710 -0.6811
 6929TIP3    H242203   0.067   2.777   2.777  0.3429 -0.1076 -0.9962
 6930TIP3   OH242204   5.360   0.782   1.376  0.1744  0.0569  0.1739
 6930TIP3    H142205   5.419   0.849   1.342  0.9487  0.0622  1.4853
 6930TIP3    H242206   5.290   0.776   1.310 -0.0150  2.2636  0.0997
 6931TIP3   OH242207   0.142   0.124   4.890 -0.3372 -0.0463 -0.0137
 6931TIP3    H142208   0.140   0.214   4.923 -1.9333  0.0425 -0.2426
 6931TIP3    H242209   0.204   0.078   4.947 -2.0365  0.4040  2.3829
 6932TIP3   OH242210   3.001   4.190  14.455 -0.1121  0.0481  0.1854
 6932TIP3    H142211   3.055   4.133  14.509  0.5295  0.7441  0.2834
 6932TIP3    H242212   2.911   4.160  14.472 -0.1976  1.6265  3.3976
 6933TIP3   OH242213   4.760   2.612   5.276 -0.0609  0.5054  0.4942
 6933TIP3    H142214   4.709   2.555   5.218  1.0614 -0.6139  0.5601
 6933TIP3    H242215   4.851   2.586   5.261  0.3879  1.4712  1.4099
 6934TIP3   OH242216   3.832   4.294  17.003 -0.3717 -0.7726 -0.1573
 6934TIP3    H142217   3.751   4.307  16.954 -1.0446 -0.9601  0.8852
 6934TIP3    H242218   3.869   4.381  17.013 -0.2766 -0.7192 -0.8866
 6935TIP3   OH242219   3.687   6.749   1.289  0.0785  0.2225  0.8745
 6935TIP3    H142220   3.749   6.676   1.294  1.0267  1.0668  2.6768
 6935TIP3    H242221   3.652   6.757   1.378 -0.5862  1.4778  0.5314
 6936TIP3   OH242222   2.205   0.542  15.798 -0.4223  0.3402  0.3137
 6936TIP3    H142223   2.189   0.636  15.789 -2.6397 -0.0089 -0.1284
 6936TIP3    H242224   2.209   0.509  15.708 -4.9109 -0.6277  0.2181
 6937TIP3   OH242225   4.982   1.528  13.390 -0.7456 -0.3109  0.5680
 6937TIP3    H142226   5.006   1.436  13.395 -1.2016 -0.6015 -1.5324
 6937TIP3    H242227   4.887   1.529  13.389 -0.8235 -0.1715 -2.5364
 6938TIP3   OH242228   3.178   1.566   3.317  0.1737 -0.2692  0.1165
 6938TIP3    H142229   3.164   1.517   3.398  1.4215 -0.1456  0.4286
 6938TIP3    H242230   3.273   1.571   3.307  0.2107 -3.3984 -3.2645
 6939TIP3   OH242231   6.186   0.062  15.165 -0.8292  0.2935  0.2772
 6939TIP3    H142232   6.246   0.119  15.215 -2.1417  1.6596  0.3622
 6939TIP3    H242233   6.195  -0.024  15.207  2.8123 -0.2481 -1.1999
 6940TIP3   OH242234   6.503   1.446   4.292  0.0444 -0.8275 -0.2950
 6940TIP3    H142235   6.495   1.527   4.241 -4.1118 -1.2127 -0.5531
 6940TIP3    H242236   6.520   1.379   4.226  5.3606 -0.2505  0.0580
 6941TIP3   OH242237   4.773   0.664  16.588 -0.4932 -0.2469 -0.3130
 6941TIP3    H142238   4.720   0.618  16.653  2.4145 -0.7490  1.9124
 6941TIP3    H242239   4.768   0.609  16.510 -1.5124 -1.3707  0.5011
 6942TIP3   OH242240   2.793   6.616   0.896 -0.5150  0.0677  0.1287
 6942TIP3    H142241   2.815   6.679   0.965 -1.1328 -0.5636  0.9188
 6942TIP3    H242242   2.877   6.594   0.856 -0.1900  0.6952  0.4446
 6943TIP3   OH242243   3.292   4.032  13.394  0.0421 -0.2082  0.4031
 6943TIP3    H142244   3.208   4.008  13.355  0.3390  1.9969 -1.8663
 6943TIP3    H242245   3.354   3.968  13.359 -0.4631 -1.1994  1.2524
 6944TIP3   OH242246   1.556   3.204   3.633 -0.0789  0.0696 -0.2867
 6944TIP3    H142247   1.627   3.239   3.579  0.4538  1.0315  0.9858
 6944TIP3    H242248   1.535   3.120   3.593  0.3357  0.7165 -1.9369
 6945TIP3   OH242249   0.284   4.555  13.293  0.3285 -0.1087  0.4280
 6945TIP3    H142250   0.218   4.580  13.358 -0.4137 -2.9878  0.9236
 6945TIP3    H242251   0.367   4.555  13.341  0.3226  1.1345  0.4506
 6946TIP3   OH242252   1.417   0.668   5.082  0.1139 -0.1148  0.3340
 6946TIP3    H142253   1.480   0.706   5.020  0.4521  1.9387  1.8095
 6946TIP3    H242254   1.471   0.620   5.144 -0.0650 -0.7509  0.0027
 6947TIP3   OH242255   0.934   2.507  13.973  0.2558  0.1295  0.4664
 6947TIP3    H142256   0.861   2.567  13.991 -0.3318 -0.3916 -0.1171
 6947TIP3    H242257   1.012   2.562  13.981 -0.2343  0.8406  0.5021
 6948TIP3   OH242258   4.135   5.079   4.289  0.0720 -0.5726 -0.1584
 6948TIP3    H142259   4.128   4.994   4.331 -0.5829  0.0143  0.9711
 6948TIP3    H242260   4.049   5.092   4.248 -0.0784 -0.1461  0.2895
 6949TIP3   OH242261   6.153   3.497  16.777  0.4059 -0.1671  0.0706
 6949TIP3    H142262   6.207   3.545  16.714 -0.3606  0.0067 -0.4668
 6949TIP3    H242263   6.189   3.520  16.862  0.7795  0.4450 -0.2468
 6950TIP3   OH242264   4.969   3.940  12.769 -0.1973  0.3293 -0.1174
 6950TIP3    H142265   4.995   3.852  12.797  1.8063  0.6538 -0.8054
 6950TIP3    H242266   4.957   3.932  12.674 -1.8129  0.4223  0.0486
 6951TIP3   OH242267   0.121   0.491   1.047 -0.7730  0.1220  0.2114
 6951TIP3    H142268   0.061   0.561   1.021  0.0884  0.9825  0.4514
 6951TIP3    H242269   0.171   0.472   0.968 -2.9141 -2.2938 -0.6798
 6952TIP3   OH242270   4.013   1.176  16.063  0.2097 -0.0088 -0.8336
 6952TIP3    H142271   4.075   1.250  16.067  0.1227  0.0359 -0.2456
 6952TIP3    H242272   4.068   1.100  16.044  0.2194  0.3009 -2.1461
 6953TIP3   OH242273   4.981   5.692  14.925 -0.4888  0.2613 -0.3632
 6953TIP3    H142274   5.004   5.602  14.903 -1.2983 -0.7065  2.3482
 6953TIP3    H242275   4.885   5.692  14.929 -0.4580  0.8901  0.8306
 6954TIP3   OH242276   0.638   6.185   2.862 -0.1214  0.4185 -0.3315
 6954TIP3    H142277   0.632   6.109   2.920  4.5212 -2.3197 -2.8090
 6954TIP3    H242278   0.548   6.216   2.854 -1.7908 -2.4709  3.7123
 6955TIP3   OH242279   1.246   6.324  14.468  0.5516 -0.2584  0.3373
 6955TIP3    H142280   1.305   6.253  14.491  1.1035  0.4899  1.3202
 6955TIP3    H242281   1.299   6.403  14.475 -0.1052  0.2788 -0.5322
 6956TIP3   OH242282   4.026   3.931   1.344 -0.5138  0.3866 -0.2842
 6956TIP3    H142283   3.981   3.862   1.297 -0.9428  0.7195 -0.3714
 6956TIP3    H242284   3.960   3.966   1.404 -0.0719  0.1966  0.3159
 6957TIP3   OH242285   4.758   2.133  11.243  0.0168 -0.1524  0.5204
 6957TIP3    H142286   4.758   2.204  11.307  1.4110  0.1247  0.2480
 6957TIP3    H242287   4.666   2.113  11.228 -0.3893 -1.1259  3.5918
 6958TIP3   OH242288   1.447   0.824   2.100 -0.0939 -0.1952  0.4289
 6958TIP3    H142289   1.433   0.730   2.093  2.7709 -0.7043  0.2773
 6958TIP3    H242290   1.444   0.856   2.010 -0.9800 -0.1322  0.4729
 6959TIP3   OH242291   3.857   2.160  16.593 -0.1427  0.8836 -0.1257
 6959TIP3    H142292   3.890   2.083  16.639  0.9709  1.6032  0.3292
 6959TIP3    H242293   3.768   2.136  16.567 -0.0151 -0.3471  0.4783
 6960TIP3   OH242294   6.257   0.836   3.451  0.6869  0.2245  0.2372
 6960TIP3    H142295   6.322   0.849   3.382  0.0736  1.2945 -0.1521
 6960TIP3    H242296   6.188   0.783   3.410  0.8592 -0.1100  0.3740
 6961TIP3   OH242297   3.422   4.404  15.711  0.3071  0.4789  0.0918
 6961TIP3    H142298   3.346   4.355  15.681 -0.0887  2.1640 -1.9154
 6961TIP3    H242299   3.478   4.411  15.634  0.1556  3.4165  0.1333
 6962TIP3   OH242300   0.838   3.043   3.378 -0.3405  0.0169  0.1493
 6962TIP3    H142301   0.755   3.050   3.331  0.5892 -1.0164 -1.7946
 6962TIP3    H242302   0.841   2.952   3.408 -1.1350  0.7807  2.7667
 6963TIP3   OH242303   1.554   3.477   1.516  0.3194 -0.1869  0.3071
 6963TIP3    H142304   1.504   3.548   1.557 -3.2000 -1.2101 -1.7354
 6963TIP3    H242305   1.557   3.500   1.423  1.8897 -1.2496  0.0464
 6964TIP3   OH242306   2.553   1.342   2.271  0.1820 -0.3771 -0.1443
 6964TIP3    H142307   2.557   1.420   2.327 -1.2745  0.5084 -1.2155
 6964TIP3    H242308   2.537   1.270   2.332 -0.6537  0.4650  0.6720
 6965TIP3   OH242309   1.155   2.133  14.301  0.4569  0.3752 -0.4614
 6965TIP3    H142310   1.077   2.187  14.285 -1.8836 -2.0260  1.7840
 6965TIP3    H242311   1.160   2.074  14.226  0.7138  1.1377 -1.0585
 6966TIP3   OH242312   3.411   4.999   4.030  0.1677 -0.6487 -0.4524
 6966TIP3    H142313   3.503   5.024   4.028 -0.0725  0.3131 -0.0346
 6966TIP3    H242314   3.388   4.985   3.938  0.4210  0.2897 -0.6671
 6967TIP3   OH242315   3.601   3.246   2.178 -0.1852  0.0869  0.2028
 6967TIP3    H142316   3.546   3.265   2.102 -0.3304 -0.3463  0.1972
 6967TIP3    H242317   3.541   3.208   2.242  0.1296 -0.5360  0.1381
 6968TIP3   OH242318   2.908   0.898  11.458 -0.2254  0.1857 -1.1564
 6968TIP3    H142319   2.855   0.855  11.391  0.8736 -2.3119 -0.5311
 6968TIP3    H242320   2.915   0.834  11.528 -0.1227  2.1749  0.7541
 6969TIP3   OH242321   6.558   1.711  14.758 -0.0468  0.4332 -0.6518
 6969TIP3    H142322   6.599   1.796  14.743  0.5594  0.3410  0.3803
 6969TIP3    H242323   6.464   1.728  14.754  0.0409  1.4297  0.8169
 6970TIP3   OH242324   4.619   5.033   5.223  0.2274  0.2651  0.5493
 6970TIP3    H142325   4.600   4.966   5.289  0.5282  0.8609  1.2472
 6970TIP3    H242326   4.674   4.988   5.159  0.5627 -0.1174  1.0980
 6971TIP3   OH242327   2.434   6.317  16.098  0.2975  0.5527  0.4528
 6971TIP3    H142328   2.451   6.390  16.039  2.6608  1.0547  1.6089
 6971TIP3    H242329   2.413   6.358  16.182  1.7015 -0.0486  1.1333
 6972TIP3   OH242330   5.006   3.180  11.834  0.1254 -0.5929 -0.1094
 6972TIP3    H142331   4.974   3.239  11.902 -0.6581  0.6137 -1.4667
 6972TIP3    H242332   5.094   3.212  11.813  0.4826 -1.1438  0.5149
 6973TIP3   OH242333   5.486   1.060   5.117  0.4372 -0.6162  0.1697
 6973TIP3    H142334   5.562   1.053   5.175  0.3362  0.0217  0.3871
 6973TIP3    H242335   5.497   0.988   5.055  2.0740  0.4156 -0.7947
 6974TIP3   OH242336   1.569   0.938   6.128 -0.2359  0.1233  0.4164
 6974TIP3    H142337   1.612   0.852   6.131  0.2091  0.3565  1.1666
 6974TIP3    H242338   1.517   0.941   6.208  1.0587  1.1965  1.2540
 6975TIP3   OH242339   6.273   3.856  17.015 -0.3770  0.2387  0.1408
 6975TIP3    H142340   6.328   3.893  17.084  1.2857 -2.3353  0.3292
 6975TIP3    H242341   6.194   3.909  17.016  0.7435  2.0063  2.1423
 6976TIP3   OH242342   0.446   1.993  11.651 -0.8724  0.5552 -0.3107
 6976TIP3    H142343   0.481   1.997  11.562 -1.4502  0.1652 -0.5571
 6976TIP3    H242344   0.353   2.010  11.641 -0.9615  0.3842  0.2071
 6977TIP3   OH242345   3.467   1.671   4.500 -0.3064  0.0230 -0.1845
 6977TIP3    H142346   3.526   1.694   4.428 -0.6396 -1.5350 -0.9886
 6977TIP3    H242347   3.444   1.755   4.540  0.8131  0.8174 -1.1496
 6978TIP3   OH242348   1.380   2.681   0.945  0.1500 -0.0533 -0.3846
 6978TIP3    H142349   1.429   2.752   0.987  0.1988  0.5327 -1.3918
 6978TIP3    H242350   1.297   2.678   0.992 -0.1982  1.2614 -0.8478
 6979TIP3   OH242351   2.671   5.715   2.669  0.1565  0.4556 -0.3184
 6979TIP3    H142352   2.707   5.758   2.747  0.5912  0.7697 -0.6886
 6979TIP3    H242353   2.744   5.713   2.607 -0.7089  1.9862 -1.4411
 6980TIP3   OH242354   6.322   4.294  11.864  0.0688 -0.8259  0.1505
 6980TIP3    H142355   6.238   4.296  11.911 -0.4514 -0.5563 -0.7631
 6980TIP3    H242356   6.381   4.345  11.919 -0.7752  0.2777  0.0626
 6981TIP3   OH242357   6.528   6.431  15.781 -0.3464  0.1379 -0.0032
 6981TIP3    H142358   6.524   6.352  15.835  1.1896  1.0563  1.5682
 6981TIP3    H242359   6.620   6.439  15.757 -0.8957  0.1096 -2.3275
 6982TIP3   OH242360   5.805   5.530  12.531 -0.4008 -0.1493 -0.1302
 6982TIP3    H142361   5.895   5.499  12.522  0.6863  1.4070  3.6467
 6982TIP3    H242362   5.807   5.620  12.497 -0.4296  0.0216  0.3187
 6983TIP3   OH242363   4.490   3.126  16.790  0.1170 -0.1559  0.5694
 6983TIP3    H142364   4.426   3.185  16.830  0.4068 -0.1563  1.0427
 6983TIP3    H242365   4.537   3.181  16.727 -0.1671 -0.0874  0.4182
 6984TIP3   OH242366   2.220   1.651   6.232  0.4824 -0.3292 -0.0985
 6984TIP3    H142367   2.226   1.590   6.306  0.1533  1.8587  1.8663
 6984TIP3    H242368   2.129   1.644   6.202  0.7853 -1.6961 -0.7758
 6985TIP3   OH242369   2.460   5.535  13.281 -0.0023  0.0629  0.5247
 6985TIP3    H142370   2.552   5.522  13.261 -0.3604 -0.9615 -0.5988
 6985TIP3    H242371   2.444   5.628  13.261  0.6626  0.1152  0.2114
 6986TIP3   OH242372   1.843   6.164   4.478 -0.4098 -0.2929  0.8023
 6986TIP3    H142373   1.753   6.190   4.456  0.4138  0.8301 -1.4688
 6986TIP3    H242374   1.860   6.088   4.423  0.0241 -0.5864  1.3303
 6987TIP3   OH242375   5.655   4.459   0.347 -0.1349  0.0072  0.3716
 6987TIP3    H142376   5.609   4.527   0.396 -0.9785 -1.4606  1.7346
 6987TIP3    H242377   5.587   4.394   0.328  0.8626 -1.0125  0.1758
 6988TIP3   OH242378   4.629   6.535   1.168 -0.7593  0.2149  0.3263
 6988TIP3    H142379   4.542   6.566   1.193 -0.4877  1.7296 -0.4478
 6988TIP3    H242380   4.644   6.574   1.081 -0.1785 -1.8031 -0.5326
 6989TIP3   OH242381   5.051   2.417  16.656 -0.0704  0.3156 -0.0830
 6989TIP3    H142382   5.127   2.381  16.609 -1.2563 -1.4005 -0.7926
 6989TIP3    H242383   5.089   2.465  16.729  1.7134 -0.5686 -0.3722
 6990TIP3   OH242384   4.401   3.054  15.566  0.5050  0.3001 -0.3119
 6990TIP3    H142385   4.423   2.988  15.633 -0.3815 -0.1664 -0.4515
 6990TIP3    H242386   4.403   3.137  15.613  0.9512  0.0930  0.0416
 6991TIP3   OH242387   6.251   1.485  13.736 -0.1380  0.2862  0.0359
 6991TIP3    H142388   6.244   1.572  13.696  0.9736  0.1870 -0.4115
 6991TIP3    H242389   6.308   1.436  13.677 -0.5155 -0.6641  0.4403
 6992TIP3   OH242390   6.472   0.759  12.484  0.1240  0.0599 -0.2013
 6992TIP3    H142391   6.564   0.743  12.504 -0.2885 -0.9889  1.0124
 6992TIP3    H242392   6.473   0.821  12.412  1.7525  1.2096  0.7651
 6993TIP3   OH242393   5.648   5.267  12.430 -0.2446 -0.2546  0.6117
 6993TIP3    H142394   5.694   5.347  12.453  0.0910  0.5569 -2.4917
 6993TIP3    H242395   5.604   5.241  12.511  1.3980  1.8058  2.2980
 6994TIP3   OH242396   4.876   0.580  14.841 -0.0242  0.1613  0.3324
 6994TIP3    H142397   4.920   0.520  14.901 -0.1452  0.3669  0.6283
 6994TIP3    H242398   4.890   0.667  14.880 -3.6029  0.0124  2.3301
 6995TIP3   OH242399   0.738   0.729  11.051  0.1482  0.0656  0.1056
 6995TIP3    H142400   0.741   0.730  10.955 -0.1910 -0.7669  0.0767
 6995TIP3    H242401   0.792   0.654  11.076  0.5824  0.5335  0.5885
 6996TIP3   OH242402   6.132   5.403  13.195  0.5814  0.2457  0.9107
 6996TIP3    H142403   6.181   5.461  13.137 -1.0650  0.9026  0.1207
 6996TIP3    H242404   6.056   5.454  13.222 -0.9993 -1.5080  0.0907
 6997TIP3   OH242405   2.834   2.967  16.957  0.1196 -0.3350  0.0973
 6997TIP3    H142406   2.754   2.940  17.003 -0.6523  0.3520 -0.8241
 6997TIP3    H242407   2.816   3.056  16.928  1.1932 -0.2053 -0.1981
 6998TIP3   OH242408   0.742   6.491  11.543 -0.0621  0.3870 -0.6676
 6998TIP3    H142409   0.690   6.426  11.496 -2.2654  0.0871  1.8752
 6998TIP3    H242410   0.677   6.549  11.583  1.6521  1.3667  0.8754
 6999TIP3   OH242411   5.086   1.105  15.078  0.5880 -0.3699  0.2250
 6999TIP3    H142412   5.029   1.158  15.022  0.2801 -0.3829  0.5183
 6999TIP3    H242413   5.172   1.147  15.071  0.2141  0.5588  0.9398
 7000TIP3   OH242414   5.841   5.365   0.872 -0.0626  0.1452 -0.4513
 7000TIP3    H142415   5.890   5.420   0.934 -0.4165 -0.0663  0.0144
 7000TIP3    H242416   5.865   5.400   0.786  0.1725  0.6541 -0.1838
 7001TIP3   OH242417   5.521   1.352   5.132 -0.3105 -0.3322  0.0444
 7001TIP3    H142418   5.493   1.261   5.144 -0.8992  0.0277  1.7212
 7001TIP3    H242419   5.508   1.392   5.218  1.5226  0.9309 -0.2149
 7002TIP3   OH242420   5.225   0.278  17.117 -0.1046 -0.4139 -0.4609
 7002TIP3    H142421   5.241   0.368  17.144  0.9188 -1.0583  1.2469
 7002TIP3    H242422   5.215   0.283  17.022 -0.5586  1.5420 -0.3628
 7003TIP3   OH242423   1.227   5.241  14.243  0.4918 -0.2480  0.4110
 7003TIP3    H142424   1.164   5.295  14.195  3.8318  2.7570 -1.0730
 7003TIP3    H242425   1.280   5.200  14.175  3.3036  1.5311  1.3323
 7004TIP3   OH242426   1.350   1.174   0.606 -0.6945 -0.9309 -0.1318
 7004TIP3    H142427   1.425   1.114   0.606 -0.5388 -0.7465  0.3293
 7004TIP3    H242428   1.371   1.239   0.538  1.3510  1.2521  2.3136
 7005TIP3   OH242429   2.660   4.327   4.474  0.5760 -0.6171 -0.1388
 7005TIP3    H142430   2.705   4.244   4.461 -0.5572 -1.0503 -1.6403
 7005TIP3    H242431   2.572   4.312   4.439  0.7229  1.5843 -1.6461
 7006TIP3   OH242432   2.329   5.669   2.651 -0.3130 -0.5509  0.4990
 7006TIP3    H142433   2.334   5.695   2.560  2.5826 -1.3485  0.3546
 7006TIP3    H242434   2.312   5.750   2.699 -3.3316 -0.3197 -0.7478
 7007TIP3   OH242435   2.361   2.401  12.009 -0.1818  0.1392 -0.0020
 7007TIP3    H142436   2.400   2.326  11.964 -0.3800 -0.0658  0.1611
 7007TIP3    H242437   2.433   2.462  12.022  0.0970 -0.2527  0.3325
 7008TIP3   OH242438   2.148   4.856   2.938 -0.0191  0.1195 -0.3319
 7008TIP3    H142439   2.120   4.892   3.022 -0.4667  0.6143 -0.6853
 7008TIP3    H242440   2.185   4.770   2.959  1.0114  0.7471  0.5228
 7009TIP3   OH242441   6.667   1.059   1.346 -0.0128 -0.0149 -0.2507
 7009TIP3    H142442   6.712   1.043   1.264 -1.2480 -3.0496 -0.4500
 7009TIP3    H242443   6.576   1.077   1.321 -0.6161 -1.9108  0.4166
 7010TIP3   OH242444   1.416   3.291  10.424 -0.4100  0.4194  0.1452
 7010TIP3    H142445   1.322   3.285  10.438 -0.3834  1.3746  0.8317
 7010TIP3    H242446   1.433   3.235  10.348 -1.7529  1.4144 -0.9483
 7011TIP3   OH242447   5.358   4.644   0.016 -0.9230  0.1790  0.1638
 7011TIP3    H142448   5.383   4.658   0.108  1.6405 -0.7623 -0.3247
 7011TIP3    H242449   5.356   4.549   0.005  1.5566  0.2117 -1.3561
 7012TIP3   OH242450   1.983   0.857   1.648  0.2409 -0.1094  0.0693
 7012TIP3    H142451   1.999   0.916   1.574  0.1330 -1.3084 -0.9326
 7012TIP3    H242452   1.985   0.770   1.610  1.1871 -0.8260  1.6668
 7013TIP3   OH242453   3.412   5.570   2.561 -0.4176  0.4387  0.1394
 7013TIP3    H142454   3.329   5.531   2.535 -0.8951  1.8607 -0.5415
 7013TIP3    H242455   3.461   5.497   2.599 -1.6931 -0.5752 -0.0777
 7014TIP3   OH242456   5.937   2.589  10.692 -0.5964  0.1594 -0.3352
 7014TIP3    H142457   5.862   2.536  10.721  0.4463 -1.1052  0.1416
 7014TIP3    H242458   5.897   2.665  10.650 -2.1528 -0.4681 -0.0769
 7015TIP3   OH242459   4.876   0.669   3.570 -0.4359 -0.2141 -0.2768
 7015TIP3    H142460   4.875   0.658   3.475  1.2093 -0.7629 -0.2718
 7015TIP3    H242461   4.810   0.736   3.587 -0.9748 -0.3229 -1.7739
 7016TIP3   OH242462   0.339   2.208  13.354 -0.0866  0.1711 -0.3714
 7016TIP3    H142463   0.288   2.130  13.332 -1.1281  0.3372  1.2537
 7016TIP3    H242464   0.361   2.247  13.270  1.2840 -2.3499 -1.2894
 7017TIP3   OH242465   1.805   2.025   0.829  0.2233 -0.1855 -0.0559
 7017TIP3    H142466   1.739   2.045   0.763 -1.5743 -3.1251  0.6987
 7017TIP3    H242467   1.862   1.961   0.787  3.0676  2.6014 -0.8528
 7018TIP3   OH242468   4.954   5.671  15.208 -0.0159 -0.1767  0.1160
 7018TIP3    H142469   4.955   5.700  15.116 -0.8934  0.0179  0.1630
 7018TIP3    H242470   4.865   5.639  15.222  0.0568 -0.0146  0.9624
 7019TIP3   OH242471   5.874   2.765  14.041  0.1672  0.5268  0.5844
 7019TIP3    H142472   5.807   2.706  14.073 -1.6743  1.4292 -1.3743
 7019TIP3    H242473   5.955   2.713  14.042 -0.7859 -1.0097  1.7236
 7020TIP3   OH242474   0.775   0.663   0.187  0.3686 -0.0976  0.6821
 7020TIP3    H142475   0.780   0.569   0.170  0.8663 -0.0607  0.6098
 7020TIP3    H242476   0.763   0.702   0.101  1.2964 -0.0196  0.5832
 7021TIP3   OH242477   3.070   4.609   4.594 -0.1057 -0.2060  0.3703
 7021TIP3    H142478   3.117   4.612   4.510  0.1376 -1.8920  0.4145
 7021TIP3    H242479   3.110   4.536   4.641 -1.4812 -0.4581  1.1976
 7022TIP3   OH242480   0.476   1.779  10.937 -0.0989 -0.6208 -0.1091
 7022TIP3    H142481   0.511   1.726  10.865 -1.5131 -1.0491 -0.5164
 7022TIP3    H242482   0.438   1.855  10.893  1.3660  0.4660  0.4273
 7023TIP3   OH242483   2.815   2.788   4.242 -0.3048  0.5733 -0.1604
 7023TIP3    H142484   2.882   2.740   4.290 -0.6174  0.0573 -0.2294
 7023TIP3    H242485   2.850   2.876   4.232 -0.3193  0.7498  1.1926
 7024TIP3   OH242486   3.213   1.273  13.632 -0.4708  0.3021 -0.2484
 7024TIP3    H142487   3.198   1.368  13.630 -2.5092  0.0477  0.3383
 7024TIP3    H242488   3.294   1.261  13.584  0.2568  2.4169  0.3034
 7025TIP3   OH242489   1.115   1.548  16.375 -0.3564  1.0888 -0.5957
 7025TIP3    H142490   1.175   1.474  16.385  1.6040  2.7567  0.8481
 7025TIP3    H242491   1.156   1.602  16.307 -2.0155  0.6916 -1.9751
 7026TIP3   OH242492   5.532   5.498   0.325  0.2370  0.3699 -0.1347
 7026TIP3    H142493   5.565   5.524   0.411 -0.0866 -1.5983  0.6180
 7026TIP3    H242494   5.446   5.539   0.319  0.0724  0.1616  0.6798
 7027TIP3   OH242495   3.219   3.100  13.083 -0.4631  0.3575 -0.0768
 7027TIP3    H142496   3.243   3.010  13.102 -0.8238  0.3571  0.3934
 7027TIP3    H242497   3.151   3.093  13.016 -1.2252  0.2267  0.6940
 7028TIP3   OH242498   0.934   4.864  16.596 -0.3413 -0.5291 -0.2389
 7028TIP3    H142499   0.981   4.944  16.575  0.2339 -0.6871  0.4029
 7028TIP3    H242500   0.912   4.873  16.689 -1.0687 -0.7189 -0.3870
 7029TIP3   OH242501   4.516   4.862   2.737  0.1542  0.2658  0.2089
 7029TIP3    H142502   4.448   4.892   2.677 -0.4967  1.8797  1.6571
 7029TIP3    H242503   4.576   4.937   2.743 -0.2275  0.4594  2.1281
 7030TIP3   OH242504   6.267   4.654   4.170  0.1091  0.2064  0.5892
 7030TIP3    H142505   6.361   4.653   4.158 -0.1051  1.2538 -1.5233
 7030TIP3    H242506   6.244   4.747   4.176 -0.8071 -0.0232  0.8640
 7031TIP3   OH242507   5.788   3.221  17.291 -0.3065 -0.1580 -0.1411
 7031TIP3    H142508   5.841   3.160  17.342  1.5236  0.0605 -1.6693
 7031TIP3    H242509   5.755   3.167  17.218 -0.9927  0.0558  0.0059
 7032TIP3   OH242510   3.708   4.981  15.142  0.1449  0.3066 -0.0290
 7032TIP3    H142511   3.677   5.065  15.108  0.1951  0.0573 -0.6930
 7032TIP3    H242512   3.633   4.944  15.189  0.2025  0.8358  0.4943
 7033TIP3   OH242513   3.841   5.799  13.446 -0.5865  0.1960 -0.0920
 7033TIP3    H142514   3.787   5.813  13.524 -1.5412  0.1153 -0.7184
 7033TIP3    H242515   3.924   5.765  13.479 -0.2841  1.9278  1.0260
 7034TIP3   OH242516   5.464   6.421   0.349 -0.1442 -0.1967 -0.3138
 7034TIP3    H142517   5.553   6.396   0.327 -0.1672 -0.9812  0.4337
 7034TIP3    H242518   5.429   6.462   0.269  0.6416 -0.5287 -0.8295
 7035TIP3   OH242519   6.655   5.607   1.271  0.3704 -0.4490  0.4445
 7035TIP3    H142520   6.748   5.613   1.250  0.1232 -1.0805 -1.0562
 7035TIP3    H242521   6.619   5.691   1.245  0.3946 -0.5243  0.1546
 7036TIP3   OH242522   5.851   4.532  12.665  0.0060 -0.1158 -0.0516
 7036TIP3    H142523   5.896   4.521  12.581  2.1405 -3.2268  1.3244
 7036TIP3    H242524   5.759   4.514  12.645  0.4733 -0.8546 -1.7177
 7037TIP3   OH242525   2.842   1.263   1.743 -0.1622  0.1847 -0.6632
 7037TIP3    H142526   2.793   1.342   1.767  0.5359  0.6035 -0.6032
 7037TIP3    H242527   2.777   1.208   1.699 -0.8046  0.5343 -0.1835
 7038TIP3   OH242528   2.447   1.688   3.802 -0.0482 -1.0350 -0.6785
 7038TIP3    H142529   2.468   1.716   3.713  0.2687 -1.2312 -0.6669
 7038TIP3    H242530   2.527   1.703   3.852 -0.1996 -1.0003 -0.4417
 7039TIP3   OH242531   5.325   3.534   0.325 -0.5690 -0.0351  0.4004
 7039TIP3    H142532   5.375   3.614   0.311  0.5792 -0.9633 -1.0897
 7039TIP3    H242533   5.235   3.559   0.305 -0.3385  1.0497  0.6350
 7040TIP3   OH242534   3.554   3.703  12.891  0.0490  0.1554 -0.3562
 7040TIP3    H142535   3.605   3.780  12.917 -0.1898  0.0097  0.5568
 7040TIP3    H242536   3.488   3.737  12.830 -2.0103  1.2548  2.2888
 7041TIP3   OH242537   0.079   4.095  14.224  0.1265 -0.0762  0.1777
 7041TIP3    H142538   0.085   4.061  14.134 -0.0700 -2.1692  0.9042
 7041TIP3    H242539   0.007   4.047  14.263  1.4290 -0.6475  2.0246
 7042TIP3   OH242540   6.715   3.173  11.543  0.6652  0.2529  0.6873
 7042TIP3    H142541   6.707   3.079  11.531 -0.1364  0.4886 -0.9776
 7042TIP3    H242542   6.668   3.191  11.625 -1.4196 -0.5248 -0.2510
 7043TIP3   OH242543   3.681   0.752   0.886  0.8768  0.4566  0.6893
 7043TIP3    H142544   3.593   0.757   0.922 -0.0627  0.8733 -1.4845
 7043TIP3    H242545   3.682   0.671   0.834  1.5267  0.8210  0.1102
 7044TIP3   OH242546   6.709   4.823   4.834 -0.3130 -0.6430  0.2503
 7044TIP3    H142547   6.689   4.737   4.797 -1.3084 -0.4155  0.2164
 7044TIP3    H242548   6.727   4.805   4.926  0.6057 -1.0190  0.0051
 7045TIP3   OH242549   2.791   0.183   5.057 -0.6425 -0.2932 -0.2398
 7045TIP3    H142550   2.873   0.206   5.100  0.1066 -1.4934 -0.9601
 7045TIP3    H242551   2.762   0.104   5.102 -1.2265 -0.0732 -0.2220
 7046TIP3   OH242552   1.917   1.964  12.662 -0.3182  0.5726 -0.1870
 7046TIP3    H142553   1.951   1.899  12.600 -0.0430  0.6013 -0.0692
 7046TIP3    H242554   1.846   2.007  12.616 -1.0251 -0.3543  0.0122
 7047TIP3   OH242555   5.914   1.343   1.575  0.5310 -0.1332  0.1895
 7047TIP3    H142556   5.839   1.293   1.606  0.7337 -0.1256  0.7074
 7047TIP3    H242557   5.989   1.288   1.594  0.4840 -1.6152 -3.2701
 7048TIP3   OH242558   5.387   3.563  14.185  0.7287  0.1848  0.0153
 7048TIP3    H142559   5.371   3.572  14.279 -1.9355 -1.1719 -0.2082
 7048TIP3    H242560   5.361   3.648  14.148  3.0723  1.2048  0.5605
 7049TIP3   OH242561   5.634   3.194  13.222 -0.2116 -0.1502  0.1669
 7049TIP3    H142562   5.707   3.148  13.265  0.5781  1.6734  0.8817
 7049TIP3    H242563   5.589   3.126  13.172  1.3374 -1.5387  0.5705
 7050TIP3   OH242564   6.050   0.104  16.930 -0.3227 -1.1469  0.2983
 7050TIP3    H142565   6.080   0.017  16.955 -2.5025 -1.4079  2.3695
 7050TIP3    H242566   6.084   0.163  16.997 -0.2530 -0.6617 -0.1526
 7051TIP3   OH242567   5.401   1.692   5.497 -0.3633 -0.1349  0.1629
 7051TIP3    H142568   5.372   1.775   5.535  0.3248  0.1109  0.1656
 7051TIP3    H242569   5.393   1.705   5.402  1.0987  0.4576  0.1027
 7052TIP3   OH242570   3.696   1.303   0.199 -0.1830 -0.0638  0.0404
 7052TIP3    H142571   3.657   1.291   0.286  0.6348 -0.7832  0.3123
 7052TIP3    H242572   3.621   1.325   0.143 -1.2927 -3.0478  0.1988
 7053TIP3   OH242573   3.164   0.969  11.929 -0.6222 -0.6323 -0.4523
 7053TIP3    H142574   3.225   0.897  11.941  0.6479  0.2925 -1.0317
 7053TIP3    H242575   3.125   0.983  12.015  2.5373  0.9089  0.9103
 7054TIP3   OH242576   3.885   4.751  16.057 -0.1848 -0.1526 -0.4166
 7054TIP3    H142577   3.934   4.826  16.023 -0.5978 -0.8247 -2.6352
 7054TIP3    H242578   3.867   4.773  16.149  1.4114  1.5491 -0.4631
 7055TIP3   OH242579   6.425   2.566  17.314  0.1441  0.2053 -0.2448
 7055TIP3    H142580   6.495   2.619  17.277 -0.1194  0.5576 -0.2460
 7055TIP3    H242581   6.415   2.492  17.254  0.2293  0.3765 -0.4665
 7056TIP3   OH242582   3.648   2.697   2.949  0.4860  0.3732 -0.0330
 7056TIP3    H142583   3.727   2.711   2.896 -1.0878  2.0565 -2.1041
 7056TIP3    H242584   3.604   2.623   2.908  0.4301  0.1268  0.4583
 7057TIP3   OH242585   5.560   0.621  16.455 -0.0044  0.7616  0.4780
 7057TIP3    H142586   5.593   0.556  16.518 -0.9677  1.8265  2.1522
 7057TIP3    H242587   5.539   0.570  16.377  0.9570 -0.6586  1.1040
 7058TIP3   OH242588   1.432   2.505   1.496 -0.9590 -0.1825  0.0934
 7058TIP3    H142589   1.394   2.543   1.417 -0.4018  0.5613  0.1717
 7058TIP3    H242590   1.372   2.434   1.519  0.0537 -1.9080 -2.2614
 7059TIP3   OH242591   0.469   3.919  13.390 -0.1472 -0.0402  0.0892
 7059TIP3    H142592   0.453   3.839  13.440 -1.4358  0.8066  1.0887
 7059TIP3    H242593   0.398   3.978  13.415 -0.8577  0.4483 -2.7714
 7060TIP3   OH242594   1.434   2.583  14.009  0.2099  0.0270  0.0261
 7060TIP3    H142595   1.449   2.557  13.918 -0.7582  1.7234 -0.6612
 7060TIP3    H242596   1.471   2.671  14.015  0.4090 -0.1332  1.3316
 7061TIP3   OH242597   3.257   1.189   3.417 -0.7589  0.2316  0.0552
 7061TIP3    H142598   3.254   1.163   3.509  0.7610 -1.7299 -0.3993
 7061TIP3    H242599   3.347   1.218   3.403 -0.4287 -1.3194 -1.2497
 7062TIP3   OH242600   0.636   0.293  11.348 -0.1657  0.5004  0.1782
 7062TIP3    H142601   0.677   0.377  11.369 -0.9159  1.4018 -1.6875
 7062TIP3    H242602   0.702   0.247  11.296 -1.4174  2.1434 -3.2345
 7063TIP3   OH242603   1.178   1.181  15.272 -0.3059 -0.2085  0.0522
 7063TIP3    H142604   1.133   1.116  15.218 -1.2730  0.6556 -0.2138
 7063TIP3    H242605   1.231   1.129  15.332  1.8453 -1.2380 -2.4983
 7064TIP3   OH242606   2.303   0.150  13.649 -0.2692 -0.2317 -0.6439
 7064TIP3    H142607   2.259   0.219  13.697 -0.2548 -1.5530  1.4028
 7064TIP3    H242608   2.385   0.190  13.618  0.2503  0.4008  1.4216
 7065TIP3   OH242609   0.244   6.504   5.457 -0.1007  0.4495  0.3699
 7065TIP3    H142610   0.210   6.587   5.424  1.3082  0.7230 -0.4601
 7065TIP3    H242611   0.169   6.463   5.500 -1.1783  1.5196 -0.4278
 7066TIP3   OH242612   0.089   5.533   6.624 -0.3997  0.2979  0.3733
 7066TIP3    H142613   0.014   5.553   6.680  1.1533 -0.1676  2.7885
 7066TIP3    H242614   0.128   5.454   6.662  1.9778  1.1698 -0.0267
 7067TIP3   OH242615   6.168   2.269  15.090 -0.1282  0.3879  0.2018
 7067TIP3    H142616   6.085   2.291  15.133 -0.6771 -2.0657  0.5728
 7067TIP3    H242617   6.223   2.235  15.161  0.5152  0.2893 -0.3362
 7068TIP3   OH242618   2.285   4.279   4.490  0.2675 -0.2465 -0.1541
 7068TIP3    H142619   2.201   4.257   4.530 -0.3266 -0.1538 -1.3101
 7068TIP3    H242620   2.349   4.262   4.558 -0.6935 -0.2693  0.7677
 7069TIP3   OH242621   0.971   2.358   3.291 -1.1239 -0.1668  0.1416
 7069TIP3    H142622   1.054   2.364   3.245 -1.2909 -0.6572 -0.2404
 7069TIP3    H242623   0.992   2.316   3.374 -0.6761  1.5238  0.9244
 7070TIP3   OH242624   2.235   6.665   5.538 -0.2998  0.2635  0.3048
 7070TIP3    H142625   2.214   6.594   5.598 -1.2960 -2.2242 -2.7159
 7070TIP3    H242626   2.323   6.644   5.506  0.7724  2.2761  1.7021
 7071TIP3   OH242627   5.251   0.212   3.677 -0.1013 -0.2743  0.4128
 7071TIP3    H142628   5.321   0.203   3.741  1.6385  1.3851 -1.1660
 7071TIP3    H242629   5.219   0.301   3.688  0.0374 -0.0545 -0.8242
 7072TIP3   OH242630   5.677   2.543  12.183  0.1746 -0.0362 -0.4147
 7072TIP3    H142631   5.711   2.512  12.099  0.5689  0.7688 -0.5635
 7072TIP3    H242632   5.609   2.606  12.160  0.4803  0.4030 -0.1380
 7073TIP3   OH242633   5.687   3.036   3.188  0.5285  0.3431  0.1924
 7073TIP3    H142634   5.762   3.083   3.225  1.0957  0.8725 -1.5318
 7073TIP3    H242635   5.709   2.943   3.203  1.5702  0.4843 -0.3390
 7074TIP3   OH242636   2.536   6.271  12.450 -0.0771 -0.0776 -0.6721
 7074TIP3    H142637   2.533   6.189  12.500  0.7474  0.4757  0.3314
 7074TIP3    H242638   2.624   6.273  12.413 -0.8773 -0.7860 -2.7547
 7075TIP3   OH242639   1.525   4.959   4.635  0.1577 -0.3640  0.3155
 7075TIP3    H142640   1.546   4.873   4.598  0.9846 -0.8041  1.7188
 7075TIP3    H242641   1.430   4.966   4.626  0.4389  0.5516 -3.8819
 7076TIP3   OH242642   4.371   1.485   0.852 -0.1140 -0.3993 -0.1279
 7076TIP3    H142643   4.314   1.461   0.925  1.1547 -0.7103  0.7992
 7076TIP3    H242644   4.357   1.416   0.787 -1.3971 -0.0178 -0.2880
 7077TIP3   OH242645   3.404   3.452   0.083 -0.1271  0.2949 -0.1560
 7077TIP3    H142646   3.340   3.410   0.025 -1.0840 -0.1058  1.1410
 7077TIP3    H242647   3.370   3.540   0.095 -0.6942 -0.0527  0.8809
 7078TIP3   OH242648   2.989   4.885  12.372 -0.1229 -0.4624 -0.0510
 7078TIP3    H142649   2.893   4.886  12.362 -0.0059 -2.1553 -2.1813
 7078TIP3    H242650   3.011   4.975  12.396 -2.1374  0.3362 -0.9045
 7079TIP3   OH242651   6.691   2.011   1.367  0.4000 -0.1028  0.8200
 7079TIP3    H142652   6.718   1.930   1.410  0.6288 -0.1833  0.5315
 7079TIP3    H242653   6.773   2.050   1.337  0.3780  0.6882  1.7374
 7080TIP3   OH242654   6.375   0.859  15.039 -0.4569 -0.1831 -0.1608
 7080TIP3    H142655   6.316   0.933  15.029  0.1173  0.3938  0.5643
 7080TIP3    H242656   6.360   0.805  14.962 -1.4410  0.2942 -0.3116
 7081TIP3   OH242657   4.485   1.535   1.210 -0.3263 -0.1007  0.0516
 7081TIP3    H142658   4.523   1.516   1.124 -1.0288 -0.5737 -0.1696
 7081TIP3    H242659   4.548   1.502   1.273 -1.3195 -2.9664 -0.3086
 7082TIP3   OH242660   1.114   2.865   4.643  0.0735 -0.4175  0.2674
 7082TIP3    H142661   1.167   2.941   4.618  1.7063 -1.6911 -0.2955
 7082TIP3    H242662   1.173   2.809   4.693 -1.5786 -0.5875  2.1550
 7083TIP3   OH242663   4.208   3.537  16.025 -0.2949  0.7806 -0.5023
 7083TIP3    H142664   4.291   3.552  16.070  0.0911  0.2228 -1.0300
 7083TIP3    H242665   4.145   3.523  16.096  0.4208 -0.6998 -0.1141
 7084TIP3   OH242666   2.161   4.083   6.311 -0.0168 -0.3485  0.1018
 7084TIP3    H142667   2.221   4.111   6.380 -0.8975 -1.5517  1.4205
 7084TIP3    H242668   2.213   4.089   6.231  0.9051  1.5051  0.7845
 7085TIP3   OH242669   0.735   2.886  12.824 -0.1051  0.4697 -0.2730
 7085TIP3    H142670   0.777   2.814  12.871 -1.1453 -0.4659 -0.7415
 7085TIP3    H242671   0.786   2.896  12.744 -0.0962  0.0823 -0.3181
 7086TIP3   OH242672   1.659   4.112   1.353 -0.4882 -0.5516 -0.2634
 7086TIP3    H142673   1.719   4.168   1.404  1.5012 -2.7113 -0.0772
 7086TIP3    H242674   1.572   4.143   1.378  0.4849  1.3586  1.0794
 7087TIP3   OH242675   3.962   3.502   0.375  0.3594 -0.8907  0.3830
 7087TIP3    H142676   4.037   3.448   0.401  1.8310  0.5170 -0.7044
 7087TIP3    H242677   3.903   3.442   0.330  0.8302 -2.0297  1.2515
 7088TIP3   OH242678   0.935   2.528   6.496  0.4751  0.3046 -0.1190
 7088TIP3    H142679   0.972   2.446   6.530 -1.6383 -1.1530 -1.1051
 7088TIP3    H242680   0.843   2.524   6.521 -1.3211 -0.8905 -5.5505
 7089TIP3   OH242681   1.382   1.952   1.393 -0.2348 -0.4708 -0.1633
 7089TIP3    H142682   1.380   1.915   1.481 -0.5869  0.7523  0.3606
 7089TIP3    H242683   1.420   2.039   1.404 -0.7686 -0.0997 -1.1395
 7090TIP3   OH242684   2.394   0.800  15.406  1.1267  0.1753  0.3206
 7090TIP3    H142685   2.425   0.891  15.400  1.8360 -0.1129 -0.7458
 7090TIP3    H242686   2.304   0.807  15.435  0.8357  1.2904 -0.7668
 7091TIP3   OH242687   5.970   1.470   4.211 -0.4693 -0.0735  0.3426
 7091TIP3    H142688   5.928   1.388   4.234  1.2101 -1.4778 -1.2563
 7091TIP3    H242689   5.912   1.510   4.146 -0.4635 -0.8890 -0.1741
 7092TIP3   OH242690   6.078   2.512   1.136  0.1514 -0.1929  0.5266
 7092TIP3    H142691   5.989   2.545   1.137 -0.1718 -1.0311  0.1661
 7092TIP3    H242692   6.129   2.579   1.090 -0.4666 -0.1366 -0.0835
 7093TIP3   OH242693   3.451   5.745   2.336  0.3010  0.0937 -0.1196
 7093TIP3    H142694   3.538   5.728   2.302  1.2122  1.3196  1.4946
 7093TIP3    H242695   3.449   5.700   2.421 -1.3215 -1.4636 -0.8963
 7094TIP3   OH242696   1.653   5.508  14.951  0.2256  0.4124 -0.1961
 7094TIP3    H142697   1.738   5.532  14.914  0.4589 -1.6145 -1.0983
 7094TIP3    H242698   1.596   5.498  14.875 -0.3026 -0.1498  0.2683
 7095TIP3   OH242699   0.373   0.929  16.533 -0.1124 -0.5172 -0.0115
 7095TIP3    H142700   0.421   1.007  16.504  1.4332 -1.0254  1.0460
 7095TIP3    H242701   0.300   0.922  16.472 -0.0880  1.5439 -0.3468
 7096TIP3   OH242702   1.389   6.671  15.153  0.1328  0.0590 -0.4049
 7096TIP3    H142703   1.325   6.609  15.187  0.4761  0.0148  0.1670
 7096TIP3    H242704   1.466   6.619  15.133 -0.0871  0.0730 -1.3364
 7097TIP3   OH242705   3.615   6.606  17.387 -0.4933 -0.8564 -0.1960
 7097TIP3    H142706   3.645   6.520  17.418 -0.2007 -0.0309  1.9867
 7097TIP3    H242707   3.564   6.642  17.460  0.1360  1.1860 -0.6924
 7098TIP3   OH242708   1.700   1.074  10.278  0.3459 -0.0254  0.2084
 7098TIP3    H142709   1.643   1.087  10.354 -0.7811 -2.0416 -0.2142
 7098TIP3    H242710   1.732   1.162  10.256  1.9532  0.4822  3.8911
 7099TIP3   OH242711   6.483   5.624   1.497  0.5365 -0.2582 -0.2309
 7099TIP3    H142712   6.538   5.562   1.546 -0.7456 -1.3096 -0.0483
 7099TIP3    H242713   6.513   5.616   1.406  0.7728 -0.7291 -0.1142
 7100TIP3   OH242714   4.313   2.992   4.181 -0.2197  0.0330 -0.0522
 7100TIP3    H142715   4.335   2.991   4.088 -1.7224  2.1857 -0.5025
 7100TIP3    H242716   4.240   3.053   4.188  0.3436  0.5382  2.6529
 7101TIP3   OH242717   6.504   1.860   1.990  0.4586 -0.1772  0.3055
 7101TIP3    H142718   6.545   1.890   1.909  0.7977 -0.1645  0.4762
 7101TIP3    H242719   6.465   1.939   2.027  0.0906 -0.2315  0.0332
 7102TIP3   OH242720   5.283   3.530   1.686  0.6492  0.4846  0.2393
 7102TIP3    H142721   5.301   3.534   1.780  0.2366 -0.6670  0.3851
 7102TIP3    H242722   5.222   3.457   1.677 -1.5812  2.3673 -0.5996
 7103TIP3   OH242723   1.505   1.252   4.812  1.0483 -0.2571  0.4150
 7103TIP3    H142724   1.569   1.261   4.883  2.0463 -0.0576 -0.4818
 7103TIP3    H242725   1.517   1.163   4.780  0.3772 -0.4530  0.6850
 7104TIP3   OH242726   0.402   6.216  11.432  0.3501  0.0445  0.1575
 7104TIP3    H142727   0.339   6.153  11.399  0.6330  0.1579 -0.6226
 7104TIP3    H242728   0.426   6.184  11.518 -1.2333  0.3304  0.7305
 7105TIP3   OH242729   3.540   5.248   6.807  0.2008 -0.9018  0.2013
 7105TIP3    H142730   3.463   5.286   6.765 -0.6760 -3.6470 -0.8969
 7105TIP3    H242731   3.614   5.286   6.760 -0.5747 -0.0051 -0.3269
 7106TIP3   OH242732   1.147   4.629   3.311  0.6650 -0.0548 -0.3634
 7106TIP3    H142733   1.164   4.709   3.361 -2.0497  0.8332 -0.6908
 7106TIP3    H242734   1.116   4.566   3.377  1.4289 -0.3715 -0.3050
 7107TIP3   OH242735   1.193   2.026  11.124 -0.0578 -0.0332 -0.0499
 7107TIP3    H142736   1.107   2.066  11.132 -0.2664 -0.1065 -1.6115
 7107TIP3    H242737   1.247   2.092  11.083  0.5620 -0.1059  0.6252
 7108TIP3   OH242738   1.543   5.412  11.254  0.4525 -0.8484  0.2954
 7108TIP3    H142739   1.546   5.486  11.314 -0.1599 -1.8275  1.5745
 7108TIP3    H242740   1.613   5.354  11.285 -0.4471 -1.7712  0.6340
 7109TIP3   OH242741   3.167   3.232   6.103 -0.2839  0.5831 -0.1921
 7109TIP3    H142742   3.112   3.206   6.029  0.9420 -0.7823 -0.7011
 7109TIP3    H242743   3.135   3.318   6.129 -2.5191 -0.0818 -0.5440
 7110TIP3   OH242744   1.901   0.463  11.750 -0.0718 -0.0149  0.4266
 7110TIP3    H142745   1.906   0.455  11.655  0.2050  1.2407  0.3230
 7110TIP3    H242746   1.811   0.436  11.771 -1.0074  2.1838 -0.4933
 7111TIP3   OH242747   0.838   6.488  16.960 -0.2861 -0.3224 -0.2406
 7111TIP3    H142748   0.752   6.466  16.995 -0.3285 -1.5200 -1.0652
 7111TIP3    H242749   0.850   6.580  16.984 -1.2348 -0.4961  1.0013
 7112TIP3   OH242750   2.029   1.049  13.195  0.0033 -0.0742  0.2537
 7112TIP3    H142751   2.005   1.127  13.145 -1.0007  1.1927  2.5293
 7112TIP3    H242752   2.100   1.009  13.145  0.2339  2.0346 -1.2459
 7113TIP3   OH242753   0.574   1.291  13.686  0.6053 -0.0316  0.1109
 7113TIP3    H142754   0.559   1.307  13.593  3.2413  0.7105 -0.2710
 7113TIP3    H242755   0.567   1.377  13.727 -1.6668 -0.5038  0.8546
 7114TIP3   OH242756   2.134   0.833   5.423  0.4069 -0.2191 -0.0100
 7114TIP3    H142757   2.079   0.805   5.350 -0.6873 -1.0492  1.0850
 7114TIP3    H242758   2.090   0.911   5.457  0.3499 -0.4108  0.3616
 7115TIP3   OH242759   3.323   4.501   4.119 -0.5425  0.1654 -0.1678
 7115TIP3    H142760   3.373   4.422   4.140  0.0093 -0.1951 -2.5144
 7115TIP3    H242761   3.384   4.554   4.068 -1.0189  1.9955  1.0613
 7116TIP3   OH242762   1.741   2.539  16.084  0.1104 -0.2462 -0.0869
 7116TIP3    H142763   1.745   2.453  16.043 -1.0829  0.1252 -1.0388
 7116TIP3    H242764   1.800   2.593  16.030 -0.0121 -0.2038 -0.1796
 7117TIP3   OH242765   4.275   2.157  15.670  0.0189  0.1616 -0.3011
 7117TIP3    H142766   4.306   2.103  15.742  0.7521 -0.8226 -1.3371
 7117TIP3    H242767   4.347   2.218  15.652 -0.2243  0.5099 -0.1132
 7118TIP3   OH242768   1.549   0.159   6.419 -0.3543  0.3921 -0.2107
 7118TIP3    H142769   1.596   0.089   6.375 -0.4193  0.0765  0.2091
 7118TIP3    H242770   1.617   0.209   6.465 -0.4129 -0.0444  0.3690
 7119TIP3   OH242771   2.710   6.346   1.114 -0.2858  0.8473  0.4154
 7119TIP3    H142772   2.678   6.259   1.093 -0.1817  0.7808  0.5356
 7119TIP3    H242773   2.690   6.398   1.036  2.1070  0.0924 -0.8049
 7120TIP3   OH242774   4.006   6.600  14.922 -0.4892  0.6765  0.2875
 7120TIP3    H142775   3.929   6.656  14.927 -0.3642  1.1104 -1.5941
 7120TIP3    H242776   4.065   6.646  14.862 -0.5681 -1.6130 -1.7478
 7121TIP3   OH242777   0.401   0.237  14.254  0.0274 -0.3031 -0.6341
 7121TIP3    H142778   0.308   0.260  14.259 -0.1823 -1.2897  0.3783
 7121TIP3    H242779   0.418   0.190  14.335  2.0442  1.9992  0.4207
 7122TIP3   OH242780   4.902   3.510  12.293 -0.4676 -0.2161 -0.0465
 7122TIP3    H142781   4.905   3.415  12.290 -1.3096 -0.3399  1.7857
 7122TIP3    H242782   4.844   3.535  12.221 -1.9274 -1.2619  0.7022
 7123TIP3   OH242783   1.768   5.134  13.050 -0.3012  0.3489  0.1657
 7123TIP3    H142784   1.743   5.055  13.098 -1.0820  0.6608  0.2893
 7123TIP3    H242785   1.704   5.200  13.077 -0.0852  0.8306 -0.4707
 7124TIP3   OH242786   2.018   6.650   0.464 -0.2369 -0.2867  0.4492
 7124TIP3    H142787   2.025   6.595   0.543  1.4226 -1.8717 -0.7191
 7124TIP3    H242788   2.091   6.712   0.472  0.1710 -0.7002  0.0065
 7125TIP3   OH242789   4.355   6.433   5.651 -0.1651 -0.4066  0.1973
 7125TIP3    H142790   4.425   6.439   5.715 -1.2900  1.0974  1.3574
 7125TIP3    H242791   4.394   6.464   5.569  1.4627 -2.9669 -0.0820
 7126TIP3   OH242792   4.130   0.947   0.110 -0.1500 -0.0120  0.2032
 7126TIP3    H142793   4.157   1.005   0.181  0.5014  1.1347 -0.9493
 7126TIP3    H242794   4.202   0.948   0.048 -0.0725 -2.1703  0.1727
 7127TIP3   OH242795   4.913   2.653   2.901  0.3932  0.3510 -0.0974
 7127TIP3    H142796   4.953   2.700   2.974 -0.2995  1.0070 -0.1354
 7127TIP3    H242797   4.830   2.698   2.885 -0.4961 -1.1269  0.1379
 7128TIP3   OH242798   4.961   6.700   1.377 -0.1373  0.1770 -0.1771
 7128TIP3    H142799   4.922   6.779   1.415  0.5958  0.9254 -0.9311
 7128TIP3    H242800   4.926   6.628   1.429 -0.4503  1.0368  0.8287
 7129TIP3   OH242801   6.074   5.545  14.023  0.0406  0.0608 -0.4240
 7129TIP3    H142802   6.059   5.510  14.111  1.4240 -0.0649 -0.2083
 7129TIP3    H242803   6.020   5.624  14.019 -1.4152 -0.8894 -0.1189
 7130TIP3   OH242804   2.970   6.498   4.453  0.0442  0.5211  0.3117
 7130TIP3    H142805   3.024   6.438   4.504  0.0365  0.0904 -0.1771
 7130TIP3    H242806   2.896   6.518   4.510 -0.9628 -1.4702 -0.2154
 7131TIP3   OH242807   2.248   4.265   4.078  0.5718  0.0906  0.4696
 7131TIP3    H142808   2.206   4.189   4.118  0.1752  0.6100  1.0548
 7131TIP3    H242809   2.249   4.246   3.984 -0.6306 -0.0967  0.4898
 7132TIP3   OH242810   2.230   2.082   1.904  0.1059 -0.7497 -0.4050
 7132TIP3    H142811   2.268   2.151   1.850 -1.3692 -0.4757 -1.1298
 7132TIP3    H242812   2.147   2.118   1.935 -1.4506 -2.7043 -2.0463
 7133TIP3   OH242813   6.231   4.879  14.349  0.4956  0.1886 -0.7606
 7133TIP3    H142814   6.175   4.956  14.336 -2.4856 -1.9328 -1.4568
 7133TIP3    H242815   6.301   4.889  14.283 -1.2133  1.1326 -2.5356
 7134TIP3   OH242816   5.405   4.813   1.929  0.9958  0.7454 -0.1357
 7134TIP3    H142817   5.364   4.899   1.919  1.0312  1.0970  2.2600
 7134TIP3    H242818   5.490   4.823   1.884  0.1209  1.2255 -1.7675
 7135TIP3   OH242819   0.385   3.712   3.113 -0.6568 -0.7618  0.3205
 7135TIP3    H142820   0.333   3.671   3.182  1.2178 -0.8312  1.7702
 7135TIP3    H242821   0.322   3.764   3.063 -2.1185 -0.8863  1.9541
 7136TIP3   OH242822   3.435   3.705  12.110  0.0283 -0.1110 -0.1233
 7136TIP3    H142823   3.361   3.660  12.067 -1.9405  0.4087  2.4797
 7136TIP3    H242824   3.499   3.635  12.126 -1.6049 -1.4511  0.9960
 7137TIP3   OH242825   2.108   3.735   3.140  0.4709  0.2795 -0.3195
 7137TIP3    H142826   2.050   3.752   3.066 -0.1618  0.7801  0.2859
 7137TIP3    H242827   2.074   3.790   3.211  0.7952 -0.5240  0.4805
 7138TIP3   OH242828   4.735   4.671   6.174  0.3002 -0.1004  0.5659
 7138TIP3    H142829   4.741   4.714   6.260 -1.1217 -0.0605  0.6714
 7138TIP3    H242830   4.825   4.672   6.141  0.6893  0.9097  1.5558
 7139TIP3   OH242831   6.308   3.084   2.265 -0.5305 -0.4022 -0.0106
 7139TIP3    H142832   6.260   3.025   2.324 -0.0607 -1.1005 -0.3066
 7139TIP3    H242833   6.241   3.142   2.229 -0.7571  0.4125  1.6164
 7140TIP3   OH242834   5.425   2.476   2.993  0.0709  0.4351 -0.3649
 7140TIP3    H142835   5.329   2.482   2.991  0.1019  1.1140 -0.3611
 7140TIP3    H242836   5.446   2.401   2.938 -0.4727  0.1576 -0.2030
 7141TIP3   OH242837   1.443   1.588  16.964 -0.2711  0.5334 -0.4751
 7141TIP3    H142838   1.491   1.647  17.022 -1.0465  0.6737  0.0523
 7141TIP3    H242839   1.360   1.574  17.009 -0.3758 -0.4011 -0.9348
 7142TIP3   OH242840   4.558   5.296  16.123 -0.4243 -0.5821  0.2595
 7142TIP3    H142841   4.543   5.233  16.053  0.5134  1.5419 -1.9973
 7142TIP3    H242842   4.646   5.275  16.156 -0.1044 -0.4485 -0.4936
 7143TIP3   OH242843   5.514   3.436  12.638  0.0831  0.8826  0.1253
 7143TIP3    H142844   5.465   3.399  12.711  1.3658  0.6736  0.9120
 7143TIP3    H242845   5.587   3.375  12.625  0.3820  1.4075 -0.7278
 7144TIP3   OH242846   6.236   6.663   0.402 -0.4066 -0.4507 -0.5417
 7144TIP3    H142847   6.330   6.649   0.408 -0.5517 -1.3133 -0.1065
 7144TIP3    H242848   6.207   6.600   0.336 -0.7235 -0.4415 -0.4138
 7145TIP3   OH242849   5.027   0.737  16.653 -0.2968  0.0067 -0.1661
 7145TIP3    H142850   4.944   0.690  16.645 -0.7734  0.4695  1.7290
 7145TIP3    H242851   5.021   0.807  16.588 -1.1329 -0.3136 -0.4485
 7146TIP3   OH242852   6.223   3.738  13.360 -0.3478  0.3377  0.2276
 7146TIP3    H142853   6.146   3.765  13.309  0.5749  2.0650 -0.3518
 7146TIP3    H242854   6.258   3.662  13.313 -0.8289  0.4939 -0.3982
 7147TIP3   OH242855   4.249   4.985   6.391 -0.0200 -0.5159  0.0624
 7147TIP3    H142856   4.306   5.062   6.387 -1.7242  0.8083 -0.1036
 7147TIP3    H242857   4.186   4.998   6.321 -0.4665 -1.9976  0.1518
 7148TIP3   OH242858   0.047   6.027  11.911  0.2803 -0.3437  0.2862
 7148TIP3    H142859   0.009   6.046  11.825 -0.8014 -1.0661  0.5797
 7148TIP3    H242860   0.109   6.098  11.927  0.2032  0.0118 -0.9121
 7149TIP3   OH242861   2.783   1.270   2.586 -0.1379 -0.0778 -0.0237
 7149TIP3    H142862   2.705   1.221   2.612  0.5746 -1.6344 -0.6877
 7149TIP3    H242863   2.759   1.362   2.599 -3.0137 -0.3021 -2.5427
 7150TIP3   OH242864   3.385   2.057   3.633  0.5286  0.2519 -0.4360
 7150TIP3    H142865   3.375   2.149   3.608  0.2542  0.2267 -0.4257
 7150TIP3    H242866   3.295   2.024   3.638  0.5553  0.3031  0.7493
 7151TIP3   OH242867   5.106   4.192  12.682  0.4785  0.1075  0.0207
 7151TIP3    H142868   5.184   4.185  12.736  1.1310 -1.4093 -1.0524
 7151TIP3    H242869   5.039   4.143  12.730 -0.0411  1.9173  1.2408
 7152TIP3   OH242870   0.278   0.846   6.483 -0.5786  0.1831 -0.5769
 7152TIP3    H142871   0.214   0.853   6.412 -1.1841  1.0341  0.0296
 7152TIP3    H242872   0.295   0.752   6.492 -0.9310  0.0308 -1.4575
 7153TIP3   OH242873   1.633   4.762   4.859 -0.6109  0.1814 -0.6637
 7153TIP3    H142874   1.585   4.681   4.845 -0.5989  0.0596 -0.0541
 7153TIP3    H242875   1.722   4.744   4.829 -0.3169 -0.4069  0.4892
 7154TIP3   OH242876   5.539   4.508   2.835  0.4906 -0.2605  0.8154
 7154TIP3    H142877   5.477   4.579   2.823  0.5263 -0.3777 -0.0945
 7154TIP3    H242878   5.625   4.550   2.835  0.5248 -0.3206  0.0594
 7155TIP3   OH242879   3.189   6.451  11.664  0.1346  0.2178 -0.8438
 7155TIP3    H142880   3.262   6.503  11.698 -3.1873  3.1349  2.7445
 7155TIP3    H242881   3.139   6.512  11.609 -1.1974 -0.7071 -0.7152
 7156TIP3   OH242882   3.284   2.864  15.525 -0.4924 -1.2181 -0.2129
 7156TIP3    H142883   3.317   2.945  15.564 -1.2294 -0.6235 -0.7972
 7156TIP3    H242884   3.361   2.824  15.484 -0.0065 -1.1182  0.5895
 7157TIP3   OH242885   6.102   1.790  10.752 -0.1777  0.0324 -0.0320
 7157TIP3    H142886   6.148   1.744  10.682 -1.6886 -1.5748 -0.0420
 7157TIP3    H242887   6.013   1.802  10.719 -0.5880  0.3385  1.1323
 7158TIP3   OH242888   5.419   5.711   2.096  0.4923 -0.6971 -0.4140
 7158TIP3    H142889   5.363   5.696   2.020 -1.1773 -0.6943  0.7580
 7158TIP3    H242890   5.386   5.650   2.162 -2.2380  3.2991  2.3716
 7159TIP3   OH242891   4.765   6.549  15.771 -0.0688  0.0235  0.2030
 7159TIP3    H142892   4.801   6.535  15.859  1.2998 -0.4953 -0.4060
 7159TIP3    H242893   4.728   6.465  15.747  0.0142  0.0198  0.0877
 7160TIP3   OH242894   2.127   1.688  11.713 -1.0032 -0.2795 -0.1386
 7160TIP3    H142895   2.198   1.739  11.674 -1.0795 -0.0855 -0.0238
 7160TIP3    H242896   2.118   1.612  11.656 -2.4929  0.9899 -1.7266
 7161TIP3   OH242897   4.380   0.666  16.454  0.0832 -0.5195 -0.2766
 7161TIP3    H142898   4.461   0.615  16.451 -0.5940 -1.6073 -1.0549
 7161TIP3    H242899   4.311   0.602  16.436 -1.2305 -0.1928  2.9274
 7162TIP3   OH242900   5.678   1.444   0.540  0.2228  0.2205  0.0832
 7162TIP3    H142901   5.631   1.478   0.464  1.1667 -0.2761 -0.7410
 7162TIP3    H242902   5.735   1.376   0.505  1.4588  0.7059  1.0594
 7163TIP3   OH242903   2.589   3.840   2.338 -0.0862  0.0491  0.6799
 7163TIP3    H142904   2.668   3.814   2.385  0.0138 -2.6880 -0.7997
 7163TIP3    H242905   2.620   3.864   2.250 -0.6294  1.6681  0.9090
 7164TIP3   OH242906   0.033   2.977  13.691 -0.6726  0.3180 -0.2044
 7164TIP3    H142907   0.108   3.036  13.691  0.8883 -1.5874 -0.0042
 7164TIP3    H242908  -0.034   3.023  13.743  0.3453  2.0209 -0.3280
 7165TIP3   OH242909   2.376   4.811  15.631  0.1506  0.2795 -0.4295
 7165TIP3    H142910   2.462   4.827  15.592 -0.9584  0.9897 -2.7868
 7165TIP3    H242911   2.360   4.718  15.618 -0.9524  0.7794 -3.6096
 7166TIP3   OH242912   6.439   4.408   1.592  0.3949 -0.3360  0.3251
 7166TIP3    H142913   6.416   4.324   1.551  0.7736 -1.0014  1.4168
 7166TIP3    H242914   6.355   4.451   1.607 -0.1340 -2.0424  2.8345
 7167TIP3   OH242915   4.133   2.630   0.957 -0.4860  0.1222 -0.0033
 7167TIP3    H142916   4.148   2.571   0.884 -0.3799 -1.0206  0.8993
 7167TIP3    H242917   4.215   2.631   1.006 -1.0671 -0.5267  1.0417
 7168TIP3   OH242918   4.636   6.620  15.481 -0.0781 -0.2635  0.2380
 7168TIP3    H142919   4.692   6.594  15.554  1.4648 -0.2035 -0.8904
 7168TIP3    H242920   4.696   6.635  15.408 -1.5037  0.5019 -0.8278
 7169TIP3   OH242921   3.057   2.922   2.178 -0.5762 -0.2618 -0.1746
 7169TIP3    H142922   3.109   2.973   2.115  1.6294 -1.3297  0.6934
 7169TIP3    H242923   3.077   2.962   2.263 -1.7143 -0.2973  0.1221
 7170TIP3   OH242924   5.894   1.678   1.345 -0.6632  0.0929 -0.6123
 7170TIP3    H142925   5.858   1.618   1.409 -0.5202  0.7052  0.0541
 7170TIP3    H242926   5.842   1.663   1.266 -0.3576 -1.1885 -0.5937
 7171TIP3   OH242927   0.341   3.921   6.390 -0.5447 -0.4024  0.5292
 7171TIP3    H142928   0.411   3.860   6.413  0.4507  0.5040 -0.0281
 7171TIP3    H242929   0.346   3.928   6.295 -1.4879 -0.4204  0.4679
 7172TIP3   OH242930   0.230   1.072   3.053 -0.2294 -0.2157 -1.2075
 7172TIP3    H142931   0.289   1.128   3.002  0.1264  0.4098 -0.1379
 7172TIP3    H242932   0.240   0.986   3.013  1.8752 -0.2638 -0.7051
 7173TIP3   OH242933   3.371   1.628   2.253 -0.1178 -0.0181 -0.1384
 7173TIP3    H142934   3.424   1.593   2.182  0.2355  1.4144 -0.6201
 7173TIP3    H242935   3.434   1.661   2.317 -0.4123 -2.0769  1.3268
 7174TIP3   OH242936   6.593   1.624  15.858  0.1165 -0.3515  0.5826
 7174TIP3    H142937   6.537   1.620  15.935 -0.1782  0.9067  0.4448
 7174TIP3    H242938   6.610   1.717  15.844  1.2580 -0.6323 -0.0955
 7175TIP3   OH242939   3.212   3.372  11.480 -0.1836 -0.1320  0.2309
 7175TIP3    H142940   3.143   3.433  11.507 -0.9365 -1.1106  0.5865
 7175TIP3    H242941   3.272   3.425  11.427 -2.4992  0.2617 -2.2207
 7176TIP3   OH242942   2.390   2.283  11.584 -0.0986 -1.2949 -0.0733
 7176TIP3    H142943   2.409   2.374  11.606 -1.2725 -1.3815  1.5294
 7176TIP3    H242944   2.307   2.286  11.538 -0.3000 -1.5610  0.2628
 7177TIP3   OH242945   2.886   1.185  11.381 -0.2289  0.5925  0.2758
 7177TIP3    H142946   2.951   1.232  11.434  1.1319 -0.8514 -0.0535
 7177TIP3    H242947   2.899   1.093  11.403 -1.0790  0.1453 -0.9919
 7178TIP3   OH242948   1.253   0.316  14.118  0.1859  0.1316 -0.6314
 7178TIP3    H142949   1.167   0.330  14.079  0.5635  0.1921 -1.4676
 7178TIP3    H242950   1.299   0.400  14.105  0.1533  0.3299  0.4096
 7179TIP3   OH242951   5.459   1.579   2.343  0.0471 -0.2215  0.1359
 7179TIP3    H142952   5.542   1.532   2.352  0.8510  0.7904 -1.4828
 7179TIP3    H242953   5.454   1.635   2.421  0.3763 -1.0328  0.7472
 7180TIP3   OH242954   0.977   5.462  12.178  0.1523 -0.3461  0.2248
 7180TIP3    H142955   1.032   5.510  12.115  1.3902 -3.0055 -0.8786
 7180TIP3    H242956   0.888   5.473  12.144  0.6206 -0.3698 -1.0675
 7181TIP3   OH242957   5.882   1.289   2.734  0.4201 -0.2097  0.4397
 7181TIP3    H142958   5.933   1.270   2.813 -0.5993 -1.5674  0.8118
 7181TIP3    H242959   5.948   1.307   2.667  1.3273  4.2863  2.2326
 7182TIP3   OH242960   4.591   4.111  14.733 -0.2019 -0.9107  0.0379
 7182TIP3    H142961   4.586   4.195  14.687  0.5581 -1.1163 -0.4410
 7182TIP3    H242962   4.524   4.058  14.691 -1.1858 -0.3340  0.8263
 7183TIP3   OH242963   6.214   0.709  11.824  0.0456  0.1895 -0.3401
 7183TIP3    H142964   6.182   0.758  11.900 -0.2872 -0.4380 -0.0640
 7183TIP3    H242965   6.159   0.738  11.752  0.4628  0.9030 -0.3786
 7184TIP3   OH242966   3.088   0.294   5.459  0.0550 -0.2153  0.4420
 7184TIP3    H142967   3.184   0.296   5.458  0.0471  0.1091  0.3705
 7184TIP3    H242968   3.062   0.385   5.465 -0.2709 -0.2093 -0.7778
 7185TIP3   OH242969   0.489   5.209  14.935 -0.5541 -0.2502 -0.1396
 7185TIP3    H142970   0.465   5.160  14.856 -3.6773 -0.5429  0.8172
 7185TIP3    H242971   0.545   5.149  14.984 -2.3894 -2.0392 -0.0861
 7186TIP3   OH242972   3.033   4.404   1.585 -0.0162  0.2513  0.3279
 7186TIP3    H142973   3.094   4.433   1.518 -1.7440  1.1108 -0.9346
 7186TIP3    H242974   2.953   4.381   1.538 -0.7358 -0.7436  1.9249
 7187TIP3   OH242975   1.543   3.054   2.434  0.2288  0.3304  0.1733
 7187TIP3    H142976   1.550   3.017   2.522 -1.9661  0.0722  0.3134
 7187TIP3    H242977   1.633   3.072   2.407  1.1366 -2.0114  1.4118
 7188TIP3   OH242978   1.415   5.649  12.968  0.0857 -0.0568 -0.2765
 7188TIP3    H142979   1.486   5.711  12.952  0.2221 -0.3745 -0.9572
 7188TIP3    H242980   1.445   5.568  12.926 -0.0225 -0.6306  0.7126
 7189TIP3   OH242981   5.366   2.257   1.122  0.4526 -0.2959 -0.1156
 7189TIP3    H142982   5.398   2.281   1.035  0.1049  1.6552  0.2523
 7189TIP3    H242983   5.285   2.210   1.105  0.9002 -0.8229 -0.8696
 7190TIP3   OH242984   0.471   4.923  11.120 -0.6765 -0.5325 -0.1603
 7190TIP3    H142985   0.416   4.904  11.196 -1.1788  0.0114 -0.3757
 7190TIP3    H242986   0.410   4.922  11.046 -0.2763 -0.5834 -0.4942
 7191TIP3   OH242987   6.223   2.723   3.984 -0.0711 -0.0223 -0.0274
 7191TIP3    H142988   6.201   2.630   3.991 -0.3395 -0.2858 -3.0761
 7191TIP3    H242989   6.300   2.726   3.927  0.8269  1.6067  1.1529
 7192TIP3   OH242990   5.997   0.359   5.500  0.2151 -0.6928 -0.2263
 7192TIP3    H142991   5.946   0.299   5.445 -1.5038 -1.0808  1.6732
 7192TIP3    H242992   6.049   0.301   5.556 -2.4849 -0.6577  2.5969
 7193TIP3   OH242993   2.127   3.769   2.080 -0.7226  0.2028 -0.5072
 7193TIP3    H142994   2.060   3.705   2.105 -0.2324  0.2755  1.0651
 7193TIP3    H242995   2.209   3.733   2.114 -0.0906  0.5853 -1.5795
 7194TIP3   OH242996   1.809   3.921  12.952 -0.0899 -0.4713  0.3416
 7194TIP3    H142997   1.887   3.944  12.902 -0.7693  1.0417 -0.0582
 7194TIP3    H242998   1.737   3.966  12.908 -0.7458  0.8104  2.5392
 7195TIP3   OH242999   1.884   5.034  11.243  0.0440 -0.4310  0.2185
 7195TIP3    H143000   1.958   5.039  11.304  0.5914  1.5718 -0.5218
 7195TIP3    H243001   1.925   5.046  11.157 -1.2194  2.0483 -0.1210
 7196TIP3   OH243002   0.819   5.771   0.553  0.2561  0.0263  0.0318
 7196TIP3    H143003   0.889   5.711   0.528 -0.4788 -0.4034 -1.0824
 7196TIP3    H243004   0.777   5.794   0.470 -0.0901  1.3240  0.5497
 7197TIP3   OH243005   3.606   5.598  17.122  0.6006 -0.5532 -0.0982
 7197TIP3    H143006   3.618   5.629  17.032  1.1796 -0.7182 -0.0824
 7197TIP3    H243007   3.547   5.523  17.114 -0.6494  0.4063 -0.1543
 7198TIP3   OH243008   3.007   2.999  12.622  0.1693  0.3228 -0.4756
 7198TIP3    H143009   2.956   2.919  12.633  2.2591 -0.8704  1.2660
 7198TIP3    H243010   3.079   2.974  12.564  1.2177  0.7414  0.6101
 7199TIP3   OH243011   1.861   5.335   0.354 -0.6377  0.5504  0.7355
 7199TIP3    H143012   1.809   5.411   0.379 -0.2160  0.4133  2.1525
 7199TIP3    H243013   1.927   5.369   0.295 -0.7941  1.1851  0.9174
 7200TIP3   OH243014   0.221   0.538   5.474  0.2029 -0.2095  0.4820
 7200TIP3    H143015   0.223   0.454   5.426 -0.6967 -1.0724  1.8949
 7200TIP3    H243016   0.159   0.523   5.546  0.4235  1.5207  1.0671
 7201TIP3   OH243017   6.661   1.139   3.915  0.2443  0.2402  0.1912
 7201TIP3    H143018   6.735   1.092   3.954 -0.2485 -0.7310 -0.0188
 7201TIP3    H243019   6.588   1.077   3.919 -0.0527  0.4414 -1.4335
 7202TIP3   OH243020   2.907   3.178   3.306  0.2740  0.3056  0.5532
 7202TIP3    H143021   2.894   3.268   3.333  1.2576  1.3530 -2.1242
 7202TIP3    H243022   2.928   3.131   3.386  1.8539  2.8791  1.7604
 7203TIP3   OH243023   5.719   6.686  15.593  0.6142 -0.0667  0.6316
 7203TIP3    H143024   5.768   6.670  15.673 -0.0531 -1.4574  0.7966
 7203TIP3    H243025   5.685   6.600  15.568 -0.4622  0.5978 -0.3014
 7204TIP3   OH243026   2.043   0.970  11.847  0.7343  0.1467  0.0203
 7204TIP3    H143027   2.112   0.995  11.785 -1.1296  1.1965 -1.7658
 7204TIP3    H243028   1.994   0.902  11.802 -0.6230  0.8812  0.3324
 7205TIP3   OH243029   2.492   4.802  12.945 -0.2117  0.6104 -0.2255
 7205TIP3    H143030   2.452   4.854  12.876 -0.0141 -1.9579 -2.4519
 7205TIP3    H243031   2.417   4.763  12.991 -0.3389  0.1094 -0.8453
 7206TIP3   OH243032   5.192   4.849   2.942  0.5489  0.2232 -0.2643
 7206TIP3    H143033   5.126   4.796   2.897 -1.9747  1.2018  2.0096
 7206TIP3    H243034   5.208   4.923   2.882 -0.3078 -0.1216 -0.9398
 7207TIP3   OH243035   6.444   6.409   1.476  0.5796 -0.0412  0.4411
 7207TIP3    H143036   6.431   6.349   1.549  0.4184 -1.0834 -0.4241
 7207TIP3    H243037   6.537   6.400   1.452  0.1599 -1.3103 -0.8285
 7208TIP3   OH243038   3.433   6.409  13.553  0.2139  0.1898  0.3296
 7208TIP3    H143039   3.513   6.377  13.597  1.3682  1.3681 -0.8132
 7208TIP3    H243040   3.465   6.477  13.493 -1.3904 -0.8640 -1.8076
 7209TIP3   OH243041   1.260   4.757  11.426 -0.3161  0.4847 -0.6207
 7209TIP3    H143042   1.264   4.698  11.351 -1.0027  1.4824 -1.4647
 7209TIP3    H243043   1.172   4.794  11.423  0.0939  1.5443 -0.1062
 7210TIP3   OH243044   3.148   3.922  16.260  0.8374  0.0748 -0.4132
 7210TIP3    H143045   3.214   3.856  16.280 -0.9540 -2.4713 -2.2018
 7210TIP3    H243046   3.172   3.955  16.174 -0.2016 -0.9750 -1.1417
 7211TIP3   OH243047   5.296   5.591   0.433 -0.1950 -0.1646  0.1617
 7211TIP3    H143048   5.333   5.636   0.509 -0.6354 -0.9319  0.8560
 7211TIP3    H243049   5.256   5.512   0.470 -2.0148  0.3411 -0.6256
 7212TIP3   OH243050   4.999   3.377   2.492 -0.4794 -0.0285 -0.1071
 7212TIP3    H143051   4.948   3.444   2.446 -0.2252  1.2287  1.3371
 7212TIP3    H243052   5.075   3.424   2.525  0.4115 -1.3544 -0.1901
 7213TIP3   OH243053   0.003   6.553  17.101  1.4909  0.2578  0.4698
 7213TIP3    H143054   0.068   6.620  17.122  0.1955  1.5662  0.4942
 7213TIP3    H243055  -0.080   6.601  17.096  0.7248 -1.1128 -0.9138
 7214TIP3   OH243056   6.116   3.465   3.623 -0.2378 -0.4355 -0.2469
 7214TIP3    H143057   6.120   3.514   3.541  0.6421  0.1584  0.1358
 7214TIP3    H243058   6.095   3.531   3.690  3.3651 -0.0065  0.6628
 7215TIP3   OH243059   1.038   4.033   0.239 -0.0586  0.2082  0.1635
 7215TIP3    H143060   1.000   4.110   0.281 -0.5627 -0.9107  1.8566
 7215TIP3    H243061   1.117   4.065   0.197  1.6907  1.1161  3.7857
 7216TIP3   OH243062   3.520   4.998  11.852  0.4651  0.0792  0.0144
 7216TIP3    H143063   3.489   4.912  11.822  1.0933  0.0090 -0.4348
 7216TIP3    H243064   3.440   5.051  11.858  0.2001 -0.2238 -0.7431
 7217TIP3   OH243065   3.826   4.836  16.315  0.6543 -0.4007  0.7303
 7217TIP3    H143066   3.749   4.780  16.322  0.5580 -0.3303  0.2733
 7217TIP3    H243067   3.804   4.914  16.366  0.0129  0.0596 -0.2179
 7218TIP3   OH243068   5.886   2.966  11.328 -0.5131 -0.1698 -0.0312
 7218TIP3    H143069   5.875   2.943  11.420  1.0844  0.9186  0.4674
 7218TIP3    H243070   5.836   3.047  11.317  0.1196  0.2516  0.1482
 7219TIP3   OH243071   4.822   5.282   3.215 -0.7645  0.1032  0.0588
 7219TIP3    H143072   4.743   5.336   3.207 -2.3526 -1.8463  1.3849
 7219TIP3    H243073   4.820   5.226   3.138 -0.9918 -0.2900  0.3433
 7220TIP3   OH243074   1.383   3.001   0.410 -0.0463  0.2134 -0.2243
 7220TIP3    H143075   1.366   3.081   0.359 -0.5248 -0.7581 -1.6664
 7220TIP3    H243076   1.336   2.933   0.363  0.4993 -0.9639  0.8785
 7221TIP3   OH243077   1.652   2.606  12.651 -0.5236 -0.0763  0.1773
 7221TIP3    H143078   1.568   2.563  12.637  0.8168 -3.1574  0.7416
 7221TIP3    H243079   1.650   2.633  12.743 -1.3107  0.9685 -0.1305
 7222TIP3   OH243080   2.448   5.436  13.996  0.1346 -0.2258  0.5231
 7222TIP3    H143081   2.379   5.421  13.931  0.4883 -0.9905  0.3096
 7222TIP3    H243082   2.472   5.528  13.985 -1.3861  0.2769  1.1389
 7223TIP3   OH243083   6.027   6.547  13.941  0.1217 -0.4374  0.0249
 7223TIP3    H143084   5.946   6.593  13.963 -0.3754 -1.6437  0.7999
 7223TIP3    H243085   6.096   6.613  13.954 -0.6944  0.5228 -0.3879
 7224TIP3   OH243086   2.984   4.267   2.389 -0.5341  0.2992  0.0102
 7224TIP3    H143087   2.960   4.350   2.349 -0.0713  0.9851  1.1236
 7224TIP3    H243088   3.077   4.256   2.369 -0.9717 -0.8601 -1.6629
 7225TIP3   OH243089   2.433   5.475   3.704  0.7648  0.0350  0.1225
 7225TIP3    H143090   2.471   5.540   3.645  2.6193 -1.6839 -0.6750
 7225TIP3    H243091   2.362   5.435   3.654 -0.4183  1.4170  0.6367
 7226TIP3   OH243092   2.581   1.223  13.435 -0.8639 -0.0331  1.2420
 7226TIP3    H143093   2.590   1.236  13.341  0.0654  0.2201  1.3555
 7226TIP3    H243094   2.552   1.132  13.444 -1.2007  0.0167  0.7065
 7227TIP3   OH243095   2.496   1.694   2.985  0.1471  0.0549 -0.1222
 7227TIP3    H143096   2.500   1.696   2.890  1.1006  0.6627 -0.0855
 7227TIP3    H243097   2.573   1.643   3.012  0.9898  1.5202  0.3595
 7228TIP3   OH243098   2.175   1.428   1.370 -0.1776  0.4897 -0.3996
 7228TIP3    H143099   2.207   1.500   1.316 -0.8366  0.4043 -0.9233
 7228TIP3    H243100   2.228   1.431   1.449 -0.1538  1.5078 -0.4467
 7229TIP3   OH243101   2.115   6.488   1.175 -0.1591  0.5632  0.1182
 7229TIP3    H143102   2.052   6.543   1.129 -0.5716 -1.4444 -1.9190
 7229TIP3    H243103   2.117   6.523   1.264 -1.4941  2.8593 -0.6715
 7230TIP3   OH243104   6.608   5.812   0.172  0.5686 -0.1155 -0.0815
 7230TIP3    H143105   6.625   5.898   0.211 -0.4839 -0.0463  0.2676
 7230TIP3    H243106   6.648   5.750   0.233  2.9072  0.1557 -1.2321
 7231TIP3   OH243107   6.209   3.036  15.974  0.1545 -0.4815  0.5464
 7231TIP3    H143108   6.222   3.122  15.934  1.2665  0.2015  2.2607
 7231TIP3    H243109   6.269   3.035  16.049 -0.0545 -2.6432  0.7444
 7232TIP3   OH243110   6.095   6.610   2.000  0.0284 -0.1231 -0.1538
 7232TIP3    H143111   6.112   6.625   1.906 -0.4423  0.0128 -0.2205
 7232TIP3    H243112   6.159   6.544   2.025 -1.1130 -1.6225 -1.0377
 7233TIP3   OH243113   0.775   3.799   4.646  0.2565  0.0166  0.2739
 7233TIP3    H143114   0.686   3.772   4.668 -0.8980  0.3087 -3.3545
 7233TIP3    H243115   0.788   3.881   4.695 -1.8461  0.4487  0.2022
 7234TIP3   OH243116   5.157   6.377  14.238  0.1946  0.1289  0.2733
 7234TIP3    H143117   5.096   6.393  14.310  0.1082 -0.1778  0.2705
 7234TIP3    H243118   5.219   6.450  14.242 -0.6279  0.8684 -0.2215
 7235TIP3   OH243119   0.750   0.542  12.977  0.0646 -0.1697  0.4161
 7235TIP3    H143120   0.660   0.562  12.953 -1.3726 -1.2026  4.2556
 7235TIP3    H243121   0.803   0.602  12.924 -2.6973 -0.2817 -2.7717
 7236TIP3   OH243122   5.363   2.203  14.183 -0.2921 -0.5149 -0.0644
 7236TIP3    H143123   5.284   2.232  14.136 -1.0836 -0.4695  1.2281
 7236TIP3    H243124   5.374   2.112  14.158  0.6175  0.0924 -2.0508
 7237TIP3   OH243125   4.571   1.405  16.877 -0.0596  0.6388  0.3767
 7237TIP3    H143126   4.524   1.451  16.946 -1.2570 -1.0340  0.7338
 7237TIP3    H243127   4.525   1.428  16.796 -0.5758  0.2086  0.5400
 7238TIP3   OH243128   1.457   2.915  13.074 -0.4806  0.2014 -0.5551
 7238TIP3    H143129   1.433   3.007  13.082 -1.3729 -0.0675 -0.0061
 7238TIP3    H243130   1.433   2.876  13.158 -0.7006 -0.6637 -1.0072
 7239TIP3   OH243131   3.786   6.690  16.137 -0.1619  0.1884  0.7242
 7239TIP3    H143132   3.779   6.740  16.219 -2.2718  1.6380 -0.2605
 7239TIP3    H243133   3.695   6.676  16.110  0.4878  0.2415 -1.6597
 7240TIP3   OH243134   6.371   0.101   5.406 -0.0512 -0.0280 -0.9534
 7240TIP3    H143135   6.378   0.009   5.380  2.3059  0.0515 -0.8918
 7240TIP3    H243136   6.402   0.102   5.497 -2.2310  0.5558 -0.1740
 7241TIP3   OH243137   1.370   0.327  11.020  0.2687  0.2442 -0.4551
 7241TIP3    H143138   1.353   0.244  10.976  0.3195 -1.0758  1.8255
 7241TIP3    H243139   1.454   0.357  10.983 -0.6663  0.3169 -2.6653
 7242TIP3   OH243140   1.165   3.818  15.615 -0.1447 -0.0445 -0.4300
 7242TIP3    H143141   1.165   3.846  15.524 -0.5136 -1.0598 -0.7627
 7242TIP3    H243142   1.206   3.890  15.663  0.6894  0.2079 -1.4892
 7243TIP3   OH243143   3.952   0.949  11.264 -0.1875  0.0560  0.3330
 7243TIP3    H143144   4.000   0.872  11.234 -0.0081  0.1834  0.2977
 7243TIP3    H243145   3.885   0.913  11.324 -0.5315 -0.1945 -0.1966
 7244TIP3   OH243146   0.253   6.578   2.245  0.1019 -0.0843  0.4821
 7244TIP3    H143147   0.292   6.630   2.315 -0.1363 -1.9802  2.1359
 7244TIP3    H243148   0.302   6.602   2.166  0.9487  1.5130  1.4356
 7245TIP3   OH243149   0.387   0.104  16.699  0.3475  0.0695 -0.0556
 7245TIP3    H143150   0.390   0.192  16.735 -0.7214  0.4428 -0.8137
 7245TIP3    H243151   0.358   0.116  16.608  3.6567 -0.7445 -1.3803
 7246TIP3   OH243152   2.099   5.392   0.192  0.7734 -1.1414 -0.0597
 7246TIP3    H143153   2.157   5.321   0.164  2.3766 -0.0373  0.3456
 7246TIP3    H243154   2.149   5.472   0.176 -1.0042 -0.0748 -0.5392
 7247TIP3   OH243155   4.939   4.494  12.780 -0.6081  0.2206 -0.6199
 7247TIP3    H143156   5.006   4.434  12.812 -0.1237  0.4479 -1.1718
 7247TIP3    H243157   4.918   4.549  12.855  0.8240  1.0328 -0.7726
 7248TIP3   OH243158   2.674   2.338   5.564  0.2656 -0.3974  0.2109
 7248TIP3    H143159   2.641   2.265   5.617  1.6999 -0.5723  0.9294
 7248TIP3    H243160   2.713   2.398   5.628 -0.6519  0.8868 -0.4016
 7249TIP3   OH243161   0.678   0.294  16.716  0.5391 -0.1478 -0.1128
 7249TIP3    H143162   0.633   0.281  16.799  0.5737 -0.1292 -0.0918
 7249TIP3    H243163   0.729   0.374  16.728  0.2268  0.0775 -0.2886
 7250TIP3   OH243164   6.313   2.543   0.125 -0.5817  0.2921 -0.3730
 7250TIP3    H143165   6.247   2.473   0.128 -0.7306  0.3702 -1.4855
 7250TIP3    H243166   6.337   2.549   0.033  0.4034  0.8215 -0.0929
 7251TIP3   OH243167   6.419   1.928   3.935 -0.0687 -0.4610 -0.6795
 7251TIP3    H143168   6.428   2.020   3.909 -2.3460 -0.4679 -1.7861
 7251TIP3    H243169   6.489   1.883   3.888  0.3779  0.5439 -1.0167
 7252TIP3   OH243170   5.829   5.467   3.300 -0.6760  0.0910  0.1244
 7252TIP3    H143171   5.828   5.501   3.210  1.3040 -1.3318 -0.5076
 7252TIP3    H243172   5.912   5.497   3.337 -1.2918  0.3305  1.3587
 7253TIP3   OH243173   0.011   2.519  16.799 -0.2549  0.7477 -0.6138
 7253TIP3    H143174   0.034   2.492  16.710 -1.1776 -0.7084 -0.4226
 7253TIP3    H243175   0.082   2.486  16.853 -0.9621 -0.6176 -0.4910
 7254TIP3   OH243176   2.690   5.930  17.233  0.2898 -0.2465 -0.7163
 7254TIP3    H143177   2.600   5.912  17.206  0.2604 -0.0794 -0.7308
 7254TIP3    H243178   2.697   6.025  17.232 -0.2477 -0.1126  1.5681
 7255TIP3   OH243179   0.567   2.567  12.907  0.4510  0.7097 -0.3300
 7255TIP3    H143180   0.611   2.600  12.829  1.8308  2.7087  1.1736
 7255TIP3    H243181   0.632   2.577  12.977 -0.3178 -2.0849  0.9177
 7256TIP3   OH243182   0.568   2.539   2.969 -0.4655  0.5740 -0.1354
 7256TIP3    H143183   0.629   2.504   3.033 -0.7356  0.5121  0.0895
 7256TIP3    H243184   0.592   2.632   2.961 -0.1253  0.4728 -0.3004
 7257TIP3   OH243185   3.695   1.264   0.932  0.0315 -0.7104  0.2748
 7257TIP3    H143186   3.778   1.281   0.976  0.7224 -1.5285 -0.6568
 7257TIP3    H243187   3.712   1.287   0.840 -0.6079 -1.3644 -0.0198
 7258TIP3   OH243188   1.847   5.128   5.609 -0.3943  0.3027  0.2498
 7258TIP3    H143189   1.925   5.137   5.554 -0.5067  1.1557  0.2088
 7258TIP3    H243190   1.881   5.129   5.698 -0.4094  1.6682  0.2694
 7259TIP3   OH243191   4.428   3.226   3.479 -0.0663  0.5397 -0.0097
 7259TIP3    H143192   4.401   3.317   3.475 -0.5027  0.4163  0.0264
 7259TIP3    H243193   4.407   3.190   3.393 -1.9313 -0.0619  0.6207
 7260TIP3   OH243194   1.717   2.708   1.230  0.6716  0.2440 -0.2107
 7260TIP3    H143195   1.671   2.681   1.309 -0.9584  0.8397 -0.9264
 7260TIP3    H243196   1.668   2.667   1.159  2.0983 -0.2631 -0.9380
 7261TIP3   OH243197   2.546   6.649   2.338 -0.0881 -0.2946  0.4937
 7261TIP3    H143198   2.491   6.600   2.400 -0.7772 -1.7418 -1.1569
 7261TIP3    H243199   2.606   6.698   2.393 -0.3663 -1.8509  2.3091
 7262TIP3   OH243200   6.108   5.867   1.855  0.3866  0.1700  1.2853
 7262TIP3    H143201   6.115   5.771   1.862  1.4647  0.0326 -0.8729
 7262TIP3    H243202   6.197   5.898   1.872  0.1360  0.7750  1.5121
 7263TIP3   OH243203   0.760   6.426  15.971  0.2398  0.1041  0.1293
 7263TIP3    H143204   0.827   6.360  15.984 -0.1933 -0.1683  1.1548
 7263TIP3    H243205   0.793   6.503  16.019  1.0971  0.9163 -1.6866
 7264TIP3   OH243206   2.453   4.415  12.755 -0.3438  0.6751  0.4506
 7264TIP3    H143207   2.473   4.327  12.787  0.4167  0.3908 -0.7413
 7264TIP3    H243208   2.359   4.425  12.769 -0.8117 -1.0859 -1.1028
 7265TIP3   OH243209   6.131   4.142  15.363  0.2055  0.0528 -0.0529
 7265TIP3    H143210   6.132   4.238  15.368  1.8897  0.2325 -2.2901
 7265TIP3    H243211   6.221   4.118  15.344 -0.1902 -2.0120  0.4390
 7266TIP3   OH243212   0.016   4.340   5.569 -0.5870 -0.6686 -0.3125
 7266TIP3    H143213  -0.039   4.320   5.645 -0.6835 -0.0615 -0.2123
 7266TIP3    H243214   0.097   4.375   5.606 -0.0951 -1.6384 -0.4589
 7267TIP3   OH243215   1.837   2.989   3.762  0.0260 -0.2945  0.1349
 7267TIP3    H143216   1.755   2.941   3.752  0.5440 -1.2184  0.2426
 7267TIP3    H243217   1.863   2.975   3.853 -0.4709  1.2823  0.5571
 7268TIP3   OH243218   5.075   6.516  10.643 -0.0309 -0.2043 -0.2410
 7268TIP3    H143219   5.109   6.474  10.721  2.2337 -1.3537 -1.7369
 7268TIP3    H243220   5.152   6.550  10.598 -1.3987  1.8840 -1.2144
 7269TIP3   OH243221   4.932   6.702  14.189  0.3229 -0.4062 -0.6068
 7269TIP3    H143222   4.900   6.649  14.117  0.9871  0.4778 -1.5785
 7269TIP3    H243223   4.978   6.774  14.147  0.4139  0.3238  0.6995
 7270TIP3   OH243224   2.496   5.963   1.398  0.0713 -0.0462  0.0543
 7270TIP3    H143225   2.428   5.936   1.459  1.5902  0.9667  2.3181
 7270TIP3    H243226   2.574   5.915   1.426  0.4816 -0.8439 -2.2027
 7271TIP3   OH243227   0.942   2.709   3.125  0.2742 -0.4141  0.0562
 7271TIP3    H143228   0.852   2.735   3.104  0.4252  0.1956  0.1335
 7271TIP3    H243229   0.974   2.668   3.045 -0.0451 -0.5472 -0.0039
 7272TIP3   OH243230   3.120   3.060   2.410 -0.0941  0.2895 -0.0950
 7272TIP3    H143231   3.190   3.025   2.465  0.1972  2.1811  0.7927
 7272TIP3    H243232   3.039   3.030   2.452  0.1429  1.0745  0.9458
 7273TIP3   OH243233   5.324   4.905   4.462 -0.9514  0.0388  0.5294
 7273TIP3    H143234   5.321   4.827   4.406  0.7336  0.6488 -0.4749
 7273TIP3    H243235   5.233   4.924   4.482 -1.4456 -1.6317  0.0095
 7274TIP3   OH243236   3.851   0.768   5.657  0.0169  0.7760  0.3922
 7274TIP3    H143237   3.907   0.837   5.691 -0.0325  0.4338  1.1816
 7274TIP3    H243238   3.787   0.753   5.726 -0.5869  0.6315 -0.1841
 7275TIP3   OH243239   2.483   0.630   1.022 -0.1229  0.8917  0.5391
 7275TIP3    H143240   2.520   0.548   0.990 -0.5919  1.2986 -1.1116
 7275TIP3    H243241   2.513   0.635   1.113  1.6301 -0.0979  0.0718
 7276TIP3   OH243242   1.851   6.108   0.474 -0.5900 -0.3369 -0.0250
 7276TIP3    H143243   1.839   6.193   0.432  0.9321 -0.4628 -0.7973
 7276TIP3    H243244   1.929   6.120   0.528  0.4647 -1.5921 -1.2033
 7277TIP3   OH243245   0.394   0.681   4.066 -0.0077 -0.2069  0.0444
 7277TIP3    H143246   0.324   0.682   4.132 -1.4603 -2.8773 -1.2859
 7277TIP3    H243247   0.464   0.630   4.106  0.2489  0.4841  0.4984
 7278TIP3   OH243248   1.765   4.288  11.398  0.1982  0.4692  0.2430
 7278TIP3    H143249   1.742   4.380  11.383  0.5954  0.4009 -0.8368
 7278TIP3    H243250   1.686   4.250  11.438  0.1903  1.3768  1.1209
 7279TIP3   OH243251   3.134   6.424   4.904  0.0573  0.3667  0.1950
 7279TIP3    H143252   3.229   6.421   4.906  0.0388 -2.8238  1.3214
 7279TIP3    H243253   3.107   6.395   4.991 -1.8846 -2.0854 -1.0973
 7280TIP3   OH243254   4.414   2.203   1.203  0.0739 -0.4310 -0.4580
 7280TIP3    H143255   4.422   2.202   1.298  2.6708 -0.5017 -0.6173
 7280TIP3    H243256   4.320   2.191   1.187 -0.3682 -0.8801  2.0602
 7281TIP3   OH243257   1.010   3.675  17.238  0.5711 -0.3011 -0.4151
 7281TIP3    H143258   1.047   3.743  17.181 -0.4954 -0.3321 -1.1848
 7281TIP3    H243259   0.985   3.722  17.318  0.1945  0.1527 -0.7910
 7282TIP3   OH243260   1.292   3.207   1.818  0.1094  1.0427 -0.3839
 7282TIP3    H143261   1.207   3.214   1.861  0.4072 -0.5122  0.5547
 7282TIP3    H243262   1.355   3.228   1.886  0.5172  0.7302 -0.6636
 7283TIP3   OH243263   1.471   1.022   4.621 -0.1714  0.2573  0.2112
 7283TIP3    H143264   1.467   1.050   4.530  1.0563  0.6445  0.2542
 7283TIP3    H243265   1.535   0.951   4.621 -0.6028 -0.1399  0.6831
 7284TIP3   OH243266   0.773   0.161  17.132  0.2535 -0.3019  0.2859
 7284TIP3    H143267   0.855   0.127  17.096  0.6423  0.0861  0.7889
 7284TIP3    H243268   0.709   0.091  17.117  0.9014 -1.0240  0.7734
 7285TIP3   OH243269   6.306   2.373  14.674  0.0344  0.0632 -0.7898
 7285TIP3    H143270   6.306   2.332  14.760  1.2860 -0.0552 -0.8326
 7285TIP3    H243271   6.244   2.321  14.623 -0.3792 -0.1427 -0.0915
 7286TIP3   OH243272   0.612   6.726  12.684  0.5083  0.5222  0.6450
 7286TIP3    H143273   0.631   6.764  12.770  0.1017  2.7091 -0.1601
 7286TIP3    H243274   0.698   6.701  12.650  1.1081  2.5534  0.4754
 7287TIP3   OH243275   1.438   1.479  16.682 -0.1083 -1.0410 -0.1688
 7287TIP3    H143276   1.362   1.485  16.740  0.0183 -0.0077 -0.0976
 7287TIP3    H243277   1.411   1.418  16.613 -1.7236  0.7652 -1.2170
 7288TIP3   OH243278   4.598   4.196  17.053 -0.9356  0.1122  1.2946
 7288TIP3    H143279   4.668   4.133  17.035 -0.6552  0.5057  0.9880
 7288TIP3    H243280   4.562   4.218  16.967  0.3671  1.9514  1.1582
 7289TIP3   OH243281   1.376   4.062   1.212  0.4599 -0.8366 -0.1107
 7289TIP3    H143282   1.287   4.095   1.223  0.1373 -0.3902 -3.0806
 7289TIP3    H243283   1.383   3.990   1.274 -1.8305 -0.6013  0.5130
 7290TIP3   OH243284   2.755   6.657  12.647  0.0832  0.2521 -0.1477
 7290TIP3    H143285   2.662   6.647  12.665 -0.3655  3.9848  0.4591
 7290TIP3    H243286   2.798   6.633  12.729 -0.3997 -0.5174 -0.1120
 7291TIP3   OH243287   5.697   5.933   6.391 -0.3543  0.8448  0.0613
 7291TIP3    H143288   5.753   5.991   6.340  0.4114  0.4545  0.4426
 7291TIP3    H243289   5.697   5.971   6.479  0.8038 -0.1505  0.5155
 7292TIP3   OH243290   5.207   2.188  12.727 -0.8514  0.2794  0.1586
 7292TIP3    H143291   5.288   2.138  12.723 -0.4381  0.9489  0.0286
 7292TIP3    H243292   5.227   2.262  12.785 -1.8388 -0.3805  1.3950
 7293TIP3   OH243293   5.648   3.240   1.376  0.2555  0.2828 -0.0726
 7293TIP3    H143294   5.645   3.288   1.459  0.0797  3.1255 -1.5934
 7293TIP3    H243295   5.560   3.251   1.339  0.1218 -1.5390 -0.4011
 7294TIP3   OH243296   5.546   2.698  12.960 -0.0656  0.0999  0.3322
 7294TIP3    H143297   5.586   2.675  12.877  0.1612  0.3046  0.3867
 7294TIP3    H243298   5.575   2.629  13.021  1.6108  1.1659  0.7969
 7295TIP3   OH243299   5.276   5.886  15.921 -0.0359  0.5331 -0.1665
 7295TIP3    H143300   5.189   5.892  15.962  0.8450  1.1599  1.6843
 7295TIP3    H243301   5.309   5.801  15.949  1.1256  1.5282  1.6627
 7296TIP3   OH243302   0.302   3.893   5.579 -0.9501 -0.0950 -0.0983
 7296TIP3    H143303   0.254   3.960   5.529 -2.8790 -0.9793  0.4775
 7296TIP3    H243304   0.319   3.824   5.515 -0.4410  0.2192 -0.3051
 7297TIP3   OH243305   2.571   0.244   2.124 -0.2512  0.0929 -0.2371
 7297TIP3    H143306   2.487   0.212   2.156 -0.7061  1.6005  0.1853
 7297TIP3    H243307   2.610   0.290   2.198  0.0874  0.9847 -0.9357
 7298TIP3   OH243308   0.567   0.706   2.371 -0.2790 -0.5234  0.3005
 7298TIP3    H143309   0.569   0.769   2.442 -0.3088  0.4761 -0.5640
 7298TIP3    H243310   0.484   0.722   2.326  0.6906  0.3730 -1.2746
 7299TIP3   OH243311   1.669   0.923  12.334 -0.0406 -0.1391  0.5131
 7299TIP3    H143312   1.732   0.993  12.313 -1.0223  0.2167 -1.5708
 7299TIP3    H243313   1.599   0.968  12.381 -0.4584  0.2245 -0.4298
 7300TIP3   OH243314   0.242   6.712  17.090  0.0455 -0.0775 -0.3541
 7300TIP3    H143315   0.244   6.808  17.093 -0.2683 -0.0789  0.0665
 7300TIP3    H243316   0.225   6.692  16.998  2.4770  0.1978 -0.9092
 7301TIP3   OH243317   5.930   1.556   1.856 -0.3020 -0.0255  0.5778
 7301TIP3    H143318   5.858   1.617   1.843 -1.8189 -2.0159 -0.8870
 7301TIP3    H243319   5.997   1.584   1.793 -0.3148  1.0152  1.0066
 7302TIP3   OH243320   2.056   1.474   4.168  0.0696  0.3377  0.3388
 7302TIP3    H143321   2.146   1.496   4.146 -0.5692  1.4813 -1.3573
 7302TIP3    H243322   2.015   1.558   4.187 -0.4580 -0.2481  2.0145
 7303TIP3   OH243323   4.913   6.402  11.583 -0.5513 -0.1819 -0.6400
 7303TIP3    H143324   4.947   6.342  11.517 -0.0941 -0.0541 -0.5239
 7303TIP3    H243325   4.937   6.489  11.551  1.7565 -0.1986  0.8049
 7304TIP3   OH243326   5.311   2.777   3.194  0.6894 -0.4509  0.7127
 7304TIP3    H143327   5.256   2.826   3.255  0.3670  0.3609 -0.1997
 7304TIP3    H243328   5.320   2.690   3.233 -0.4742 -0.3086  1.3276
 7305TIP3   OH243329   1.426   6.433   2.602  0.8920  0.0278 -0.1992
 7305TIP3    H143330   1.365   6.445   2.674  2.8233  1.3335  1.3291
 7305TIP3    H243331   1.416   6.513   2.549  0.8998  0.0124 -0.2239
 7306TIP3   OH243332   3.942   0.705   4.081 -0.2578 -0.7384 -0.1779
 7306TIP3    H143333   4.003   0.775   4.055  0.5358 -1.6135 -0.7608
 7306TIP3    H243334   3.957   0.694   4.175  0.2055 -0.6724 -0.2400
 7307TIP3   OH243335   2.953   1.314   5.249  0.5716  0.1502 -0.5560
 7307TIP3    H143336   2.926   1.226   5.272  1.4822 -0.1241 -0.5069
 7307TIP3    H243337   2.972   1.356   5.333 -2.1392  1.1859 -0.3804
 7308TIP3   OH243338   5.953   4.821  12.593  0.3013  0.2537  0.8390
 7308TIP3    H143339   5.969   4.733  12.629  0.0694  0.6203  1.8522
 7308TIP3    H243340   5.902   4.866  12.660  2.4920  2.0015  1.4714
 7309TIP3   OH243341   2.797   3.879   4.233 -0.8018  0.9952  0.0846
 7309TIP3    H143342   2.769   3.838   4.151 -1.6034 -0.7646  1.1714
 7309TIP3    H243343   2.886   3.847   4.247 -0.8438  0.8904  0.1208
 7310TIP3   OH243344   1.932   3.745   4.622  0.1089 -0.4363 -0.6193
 7310TIP3    H143345   1.899   3.783   4.540 -0.9739 -0.2489 -0.1148
 7310TIP3    H243346   1.941   3.819   4.681  2.1936 -0.3760 -0.9556
 7311TIP3   OH243347   4.211   6.274  14.358 -0.0833  0.3075 -0.3370
 7311TIP3    H143348   4.288   6.258  14.304  0.1053 -0.4767  0.1527
 7311TIP3    H243349   4.162   6.191  14.356 -0.0245  0.2307  0.7587
 7312TIP3   OH243350   5.899   2.358   2.480 -0.2244 -0.0791  0.0826
 7312TIP3    H143351   5.875   2.391   2.567  2.9868 -0.7977  1.4180
 7312TIP3    H243352   5.916   2.436   2.428  0.5857  0.4357  1.0620
 7313TIP3   OH243353   0.497   5.153   0.466 -0.0827 -0.2131  0.5774
 7313TIP3    H143354   0.550   5.231   0.454  0.5506 -0.9494 -1.9207
 7313TIP3    H243355   0.457   5.137   0.381 -1.5053 -1.7147  1.4536
 7314TIP3   OH243356   4.701   5.540  15.198  0.0045  0.4610  0.3616
 7314TIP3    H143357   4.665   5.534  15.286 -1.0864  2.7251  0.1410
 7314TIP3    H243358   4.630   5.511  15.141  0.2747  0.1911  0.1597
 7315TIP3   OH243359   4.699   1.904   1.600  0.0555 -0.2547 -0.3728
 7315TIP3    H143360   4.633   1.836   1.614  0.0165 -0.3310 -0.8936
 7315TIP3    H243361   4.699   1.955   1.681 -0.3679 -0.4886 -0.2228
 7316TIP3   OH243362   4.090   1.576  14.102  0.0330  0.2921 -0.3229
 7316TIP3    H143363   4.022   1.601  14.040  1.0896  2.3758 -0.7409
 7316TIP3    H243364   4.172   1.597  14.057  0.8765  0.0160  1.0297
 7317TIP3   OH243365   0.122   0.947  13.231 -0.1552  0.2508  0.3207
 7317TIP3    H143366   0.168   0.992  13.161 -1.2826  2.2632  0.7798
 7317TIP3    H243367   0.171   0.866  13.245  1.1045  0.6334 -1.5689
 7318TIP3   OH243368   1.231   0.055  11.709  0.2761 -0.2182 -0.3586
 7318TIP3    H143369   1.150   0.005  11.709  0.0071  0.2115 -0.7150
 7318TIP3    H243370   1.270   0.037  11.624 -0.0765  0.5772 -0.6970
 7319TIP3   OH243371   0.324   6.350   5.760 -0.3389  0.1893  0.0260
 7319TIP3    H143372   0.347   6.417   5.695  0.9523 -1.7724 -1.6924
 7319TIP3    H243373   0.235   6.324   5.736 -0.1149 -0.0580 -0.5603
 7320TIP3   OH243374   0.109   0.277  16.740 -0.1906 -0.5073 -0.1955
 7320TIP3    H143375   0.100   0.184  16.720  2.2952 -0.3232 -2.7914
 7320TIP3    H243376   0.198   0.286  16.775  0.6035  1.1066 -2.3629
 7321TIP3   OH243377   3.111   2.874   3.819  0.3974 -0.4078 -0.1359
 7321TIP3    H143378   3.105   2.932   3.895 -2.1482 -1.0015  0.1973
 7321TIP3    H243379   3.054   2.915   3.753  2.1753 -0.1605 -1.5997
 7322TIP3   OH243380   1.995   3.577   1.719 -0.2491  1.2944  0.5603
 7322TIP3    H143381   2.011   3.483   1.721 -0.1562  1.2874 -0.1581
 7322TIP3    H243382   1.925   3.588   1.654  0.3829  1.8029 -0.0455
 7323TIP3   OH243383   2.247   5.223  14.066 -0.2863  0.0835 -0.6699
 7323TIP3    H143384   2.245   5.275  13.987 -0.8110 -0.3914 -0.9821
 7323TIP3    H243385   2.199   5.275  14.131 -0.4671  0.1589 -0.8656
 7324TIP3   OH243386   1.377   3.082  15.189  0.4140  0.3600  0.1078
 7324TIP3    H143387   1.426   3.149  15.238  0.4209 -0.7610  1.7169
 7324TIP3    H243388   1.286   3.096  15.215  0.5034 -0.7123  1.0900
 7325TIP3   OH243389   2.233   4.526   0.176  0.4777  0.8484  0.0613
 7325TIP3    H143390   2.182   4.451   0.207  1.6128  0.6906  1.7135
 7325TIP3    H243391   2.175   4.601   0.188 -0.3053  0.3638 -0.6449
 7326TIP3   OH243392   1.171   3.694   0.812 -0.4782  0.2424  0.2686
 7326TIP3    H143393   1.240   3.755   0.784  1.3930 -0.0439  3.7275
 7326TIP3    H243394   1.206   3.608   0.792 -0.2094  0.1273  1.1947
 7327TIP3   OH243395   1.147   1.947   0.824 -0.1717  0.4294  0.4443
 7327TIP3    H143396   1.213   2.014   0.804 -0.6713  1.4686  2.0715
 7327TIP3    H243397   1.064   1.992   0.812 -0.5312 -0.1127  0.8600
 7328TIP3   OH243398   0.195   1.029  11.979 -0.2714 -0.1156 -0.5296
 7328TIP3    H143399   0.189   1.005  12.071  1.9705 -1.0280 -0.5645
 7328TIP3    H243400   0.189   1.125  11.978 -0.3638 -0.1050  0.5416
 7329TIP3   OH243401   6.166   0.847   4.226  0.0675 -0.2614  0.2743
 7329TIP3    H143402   6.089   0.881   4.271 -1.5408  0.2137 -2.5925
 7329TIP3    H243403   6.215   0.925   4.200 -0.3887 -0.3569 -0.9492
 7330TIP3   OH243404   3.228   3.305   5.069  0.1019 -0.5052 -0.2576
 7330TIP3    H143405   3.313   3.263   5.054  1.0201  1.1871 -0.0670
 7330TIP3    H243406   3.229   3.327   5.162 -0.1084  0.4212 -0.4652
 7331TIP3   OH243407   6.367   5.244   3.349 -0.6183 -0.1100  0.6471
 7331TIP3    H143408   6.323   5.221   3.431 -0.1133  1.5804  1.4174
 7331TIP3    H243409   6.408   5.329   3.366 -0.1331  0.0692 -1.2233
 7332TIP3   OH243410   1.419   1.599  11.373  0.6268 -0.6490 -0.4609
 7332TIP3    H143411   1.368   1.648  11.308  0.2602  1.0279  0.9780
 7332TIP3    H243412   1.364   1.523  11.394  0.5948 -1.0180 -1.8256
 7333TIP3   OH243413   2.681   1.256   0.860 -0.4583 -0.1518 -0.5108
 7333TIP3    H143414   2.624   1.329   0.833 -1.3796 -1.3554 -2.0418
 7333TIP3    H243415   2.745   1.248   0.789  1.9923  1.4081  1.3497
 7334TIP3   OH243416   3.541   2.145  16.882  0.2811  0.5969 -0.5244
 7334TIP3    H143417   3.539   2.161  16.977  1.7700 -2.5653  0.1842
 7334TIP3    H243418   3.634   2.149  16.859  0.1660 -0.8857 -1.3506
 7335TIP3   OH243419   4.281   4.696  12.349  0.0722  0.0171 -0.1923
 7335TIP3    H143420   4.294   4.705  12.443 -0.7804  1.0831 -0.1483
 7335TIP3    H243421   4.340   4.761  12.310 -1.0118  0.9931 -0.2650
 7336TIP3   OH243422   5.872   3.736   4.713  0.0342  0.1585 -0.4702
 7336TIP3    H143423   5.827   3.821   4.715  0.1681  0.2165  0.0307
 7336TIP3    H243424   5.874   3.713   4.620  0.2930  0.8615 -0.6462
 7337TIP3   OH243425   4.970   6.668  13.568 -0.5118 -0.4135 -0.1265
 7337TIP3    H143426   5.051   6.666  13.619 -1.3005 -1.9470  1.1716
 7337TIP3    H243427   4.907   6.713  13.625 -0.8799 -0.3002 -0.6141
 7338TIP3   OH243428   2.107   1.766  12.786 -0.6737 -0.2747 -0.4120
 7338TIP3    H143429   2.187   1.743  12.834 -0.1347  0.1024 -1.1144
 7338TIP3    H243430   2.070   1.681  12.760 -0.2852 -0.4437 -0.4234
 7339TIP3   OH243431   3.424   2.034   1.311  0.2593 -0.2338 -0.5512
 7339TIP3    H143432   3.505   1.983   1.300  0.7222  0.1866  0.7219
 7339TIP3    H243433   3.454   2.125   1.311 -0.2545 -0.0666 -0.2977
 7340TIP3   OH243434   0.969   4.005   4.334  0.1243  0.5937 -0.0720
 7340TIP3    H143435   0.994   4.011   4.242  0.8176 -1.1132 -0.0359
 7340TIP3    H243436   0.880   4.039   4.337 -0.1934 -0.0286 -1.5286
 7341TIP3   OH243437   6.122   4.698  15.334  0.6922 -0.4795 -0.0266
 7341TIP3    H143438   6.032   4.725  15.352  0.8395 -0.5307  0.8088
 7341TIP3    H243439   6.155   4.764  15.273  0.8530  0.9144  1.5059
 7342TIP3   OH243440   2.246   3.326  15.222 -0.2766  0.5169  0.6583
 7342TIP3    H143441   2.237   3.288  15.135  0.8794  1.9047 -0.1239
 7342TIP3    H243442   2.265   3.251  15.279  1.5690 -0.1698 -0.7507
 7343TIP3   OH243443   4.163   2.274   4.216  0.4209 -0.1953  0.5204
 7343TIP3    H143444   4.102   2.217   4.264 -0.8965  1.8035  1.3247
 7343TIP3    H243445   4.203   2.216   4.151 -0.7871 -2.0518  1.3345
 7344TIP3   OH243446   0.532   3.005  17.182 -0.0766 -0.1766  0.3154
 7344TIP3    H143447   0.446   2.982  17.216  0.1847  1.5245  2.3035
 7344TIP3    H243448   0.516   3.084  17.129  0.2851  0.3330  0.9546
 7345TIP3   OH243449   5.124   5.957   1.212  0.5671  0.5058  0.3461
 7345TIP3    H143450   5.144   6.012   1.288 -0.4492  1.0320  0.2435
 7345TIP3    H243451   5.032   5.933   1.223  0.7513 -0.4166 -0.0929
 7346TIP3   OH243452   1.456   3.363   5.833 -1.1634  0.4792  0.2640
 7346TIP3    H143453   1.447   3.433   5.898  0.3898  1.2283 -0.2873
 7346TIP3    H243454   1.523   3.394   5.773 -1.9183 -0.6070 -1.1988
 7347TIP3   OH243455   1.674   3.717  13.643  0.0347 -0.5217 -0.2019
 7347TIP3    H143456   1.700   3.667  13.720 -0.4655 -0.6794 -0.1353
 7347TIP3    H243457   1.732   3.793  13.643 -0.7537  0.1084  1.0009
 7348TIP3   OH243458   0.106   1.496   0.727  0.0076 -0.1868 -0.6388
 7348TIP3    H143459   0.071   1.576   0.688  0.2613  0.0445 -0.3993
 7348TIP3    H243460   0.030   1.455   0.768  0.2015  0.9508  0.9751
 7349TIP3   OH243461   1.785   2.838   1.995  0.0972  0.2356 -0.2506
 7349TIP3    H143462   1.707   2.785   2.014 -0.0753 -0.0319 -1.5451
 7349TIP3    H243463   1.752   2.928   1.993  0.3046  0.3851  1.5218
 7350TIP3   OH243464   5.219   3.358   4.182 -0.5294  0.1594 -0.2097
 7350TIP3    H143465   5.304   3.341   4.223 -0.9526 -0.0727  0.5939
 7350TIP3    H243466   5.162   3.384   4.255 -1.6549 -1.5271 -0.4387
 7351TIP3   OH243467   2.733   0.488   5.296  0.1517  0.2068 -0.0161
 7351TIP3    H143468   2.644   0.521   5.309  0.0339  0.2921 -1.0040
 7351TIP3    H243469   2.736   0.407   5.348  0.0658  1.1031  1.4503
 7352TIP3   OH243470   4.046   2.946   3.058 -0.5894  0.9101  0.0887
 7352TIP3    H143471   3.961   2.988   3.050 -0.7466  0.7629  0.9210
 7352TIP3    H243472   4.029   2.866   3.108 -0.4833 -0.7532 -2.3672
 7353TIP3   OH243473   4.688   2.274   4.758 -0.1679 -0.0312  0.2263
 7353TIP3    H143474   4.652   2.357   4.727  1.3134  1.0473  1.2729
 7353TIP3    H243475   4.651   2.263   4.846  2.3329  1.3774  1.5507
 7354TIP3   OH243476   0.411   6.732  11.893 -0.1708  0.2247  0.3019
 7354TIP3    H143477   0.442   6.699  11.809  2.0530  1.4744  0.5346
 7354TIP3    H243478   0.448   6.672  11.958  1.5890  1.5032  0.5601
 7355TIP3   OH243479   4.489   4.409   5.562  0.1288  0.1322 -0.0761
 7355TIP3    H143480   4.464   4.443   5.648  2.1900  0.0170  0.6111
 7355TIP3    H243481   4.535   4.482   5.520 -0.6129  0.0921 -1.0011
 7356TIP3   OH243482   2.602   0.850  13.479 -0.3102  0.6442  0.6190
 7356TIP3    H143483   2.576   0.912  13.547 -0.1107 -0.2548  1.5426
 7356TIP3    H243484   2.594   0.764  13.520  1.0233  0.1480 -0.0924
 7357TIP3   OH243485   2.371   3.603  11.715 -0.1048  0.4682 -0.2289
 7357TIP3    H143486   2.365   3.689  11.673 -1.4300  0.3895 -0.2237
 7357TIP3    H243487   2.296   3.599  11.774  0.7349 -0.1423  0.8456
 7358TIP3   OH243488   5.518   0.316  13.236 -0.5536  0.2920  0.4230
 7358TIP3    H143489   5.457   0.333  13.164 -0.7246  1.2188  0.7716
 7358TIP3    H243490   5.567   0.239  13.208  0.9460  1.9247 -1.7429
 7359TIP3   OH243491   0.180   0.953   1.659 -0.3245 -0.5734 -0.3954
 7359TIP3    H143492   0.266   0.979   1.627 -0.6779  0.5330 -0.5019
 7359TIP3    H243493   0.198   0.906   1.741  0.4851 -2.1130 -1.3983
 7360TIP3   OH243494   1.575   1.851   5.141  0.1532 -0.4454  0.4275
 7360TIP3    H143495   1.636   1.852   5.215 -0.6915 -0.6643  1.1357
 7360TIP3    H243496   1.491   1.875   5.179 -0.4047 -1.1099 -0.3576
 7361TIP3   OH243497   3.707   0.925  11.106  0.1862 -0.0888  0.1866
 7361TIP3    H143498   3.797   0.948  11.082  0.3482 -0.0914  0.7705
 7361TIP3    H243499   3.716   0.845  11.158  0.0561  1.0649  2.0518
 7362TIP3   OH243500   4.611   6.173   3.305 -0.2347  0.2260 -0.0887
 7362TIP3    H143501   4.551   6.103   3.328  0.4592 -0.9888 -1.8003
 7362TIP3    H243502   4.695   6.146   3.342 -0.2062  0.7545  0.2536
 7363TIP3   OH243503   6.490   0.642  11.250  0.7319  0.2504 -0.0210
 7363TIP3    H143504   6.401   0.608  11.237  0.5228  1.5112 -2.4129
 7363TIP3    H243505   6.547   0.571  11.221  0.6049 -0.8277  2.1632
 7364TIP3   OH243506   2.291   1.795  12.979 -0.8602  0.2038 -0.0069
 7364TIP3    H143507   2.251   1.873  13.019 -1.8638 -0.3494  0.0852
 7364TIP3    H243508   2.354   1.764  13.045 -0.9842  0.5139  0.2596
 7365TIP3   OH243509   3.252   0.060  17.248 -0.3763 -0.2705 -0.0729
 7365TIP3    H143510   3.240   0.154  17.233  0.2817 -0.2395 -0.4478
 7365TIP3    H243511   3.347   0.048  17.248 -0.4102 -0.7167  1.3865
 7366TIP3   OH243512   2.893   6.576  16.080 -0.1996  0.1325 -0.3701
 7366TIP3    H143513   2.854   6.631  16.012  0.3491  1.5358  0.4130
 7366TIP3    H243514   2.964   6.529  16.035 -0.2026  0.6183 -0.8866
 7367TIP3   OH243515   3.740   0.045   2.721  0.1984 -0.4518  0.5914
 7367TIP3    H143516   3.835   0.058   2.721  0.4041 -1.5209 -1.3605
 7367TIP3    H243517   3.708   0.106   2.654 -0.3839 -0.7051  0.6363
 7368TIP3   OH243518   0.291   3.614  15.226  0.0549 -0.2519 -0.3882
 7368TIP3    H143519   0.234   3.613  15.149  0.0797 -0.8348 -0.4047
 7368TIP3    H243520   0.255   3.682  15.282  1.4304  1.8815 -1.9429
 7369TIP3   OH243521   0.601   1.880   4.307  0.2166 -0.2823  0.0800
 7369TIP3    H143522   0.667   1.918   4.365 -0.6125  0.8703  0.3071
 7369TIP3    H243523   0.645   1.805   4.266  1.4931  0.1612  0.5905
 7370TIP3   OH243524   0.080   2.165  15.885 -0.1547  0.2549 -0.0430
 7370TIP3    H143525   0.100   2.226  15.956 -1.6912  1.9119 -0.9568
 7370TIP3    H243526   0.026   2.216  15.824 -1.8699 -2.1219 -0.6624
 7371TIP3   OH243527   6.472   0.873   3.629  0.1103  0.8383 -0.0904
 7371TIP3    H143528   6.385   0.858   3.594  1.3463  0.0781 -3.0967
 7371TIP3    H243529   6.502   0.953   3.587  1.0105  0.9337  0.6899
 7372TIP3   OH243530   3.395   5.518  12.260  0.2000 -0.1029 -0.3134
 7372TIP3    H143531   3.409   5.510  12.354  2.2128  0.2054 -0.5282
 7372TIP3    H243532   3.459   5.459  12.221 -1.5341 -1.2820 -1.5079
 7373TIP3   OH243533   4.209   6.189  13.139  0.4132  0.5839  0.4589
 7373TIP3    H143534   4.229   6.238  13.060  0.4354  0.4488  0.3803
 7373TIP3    H243535   4.156   6.115  13.108  1.7622 -0.3789  0.3464
 7374TIP3   OH243536   3.147   5.781  16.297 -0.0701 -0.0517 -0.2779
 7374TIP3    H143537   3.099   5.722  16.240 -1.4338 -0.9170  1.6620
 7374TIP3    H243538   3.239   5.763  16.278 -0.4595 -2.0473 -0.4904
 7375TIP3   OH243539   3.552   5.349  11.527  0.2038  0.0184  0.5907
 7375TIP3    H143540   3.466   5.388  11.510  0.7867  0.5809 -1.2070
 7375TIP3    H243541   3.610   5.388  11.462  1.6843 -0.9023  1.3030
 7376TIP3   OH243542   6.172   3.879   2.154 -0.3641  0.0389  0.3965
 7376TIP3    H143543   6.141   3.948   2.095  0.3844 -2.9887 -4.0461
 7376TIP3    H243544   6.267   3.887   2.153 -0.3487  0.8255  2.5953
 7377TIP3   OH243545   4.082   4.822  13.824  0.1658  0.2312 -0.1260
 7377TIP3    H143546   4.150   4.884  13.798  1.8107 -0.8226  1.4184
 7377TIP3    H243547   4.015   4.830  13.756  1.1258  2.3847 -0.9159
 7378TIP3   OH243548   2.876   3.013  11.958 -0.2045  0.3789  0.1801
 7378TIP3    H143549   2.922   3.003  11.875  2.8095  0.1152  1.7404
 7378TIP3    H243550   2.848   3.104  11.959 -1.6962  0.0198 -1.6940
 7379TIP3   OH243551   2.405   4.297  11.975 -0.0470  0.7278 -0.0969
 7379TIP3    H143552   2.343   4.369  11.965 -0.1511  0.8168  1.0226
 7379TIP3    H243553   2.350   4.219  11.979 -0.1252  0.8211  1.0565
 7380TIP3   OH243554   5.511   6.274  12.391 -0.3695 -0.3500  0.4016
 7380TIP3    H143555   5.534   6.339  12.457  0.9038 -0.3466 -0.0161
 7380TIP3    H243556   5.553   6.193  12.421 -2.2073 -1.1202  1.0911
 7381TIP3   OH243557   4.925   1.965  15.328  0.1280  0.1531 -0.5759
 7381TIP3    H143558   4.849   1.948  15.384  0.1387 -1.0635 -0.9091
 7381TIP3    H243559   4.894   2.032  15.267  0.0569  1.3640  0.7406
 7382TIP3   OH243560   4.832   5.798  13.209 -0.3818 -0.2108  0.3747
 7382TIP3    H143561   4.871   5.815  13.294 -0.5116  0.6912  0.2684
 7382TIP3    H243562   4.834   5.883  13.164 -0.1716 -0.6999 -0.5819
 7383TIP3   OH243563   0.941   4.505   0.717  0.1412  0.0969 -0.5707
 7383TIP3    H143564   0.914   4.417   0.741  0.8892  0.0145 -0.0329
 7383TIP3    H243565   1.000   4.493   0.642 -1.6121  0.3083 -2.0781
 7384TIP3   OH243566   0.280   2.690  16.860  0.1656  0.4076  0.1259
 7384TIP3    H143567   0.266   2.779  16.890  1.5241  0.7696 -0.2519
 7384TIP3    H243568   0.236   2.635  16.925  0.9739  1.2641  1.4322
 7385TIP3   OH243569   2.759   5.480   0.371  0.0760 -0.1816  0.4200
 7385TIP3    H143570   2.730   5.569   0.389 -0.2637 -0.4858  1.4591
 7385TIP3    H243571   2.802   5.485   0.286 -2.9646  0.3081 -1.2135
 7386TIP3   OH243572   3.991   2.819  16.205 -0.3695 -0.0830 -0.4338
 7386TIP3    H143573   3.964   2.820  16.297  1.0546 -1.8041  0.0514
 7386TIP3    H243574   4.076   2.863  16.204 -0.3533 -0.1173 -0.9168
 7387TIP3   OH243575   0.032   6.465  13.071 -0.3056 -0.6983  0.2885
 7387TIP3    H143576   0.126   6.454  13.084 -0.1122 -0.0212 -0.4000
 7387TIP3    H243577   0.004   6.518  13.146  0.1401  0.2807 -0.2113
 7388TIP3   OH243578   0.756   1.991  16.985  0.0112  0.0140 -0.2726
 7388TIP3    H143579   0.780   2.033  16.902 -0.9529  1.9451  0.3692
 7388TIP3    H243580   0.831   2.004  17.042 -0.4817  1.3778  0.0867
 7389TIP3   OH243581   0.713   3.462   6.091 -0.2168 -0.1735  0.7300
 7389TIP3    H143582   0.752   3.383   6.131  0.0918  0.1853  1.1520
 7389TIP3    H243583   0.768   3.534   6.122 -0.3147  0.1805  0.1017
 7390TIP3   OH243584   0.518   3.059  14.584 -0.2025 -0.3566 -0.3059
 7390TIP3    H143585   0.466   3.044  14.664  0.2664 -0.8955 -0.1005
 7390TIP3    H243586   0.474   3.008  14.517  0.1610 -0.9510 -0.0926
 7391TIP3   OH243587   0.996   6.099   5.963  0.3500 -0.4184  0.1475
 7391TIP3    H143588   1.059   6.035   5.995  0.0886 -0.3259  0.8796
 7391TIP3    H243589   0.978   6.073   5.873 -0.4204 -1.9157  0.6953
 7392TIP3   OH243590   0.608   5.954   2.581  0.2731  0.3555 -0.6273
 7392TIP3    H143591   0.685   5.977   2.528  1.3372  0.2630  0.8193
 7392TIP3    H243592   0.644   5.922   2.664 -1.3163 -0.7232 -0.3025
 7393TIP3   OH243593   3.919   5.546  16.483 -0.3632  0.3211  0.0137
 7393TIP3    H143594   3.830   5.509  16.479 -0.4691  0.6175 -0.6303
 7393TIP3    H243595   3.966   5.501  16.413  0.0675 -0.0081  0.5136
 7394TIP3   OH243596   1.025   4.559  14.567 -0.0553 -0.2399 -0.4873
 7394TIP3    H143597   0.934   4.582  14.548 -0.8095 -0.4759  2.3820
 7394TIP3    H243598   1.020   4.493  14.637  2.3169 -0.3846 -0.3532
 7395TIP3   OH243599   3.250   2.564  14.249  0.0538 -0.2592  0.0360
 7395TIP3    H143600   3.186   2.634  14.263 -0.6319 -0.6840 -0.9061
 7395TIP3    H243601   3.232   2.502  14.320 -0.3162 -0.1820  0.0134
 7396TIP3   OH243602   1.329   0.831   3.614  0.5344  0.0399 -0.5001
 7396TIP3    H143603   1.423   0.816   3.616  0.5346 -0.1401 -1.3384
 7396TIP3    H243604   1.303   0.809   3.524 -0.2721  0.2787 -0.3366
 7397TIP3   OH243605   6.686   5.975   4.176  0.0713  0.1931 -0.0506
 7397TIP3    H143606   6.652   5.892   4.142  0.7131 -0.0510 -0.1133
 7397TIP3    H243607   6.682   6.035   4.101 -0.7586  0.3410  0.0976
 7398TIP3   OH243608   0.506   1.004   3.258 -0.2380  0.2400 -0.2230
 7398TIP3    H143609   0.461   1.071   3.206  0.6887  0.8252 -0.2913
 7398TIP3    H243610   0.553   1.053   3.325  0.5766 -0.3345 -0.3645
 7399TIP3   OH243611   3.062   5.441  11.929 -0.1483 -0.0781 -0.1319
 7399TIP3    H143612   3.150   5.406  11.947  0.6974  2.1007  0.2696
 7399TIP3    H243613   3.067   5.470  11.837 -0.3409  0.3198 -0.0190
 7400TIP3   OH243614   3.117   5.790  14.133 -0.0209  0.4611  0.2792
 7400TIP3    H143615   3.067   5.826  14.060 -1.4388 -0.3992  0.7888
 7400TIP3    H243616   3.051   5.749  14.189  1.2974 -0.9548  0.8514
 7401TIP3   OH243617   3.187   5.216  11.263 -0.2340  0.7490  0.2790
 7401TIP3    H143618   3.173   5.226  11.169  0.6166 -0.0244  0.0579
 7401TIP3    H243619   3.139   5.289  11.302  0.0454  1.5405 -0.8033
 7402TIP3   OH243620   0.983   6.718  12.109  0.3094 -0.3844 -0.0818
 7402TIP3    H143621   0.921   6.786  12.083 -0.5792 -1.4267 -0.7869
 7402TIP3    H243622   0.948   6.684  12.192  1.0520  0.3583  0.5565
 7403TIP3   OH243623   1.849   4.593  15.080  0.4664 -0.5258 -0.3768
 7403TIP3    H143624   1.862   4.636  14.996  1.3531 -0.3403 -0.1646
 7403TIP3    H243625   1.906   4.641  15.140  1.0242 -1.6071 -0.0027
 7404TIP3   OH243626   0.584   5.625  14.566  0.0464  0.0161  0.2763
 7404TIP3    H143627   0.664   5.618  14.618  0.1105  1.6705  0.4310
 7404TIP3    H243628   0.528   5.685  14.615 -1.8922 -2.1358  0.8656
 7405TIP3   OH243629   5.310   2.589  13.906  0.9191  0.3177 -0.2134
 7405TIP3    H143630   5.334   2.637  13.827  2.2420  0.4402  0.2534
 7405TIP3    H243631   5.393   2.556  13.941  0.4151  0.6973  1.4140
 7406TIP3   OH243632   3.773   5.936  16.713 -0.0655  0.7132 -0.4129
 7406TIP3    H143633   3.768   6.020  16.666  1.1039  0.2996 -1.3053
 7406TIP3    H243634   3.753   5.870  16.647  1.0964  0.1524 -0.2215
 7407TIP3   OH243635   2.156   1.964  14.620 -0.0048 -0.1877  0.0387
 7407TIP3    H143636   2.204   1.978  14.702 -2.1084  1.3207  1.1074
 7407TIP3    H243637   2.087   1.902  14.642 -0.4299  0.0302 -0.6373
 7408TIP3   OH243638   6.745   3.070  15.635  0.5214 -0.4698 -0.0804
 7408TIP3    H143639   6.822   3.125  15.652  0.4278  0.5535 -2.5270
 7408TIP3    H243640   6.690   3.081  15.712  1.1540  1.7738  0.1317
 7409TIP3   OH243641   3.248   1.669   2.925  0.2037 -0.6029  0.3043
 7409TIP3    H143642   3.199   1.742   2.962 -0.2327 -1.3691  1.2780
 7409TIP3    H243643   3.270   1.698   2.836 -1.8901 -0.1907 -0.1247
 7410TIP3   OH243644   6.031   4.384   5.153  0.0729 -0.0836  0.6501
 7410TIP3    H143645   6.089   4.460   5.147 -1.1868  0.8662  0.0508
 7410TIP3    H243646   5.965   4.399   5.085  0.0166 -1.9303  0.2264
 7411TIP3   OH243647   5.032   1.257  13.386  0.1705  0.0150  0.1245
 7411TIP3    H143648   5.095   1.262  13.458  0.1111  0.0143  0.1761
 7411TIP3    H243649   5.042   1.168  13.350  1.2936  0.5121 -0.8570
 7412TIP3   OH243650   4.980   6.024  14.962  0.6511  0.1921 -0.1507
 7412TIP3    H143651   4.938   5.987  14.883  2.2544  1.3589 -1.6198
 7412TIP3    H243652   5.072   6.001  14.953  0.6615 -1.0491  2.2696
 7413TIP3   OH243653   6.180   2.379  16.154 -0.6383  0.0524 -0.3481
 7413TIP3    H143654   6.218   2.307  16.206 -0.7236  0.7277  0.6894
 7413TIP3    H243655   6.086   2.370  16.167 -0.5783  1.8673  1.9782
 7414TIP3   OH243656   3.609   2.976   0.147  0.4791  0.3072  0.3300
 7414TIP3    H143657   3.684   2.986   0.206  0.7524 -0.0537  0.0517
 7414TIP3    H243658   3.570   3.063   0.142  2.5081  1.2060 -1.6626
 7415TIP3   OH243659   5.870   0.856   5.858 -0.0783  0.5401  0.1317
 7415TIP3    H143660   5.895   0.786   5.918  0.9141  0.9190  0.1803
 7415TIP3    H243661   5.935   0.925   5.873  0.5394  0.4318 -1.7433
 7416TIP3   OH243662   3.686   5.809  15.168  0.3098 -0.3095 -0.5897
 7416TIP3    H143663   3.634   5.730  15.183 -0.8317  0.1391 -1.9968
 7416TIP3    H243664   3.707   5.806  15.075  2.2027 -0.0845 -0.1991
 7417TIP3   OH243665   0.181   2.076  11.549 -0.0143 -0.4002 -0.1494
 7417TIP3    H143666   0.157   2.156  11.596  0.4965 -0.0873 -0.4209
 7417TIP3    H243667   0.133   2.082  11.466  1.3186  0.4454 -0.8868
 7418TIP3   OH243668   6.422   5.520   2.119  0.0833  0.4168  0.0030
 7418TIP3    H143669   6.446   5.597   2.172 -1.0495  1.3364 -0.7807
 7418TIP3    H243670   6.369   5.555   2.048 -0.7650 -1.1444 -0.1748
 7419TIP3   OH243671   1.669   0.478   5.770 -0.1084  0.1172  0.7911
 7419TIP3    H143672   1.636   0.430   5.846  1.2915  0.3770  1.5915
 7419TIP3    H243673   1.682   0.411   5.703  0.2273 -0.3721  1.3371
 7420TIP3   OH243674   4.479   1.857  15.245 -0.3747  0.5454  0.0581
 7420TIP3    H143675   4.393   1.880  15.210 -1.7000 -1.6511  1.6424
 7420TIP3    H243676   4.502   1.775  15.201  1.4895  1.6562 -1.1653
 7421TIP3   OH243677   3.279   1.617   5.082 -0.2411  0.2903 -0.4571
 7421TIP3    H143678   3.291   1.571   4.998 -0.5729 -0.9131  0.1253
 7421TIP3    H243679   3.295   1.549   5.148 -2.0187  0.6938  0.4363
 7422TIP3   OH243680   0.498   5.239  16.992  0.6283 -0.0371  0.3971
 7422TIP3    H143681   0.474   5.263  16.902  1.9056 -2.6489 -0.7389
 7422TIP3    H243682   0.538   5.153  16.984  1.5781  0.0193  3.4069
 7423TIP3   OH243683   5.528   4.343  11.328 -0.2047  0.2706 -0.6809
 7423TIP3    H143684   5.487   4.425  11.356 -1.8698 -1.7916  3.9994
 7423TIP3    H243685   5.458   4.293  11.288 -0.9024 -0.9639  1.8751
 7424TIP3   OH243686   0.221   3.838   1.575 -0.2059 -0.0330  0.2067
 7424TIP3    H143687   0.276   3.906   1.535 -0.5869 -0.4585 -1.0868
 7424TIP3    H243688   0.242   3.759   1.526  1.8176 -1.4438  3.0377
 7425TIP3   OH243689   2.279   6.343  12.567  0.3439  0.4997 -0.1662
 7425TIP3    H143690   2.370   6.339  12.540  1.3121 -0.9049  2.8391
 7425TIP3    H243691   2.260   6.256  12.602 -1.6947  1.1892  0.6219
 7426TIP3   OH243692   4.072   4.820   5.497  0.1170  0.7055  0.2354
 7426TIP3    H143693   4.156   4.790   5.532 -0.0201 -0.1120 -0.1328
 7426TIP3    H243694   4.016   4.828   5.574  0.1268 -0.0774  0.3301
 7427TIP3   OH243695   4.933   5.224  15.871 -0.4342 -0.2749 -0.3869
 7427TIP3    H143696   4.896   5.192  15.788 -0.3411 -0.0691 -0.5085
 7427TIP3    H243697   5.009   5.168  15.886 -0.8399 -0.7547 -0.0928
 7428TIP3   OH243698   0.415   4.256  12.437 -0.0083 -0.1497 -0.0584
 7428TIP3    H143699   0.454   4.281  12.353  1.5276 -0.9313  0.3936
 7428TIP3    H243700   0.474   4.291  12.503 -0.6971 -0.3537  0.6876
 7429TIP3   OH243701   5.657   0.931  12.436  0.0476 -0.0318  0.0436
 7429TIP3    H143702   5.635   0.860  12.496 -0.4255 -1.0467 -1.2551
 7429TIP3    H243703   5.574   0.956  12.397  0.5103 -0.5209 -1.3306
 7430TIP3   OH243704   4.176   5.939   2.691  0.5252  0.0754  0.0437
 7430TIP3    H143705   4.106   5.888   2.732 -0.8809  0.1811 -2.0224
 7430TIP3    H243706   4.213   5.881   2.624  1.9600  0.2711  0.6420
 7431TIP3   OH243707   6.517   2.123   4.303 -0.1273  0.0991 -0.0507
 7431TIP3    H143708   6.571   2.174   4.242 -0.1771 -0.5580 -0.6525
 7431TIP3    H243709   6.575   2.053   4.334 -0.8579 -1.1108 -1.3354
 7432TIP3   OH243710   5.617   1.308   2.809 -0.4305  0.3370  0.0445
 7432TIP3    H143711   5.710   1.292   2.824 -0.3616  2.4488  2.5274
 7432TIP3    H243712   5.579   1.220   2.798  1.4830 -0.7443  1.4836
 7433TIP3   OH243713   3.332   5.681   2.102 -0.4564 -0.8087 -0.3914
 7433TIP3    H143714   3.412   5.654   2.056  0.9549  0.3282  1.2554
 7433TIP3    H243715   3.362   5.705   2.189 -2.7150 -0.8100  0.4407
 7434TIP3   OH243716   1.919   3.931   3.220 -0.3279  0.5297 -0.4169
 7434TIP3    H143717   1.966   4.012   3.202 -0.3681  0.3216 -1.5173
 7434TIP3    H243718   1.886   3.903   3.135  0.1677 -0.9391 -0.1587
 7435TIP3   OH243719   5.913   1.300   6.321  0.1532 -0.4718  0.2473
 7435TIP3    H143720   5.904   1.395   6.311 -0.4564 -0.3478  1.7169
 7435TIP3    H243721   5.828   1.271   6.354  1.5652 -0.8302  4.0686
 7436TIP3   OH243722   1.706   2.641  10.985 -0.3346 -0.3841 -0.4027
 7436TIP3    H143723   1.755   2.571  11.029 -1.2093 -0.5210  0.3888
 7436TIP3    H243724   1.708   2.714  11.047 -1.7959 -0.6638  0.0202
 7437TIP3   OH243725   2.702   3.978   0.926  0.4745  0.1221 -0.5476
 7437TIP3    H143726   2.627   3.918   0.920  1.1867 -0.8416 -0.0651
 7437TIP3    H243727   2.774   3.930   0.886  0.3884  1.8994 -3.0379
 7438TIP3   OH243728   3.288   5.031  16.522 -0.4148 -0.1835  0.0481
 7438TIP3    H143729   3.352   5.085  16.569 -0.8268  1.4662 -1.2048
 7438TIP3    H243730   3.216   5.020  16.584 -1.1047  2.2500 -0.2164
 7439TIP3   OH243731   1.022   3.460  10.559  0.0560 -0.3726  0.5464
 7439TIP3    H143732   0.950   3.414  10.601 -1.0764  0.8673  0.0213
 7439TIP3    H243733   0.985   3.544  10.533  1.4282 -0.0949 -0.6144
 7440TIP3   OH243734   0.682   1.402  16.608 -0.6539 -0.0890 -0.6226
 7440TIP3    H143735   0.756   1.461  16.623  0.2480 -1.1738 -0.6544
 7440TIP3    H243736   0.692   1.374  16.517 -2.0011  0.9325 -1.1169
 7441TIP3   OH243737   3.126   4.066   4.783 -0.2121  0.6827 -1.3658
 7441TIP3    H143738   3.049   4.052   4.728 -1.8585  0.2995  0.9230
 7441TIP3    H243739   3.156   3.978   4.806 -0.2179  0.8295 -0.7758
 7442TIP3   OH243740   4.392   5.958   1.968  0.7912  0.0760  0.2748
 7442TIP3    H143741   4.338   6.037   1.966  1.7447  0.7262 -0.9846
 7442TIP3    H243742   4.432   5.959   2.055  0.4704  0.7590  0.4199
 7443TIP3   OH243743   0.262   3.035   0.780  0.0021  0.5482 -0.5321
 7443TIP3    H143744   0.208   2.958   0.766 -0.6893  1.0484 -0.7152
 7443TIP3    H243745   0.309   3.018   0.861  1.6408 -1.0465 -1.7632
 7444TIP3   OH243746   2.032   2.637   5.266 -0.7784  0.4690 -0.0972
 7444TIP3    H143747   1.938   2.647   5.283 -0.5925  1.4337  0.4303
 7444TIP3    H243748   2.059   2.723   5.233 -0.4543 -0.3611 -2.1722
 7445TIP3   OH243749   0.475   4.346   5.899 -0.1571 -0.3950  0.4457
 7445TIP3    H143750   0.441   4.426   5.938 -0.8462 -0.8966  0.9022
 7445TIP3    H243751   0.569   4.361   5.891 -0.1569  0.1346  1.3107
 7446TIP3   OH243752   0.317   5.211  13.016 -0.0754 -0.1426 -0.0301
 7446TIP3    H143753   0.275   5.152  13.079 -2.3187  0.6536 -0.6820
 7446TIP3    H243754   0.408   5.216  13.045 -1.0428  0.3553  3.3019
 7447TIP3   OH243755   3.850   5.822   0.078  0.1251  0.3919  0.5746
 7447TIP3    H143756   3.850   5.734   0.117  0.8275  0.4897  0.8139
 7447TIP3    H243757   3.910   5.815   0.004  0.3260  0.7155  0.7060
 7448TIP3   OH243758   0.165   5.482  11.547 -0.4204  0.3498  0.2638
 7448TIP3    H143759   0.198   5.397  11.575 -1.3706 -0.2498 -0.3635
 7448TIP3    H243760   0.122   5.464  11.463 -0.9686  1.3792  0.3076
 7449TIP3   OH243761   4.509   5.479  14.929 -0.4962  0.0571  0.2251
 7449TIP3    H143762   4.481   5.424  14.856  0.2441 -0.5362  0.3729
 7449TIP3    H243763   4.431   5.484  14.985  0.0665 -3.0481  1.5292
 7450TIP3   OH243764   2.244   6.595  14.831 -0.2723 -0.2976 -0.5004
 7450TIP3    H143765   2.300   6.647  14.888  0.5905 -0.3688 -1.2625
 7450TIP3    H243766   2.279   6.506  14.837 -0.6050 -0.4370 -0.6042
 7451TIP3   OH243767   3.522   4.004  12.798 -0.1587 -0.6291  0.1019
 7451TIP3    H143768   3.471   4.075  12.759 -1.0295 -2.5964 -2.6703
 7451TIP3    H243769   3.458   3.935  12.814  0.6952 -0.9421  2.5148
 7452TIP3   OH243770   0.103   4.235  11.751 -0.3282 -0.0368  0.2304
 7452TIP3    H143771   0.147   4.152  11.733 -1.3463 -0.3559 -0.9174
 7452TIP3    H243772   0.014   4.223  11.717 -0.5702  1.4369  0.2840
 7453TIP3   OH243773   4.641   5.029   1.119 -0.1921  0.1795 -0.2325
 7453TIP3    H143774   4.736   5.015   1.115 -0.1936 -0.6657  1.7705
 7453TIP3    H243775   4.626   5.063   1.207 -2.0778 -2.7838  0.7353
 7454TIP3   OH243776   1.284   3.716   2.892  0.5005  0.2258 -0.1389
 7454TIP3    H143777   1.317   3.684   2.976 -0.8317  0.7974  0.6324
 7454TIP3    H243778   1.199   3.756   2.913 -0.4729 -0.7790 -1.9610
 7455TIP3   OH243779   6.139   5.265   3.174 -0.9420 -0.4992  0.1932
 7455TIP3    H143780   6.110   5.176   3.196  0.1800 -0.7472  0.7303
 7455TIP3    H243781   6.225   5.272   3.214 -0.4474  0.3664 -0.9877
 7456TIP3   OH243782   0.213   3.874  15.332  0.2867  0.8856  0.1246
 7456TIP3    H143783   0.175   3.936  15.394 -0.0853  0.6472  0.1344
 7456TIP3    H243784   0.146   3.862  15.265  0.1971  0.1945  0.3294
 7457TIP3   OH243785   1.313   3.617   4.697 -0.0378 -0.3023 -0.0487
 7457TIP3    H143786   1.380   3.677   4.728 -0.1757 -0.3046  0.2654
 7457TIP3    H243787   1.302   3.555   4.769 -1.3343  0.4949  0.4743
 7458TIP3   OH243788   3.416   1.292   2.376  0.0235 -0.8189 -0.6045
 7458TIP3    H143789   3.429   1.216   2.319  0.6522 -0.0435 -1.5419
 7458TIP3    H243790   3.495   1.345   2.362 -0.3056 -0.1103  0.2015
 7459TIP3   OH243791   4.368   6.481  16.877 -0.3698  0.5336  0.2754
 7459TIP3    H143792   4.341   6.412  16.937 -1.1658  0.5299 -0.0769
 7459TIP3    H243793   4.317   6.557  16.903 -0.2911  0.6925 -0.0293
 7460TIP3   OH243794   0.297   3.321   6.538  0.0669  0.1363  0.3493
 7460TIP3    H143795   0.252   3.264   6.474 -1.4194  0.7289  0.8282
 7460TIP3    H243796   0.348   3.381   6.484  0.0581 -0.3511 -0.2240
 7461TIP3   OH243797   1.281   2.391  16.665 -0.7510 -0.0818  0.2169
 7461TIP3    H143798   1.206   2.377  16.606 -0.4706  0.1046 -0.1891
 7461TIP3    H243799   1.301   2.303  16.699  0.6989 -0.6747 -1.9535
 7462TIP3   OH243800   0.736   2.955  13.797 -0.3798 -0.0383  0.1105
 7462TIP3    H143801   0.670   2.982  13.860 -1.3308  1.5639 -1.4818
 7462TIP3    H243802   0.740   2.859  13.806 -2.2500 -0.0808  0.8893
 7463TIP3   OH243803   6.696   2.476   0.159 -0.3674  0.1651  0.0591
 7463TIP3    H143804   6.630   2.539   0.190  0.8447  1.2993  0.4220
 7463TIP3    H243805   6.721   2.509   0.073  0.9144  0.7272  0.6203
 7464TIP3   OH243806   2.429   5.421  15.649  0.7066  0.0786 -0.1715
 7464TIP3    H143807   2.371   5.496  15.642  1.5270  0.6583 -1.0504
 7464TIP3    H243808   2.513   5.458  15.676  1.9029 -0.0521 -3.2404
 7465TIP3   OH243809   4.393   2.637  14.900 -0.1769  0.0576  0.1445
 7465TIP3    H143810   4.328   2.655  14.833 -1.1894  1.4280  1.4258
 7465TIP3    H243811   4.355   2.567  14.953 -0.2574  0.3071  0.4189
 7466TIP3   OH243812   0.293   2.790  16.111  0.5678 -0.1778  0.3551
 7466TIP3    H143813   0.277   2.814  16.019 -1.2443  0.0471  0.6799
 7466TIP3    H243814   0.373   2.738  16.109  0.6789  0.0021 -1.3257
 7467TIP3   OH243815   0.470   2.113  10.439 -0.9988  0.6835  0.1676
 7467TIP3    H143816   0.557   2.073  10.445  0.3482  3.5519  2.9716
 7467TIP3    H243817   0.410   2.043  10.464  0.7222 -0.8457  0.2159
 7468TIP3   OH243818   5.629   1.975   5.110  0.4348  0.1484 -0.2669
 7468TIP3    H143819   5.640   1.906   5.044 -1.8175 -0.1259 -0.4366
 7468TIP3    H243820   5.603   2.052   5.060 -0.2007  0.2391  0.1947
 7469TIP3   OH243821   0.076   5.550  12.205 -0.1980  0.4097 -0.7530
 7469TIP3    H143822   0.079   5.619  12.272  1.8621 -0.9149  0.6669
 7469TIP3    H243823   0.050   5.472  12.254 -1.3227 -0.0886 -2.0986
 7470TIP3   OH243824   4.762   0.942  13.588 -0.0004 -0.3691 -0.5912
 7470TIP3    H143825   4.845   0.957  13.543  0.6630  0.0055  0.7072
 7470TIP3    H243826   4.738   1.027  13.623  0.2076 -0.9047  0.9091
 7471TIP3   OH243827   4.243   2.088   0.232  0.3405  0.2862  0.1149
 7471TIP3    H143828   4.245   1.996   0.259 -0.8953  0.4872  0.9937
 7471TIP3    H243829   4.334   2.115   0.232  0.7372 -0.9696 -0.2725
 7472TIP3   OH243830   5.177   2.723   5.277  0.2392  0.1418  0.5310
 7472TIP3    H143831   5.125   2.803   5.272 -0.2905 -0.1039  1.8430
 7472TIP3    H243832   5.265   2.752   5.299  0.3314  0.4394 -0.1972
 7473TIP3   OH243833   0.368   1.392  13.502 -0.3403 -0.3232  0.0022
 7473TIP3    H143834   0.321   1.329  13.448  1.0222 -0.1193 -1.5052
 7473TIP3    H243835   0.305   1.463  13.517 -2.1559 -2.2350  2.3445
 7474TIP3   OH243836   3.962   4.025  14.970  0.1571  0.4607  0.1218
 7474TIP3    H143837   3.951   4.095  15.033 -0.4286 -0.0806  0.6307
 7474TIP3    H243838   3.880   3.975  14.974  0.3973 -0.0072 -0.5306
 7475TIP3   OH243839   5.823   4.727   0.266  0.4329 -0.5743  0.4352
 7475TIP3    H143840   5.872   4.690   0.192 -0.0082 -0.1053 -0.1010
 7475TIP3    H243841   5.732   4.723   0.239  0.1812 -1.2275  1.3361
 7476TIP3   OH243842   6.228   3.827  15.337 -0.5578  0.1638  0.0468
 7476TIP3    H143843   6.279   3.894  15.293 -0.6820  0.7731  0.8077
 7476TIP3    H243844   6.218   3.859  15.427 -0.0375 -1.1906  0.6156
 7477TIP3   OH243845   5.064   0.578   1.526  0.3942  0.0104  0.0167
 7477TIP3    H143846   5.059   0.576   1.622  0.9016 -1.7244  0.0462
 7477TIP3    H243847   5.148   0.538   1.506  0.7931  1.3746 -1.1508
 7478TIP3   OH243848   5.343   4.843  11.486  0.1544 -0.1717  0.3864
 7478TIP3    H143849   5.266   4.880  11.443 -0.2159 -0.2483  0.9860
 7478TIP3    H243850   5.327   4.854  11.580  0.3363 -1.2744  0.5566
 7479TIP3   OH243851   4.074   0.760  13.684  0.3267  0.4157  0.4302
 7479TIP3    H143852   4.004   0.792  13.741  0.6403  0.6907  0.6599
 7479TIP3    H243853   4.147   0.820  13.698  1.4718 -1.2191  2.0299
 7480TIP3   OH243854   1.886   4.715   4.102 -0.1833  0.1463  0.0517
 7480TIP3    H143855   1.913   4.779   4.168  0.6605  1.4318 -1.4712
 7480TIP3    H243856   1.825   4.763   4.046 -0.6628 -0.8340 -0.2881
 7481TIP3   OH243857   3.850   2.693  15.389  0.1382 -0.5653 -0.3477
 7481TIP3    H143858   3.899   2.669  15.467 -2.2387  0.7426  1.6869
 7481TIP3    H243859   3.787   2.622  15.377 -1.9435  0.8801  1.2480
 7482TIP3   OH243860   3.635   2.798   3.413  0.1482 -0.1088 -0.1621
 7482TIP3    H143861   3.591   2.849   3.346  2.4896  1.2482 -0.7509
 7482TIP3    H243862   3.639   2.856   3.489  1.5565  0.0811 -0.3664
 7483TIP3   OH243863   4.726   4.392   3.622 -0.5839  0.5198 -0.5033
 7483TIP3    H143864   4.740   4.378   3.528  0.6805 -1.0066 -0.1374
 7483TIP3    H243865   4.676   4.473   3.627  0.2654  1.2221 -2.4478
 7484TIP3   OH243866   0.464   3.925  14.423  0.9008 -0.1785 -0.2885
 7484TIP3    H143867   0.395   3.992  14.427  0.5698 -0.5133 -0.3883
 7484TIP3    H243868   0.530   3.956  14.485 -0.4285 -1.0913  1.6678
 7485TIP3   OH243869   2.857   4.881   2.434 -0.1319 -0.8365 -0.7180
 7485TIP3    H143870   2.850   4.916   2.345 -2.0467 -2.7456 -1.4134
 7485TIP3    H243871   2.949   4.894   2.458  0.3637  0.0115 -2.8306
 7486TIP3   OH243872   0.220   6.320   3.459 -0.0922  0.3816 -0.2538
 7486TIP3    H143873   0.200   6.298   3.550 -1.1022  0.2759 -0.4827
 7486TIP3    H243874   0.242   6.237   3.418 -1.7766  0.0798 -0.6055
 7487TIP3   OH243875   0.290   6.209  12.466  0.5133 -0.7754 -0.0460
 7487TIP3    H143876   0.204   6.248  12.452  0.3873 -1.4097 -1.1445
 7487TIP3    H243877   0.283   6.121  12.428  1.8766 -0.5652 -0.8514
 7488TIP3   OH243878   0.594   3.625  13.825 -0.6234  0.3648  0.0806
 7488TIP3    H143879   0.671   3.679  13.844 -1.5189  1.9710 -0.6604
 7488TIP3    H243880   0.628   3.552  13.772  0.2040  1.9085 -1.6381
 7489TIP3   OH243881   3.717   3.203   1.027  0.1011  0.0865  0.5054
 7489TIP3    H143882   3.728   3.169   0.938 -0.5255  0.5311  0.2509
 7489TIP3    H243883   3.652   3.146   1.067 -0.5346  0.6346  0.2639
 7490TIP3   OH243884   2.936   4.586  14.181  0.1838  0.6481 -0.2976
 7490TIP3    H143885   3.021   4.550  14.156  0.7219  0.8846  1.0655
 7490TIP3    H243886   2.956   4.673  14.216 -0.1705 -0.3679  2.7282
 7491TIP3   OH243887   6.253   6.681   2.854 -0.3245 -0.5494 -0.1969
 7491TIP3    H143888   6.170   6.712   2.818 -0.5315  0.9111  1.4034
 7491TIP3    H243889   6.231   6.644   2.939  0.8130  1.4905  1.0699
 7492TIP3   OH243890   0.625   0.469   3.812  0.5959 -0.6783  0.2384
 7492TIP3    H143891   0.635   0.447   3.720  0.9935  0.2661  0.0463
 7492TIP3    H243892   0.538   0.511   3.817  1.1335  0.5104  0.0271
 7493TIP3   OH243893   2.692   3.060  14.037 -0.4456 -0.6426  0.2903
 7493TIP3    H143894   2.652   2.980  14.004 -0.8980 -0.4901  0.4649
 7493TIP3    H243895   2.675   3.125  13.970  1.3059 -1.0513 -0.6133
 7494TIP3   OH243896   0.944   3.458   2.157  0.3416 -0.6181 -0.4031
 7494TIP3    H143897   0.972   3.522   2.222 -0.5494 -2.3719  1.8110
 7494TIP3    H243898   0.874   3.502   2.109  0.4929  0.4532  0.3246
 7495TIP3   OH243899   1.073   5.188  14.947 -0.1249 -0.3640  0.0331
 7495TIP3    H143900   1.039   5.099  14.948 -1.7253  0.2069 -0.0109
 7495TIP3    H243901   1.088   5.208  14.854  0.9949 -0.8322  0.0968
 7496TIP3   OH243902   0.582   2.580   2.628  0.2357 -0.1662 -0.2889
 7496TIP3    H143903   0.528   2.656   2.649 -1.1601 -1.2366  0.1494
 7496TIP3    H243904   0.671   2.606   2.653 -0.0888  1.5518 -0.7928
 7497TIP3   OH243905   3.131   0.701  13.795 -0.5685 -0.2015  0.4989
 7497TIP3    H143906   3.202   0.675  13.737 -1.2417 -1.0801  0.0630
 7497TIP3    H243907   3.056   0.717  13.737 -0.7899  0.5389  0.9676
 7498TIP3   OH243908   4.482   0.288  16.274  0.6291 -0.3278  0.1937
 7498TIP3    H143909   4.430   0.219  16.315  0.3888 -0.8223 -0.9320
 7498TIP3    H243910   4.422   0.332  16.214  1.5982 -1.2537 -1.5345
 7499TIP3   OH243911   6.532   2.696   0.159 -0.0476 -0.0565 -0.2090
 7499TIP3    H143912   6.565   2.727   0.075 -0.0936  2.5728  0.6575
 7499TIP3    H243913   6.455   2.643   0.136  0.6702 -0.4503 -1.8520
 7500TIP3   OH243914   3.997   0.129  11.069 -0.1611  0.2121 -0.0794
 7500TIP3    H143915   3.918   0.076  11.076  0.0502 -0.1153 -0.1685
 7500TIP3    H243916   3.968   0.209  11.026 -0.7077  0.6428  1.0329
 7501TIP3   OH243917   4.329   2.039   5.382  0.2078  0.3441 -0.2027
 7501TIP3    H143918   4.401   2.084   5.426 -0.0444  2.0861 -1.4878
 7501TIP3    H243919   4.310   1.964   5.438  2.3131  0.4381  0.7029
 7502TIP3   OH243920   2.824   2.464   3.143 -0.2318  0.1057  0.1695
 7502TIP3    H143921   2.918   2.477   3.146 -0.3215  1.0119 -0.3252
 7502TIP3    H243922   2.789   2.519   3.213 -0.6232  2.8109 -1.9565
 7503TIP3   OH243923   0.681   0.266   6.512 -0.0429 -0.2202  0.3695
 7503TIP3    H143924   0.613   0.199   6.524  0.6539 -1.0467 -0.1954
 7503TIP3    H243925   0.678   0.317   6.593 -1.4966 -0.0795  0.2653
 7504TIP3   OH243926   3.004   6.249  14.125 -0.6311  0.0359  0.1431
 7504TIP3    H143927   2.987   6.343  14.134  0.3600  0.1087  1.5586
 7504TIP3    H243928   2.950   6.208  14.191 -2.5505 -0.6261 -1.7330
 7505TIP3   OH243929   1.662   6.622   1.346  0.3430  0.1034 -0.3455
 7505TIP3    H143930   1.576   6.627   1.305 -0.3785  0.4250  1.1121
 7505TIP3    H243931   1.679   6.711   1.377  0.7903 -0.1395  0.1303
 7506TIP3   OH243932   4.097   1.993   0.852 -0.1832 -0.4266 -0.2765
 7506TIP3    H143933   4.160   1.926   0.826 -0.6050 -0.7060 -0.5996
 7506TIP3    H243934   4.111   2.005   0.946  1.7564  0.9863 -0.6748
 7507TIP3   OH243935   6.193   1.932   1.582 -0.4236 -0.6034  0.2468
 7507TIP3    H143936   6.192   1.906   1.674 -1.7573  0.0135  0.4280
 7507TIP3    H243937   6.198   1.850   1.534  3.6161 -0.9140  0.8027
 7508TIP3   OH243938   4.397   5.768  12.826 -0.5498  0.3090 -0.5681
 7508TIP3    H143939   4.486   5.803  12.837 -0.8229  0.9170 -0.2098
 7508TIP3    H243940   4.408   5.690  12.772  0.6044 -1.5647  2.1377
 7509TIP3   OH243941   5.657   6.561  17.005 -0.2582 -0.3460 -0.0639
 7509TIP3    H143942   5.644   6.507  17.083  4.7875  0.0344  1.4147
 7509TIP3    H243943   5.696   6.501  16.941  1.5419  0.5258  0.1329
 7510TIP3   OH243944   3.594   2.338   5.045 -0.7617 -0.8925 -0.3219
 7510TIP3    H143945   3.588   2.404   5.114  0.3646 -0.1038 -0.9520
 7510TIP3    H243946   3.552   2.261   5.083  1.5386 -1.1376  2.0521
 7511TIP3   OH243947   4.361   4.088   6.191  0.1673 -0.8579 -0.1131
 7511TIP3    H143948   4.293   4.151   6.216  1.6139  0.5033  0.5635
 7511TIP3    H243949   4.385   4.045   6.273  2.9933  1.6709  0.5775
 7512TIP3   OH243950   1.563   5.710  15.137  0.0556 -0.1067  0.0428
 7512TIP3    H143951   1.520   5.679  15.217 -1.3619  1.3318 -0.1089
 7512TIP3    H243952   1.584   5.630  15.089  1.4279 -1.0406  2.0453
 7513TIP3   OH243953   5.185   4.959  17.425 -0.1303  0.7554 -0.3301
 7513TIP3    H143954   5.202   5.021  17.496  1.1269 -0.1775  0.2332
 7513TIP3    H243955   5.098   4.923  17.445 -1.3247  2.9656 -1.1987
 7514TIP3   OH243956   3.533   1.382   5.031 -0.0516 -0.0621  0.6436
 7514TIP3    H143957   3.549   1.453   5.094  0.5537  0.9172 -0.5794
 7514TIP3    H243958   3.614   1.331   5.032 -0.0160 -0.0062  0.6095
 7515TIP3   OH243959   6.663   1.721  13.058  0.8490  0.0384 -0.6223
 7515TIP3    H143960   6.741   1.666  13.050  1.2890  0.5309  0.1007
 7515TIP3    H243961   6.674   1.765  13.143 -0.7328 -0.6779 -0.0118
 7516TIP3   OH243962   1.866   2.427  17.134  0.5875 -0.0733 -0.2067
 7516TIP3    H143963   1.954   2.434  17.097  0.5301  0.5116 -0.2439
 7516TIP3    H243964   1.881   2.400  17.225  0.9264  1.7895  0.3402
 7517TIP3   OH243965   3.354   2.364   4.455 -0.2418 -0.6384  0.1084
 7517TIP3    H143966   3.349   2.271   4.436 -0.5135 -1.0425  1.9508
 7517TIP3    H243967   3.399   2.370   4.539  1.8824  1.0739 -1.0281
 7518TIP3   OH243968   3.631   0.663   4.583  0.2148 -0.0624  0.0339
 7518TIP3    H143969   3.587   0.724   4.642 -0.7491 -0.5037 -0.2073
 7518TIP3    H243970   3.721   0.658   4.616  0.7493  2.5930 -0.8004
 7519TIP3   OH243971   2.543   2.259   5.120 -0.1480 -0.2860 -0.0120
 7519TIP3    H143972   2.564   2.244   5.028 -1.5335 -0.6779 -0.2949
 7519TIP3    H243973   2.610   2.213   5.169  1.0505  0.5565 -0.8061
 7520TIP3   OH243974   3.137   5.094  15.238  0.5274 -0.1692  0.3357
 7520TIP3    H143975   3.173   5.064  15.322  0.0030  1.4783  1.1885
 7520TIP3    H243976   3.056   5.139  15.262  1.0845  1.5777 -0.8948
 7521TIP3   OH243977   0.395   0.718   5.606  0.0335 -0.1623 -0.2193
 7521TIP3    H143978   0.462   0.719   5.538 -0.7250 -0.0012 -0.9711
 7521TIP3    H243979   0.344   0.639   5.588 -0.4122  0.0893 -0.0727
 7522TIP3   OH243980   6.734   3.490   1.094  0.1977 -0.3324 -0.1242
 7522TIP3    H143981   6.820   3.483   1.052  0.1721  0.2448 -0.2845
 7522TIP3    H243982   6.677   3.434   1.041  0.7260 -1.7066  0.7063
 7523TIP3   OH243983   1.044   4.520  14.120  0.1521 -0.1009  0.1719
 7523TIP3    H143984   1.088   4.570  14.052  0.9711 -1.0579 -0.0309
 7523TIP3    H243985   0.974   4.473  14.074  0.2686 -0.2135  0.1084
 7524TIP3   OH243986   2.921   3.413   4.140  0.3928 -0.0394 -0.3539
 7524TIP3    H143987   2.956   3.359   4.070  1.4569  0.7954 -0.5022
 7524TIP3    H243988   2.867   3.478   4.096  2.6104  1.7212 -0.7002
 7525TIP3   OH243989   0.768   3.362  12.937 -0.0520  0.0665 -0.1604
 7525TIP3    H143990   0.673   3.353  12.942  0.1194 -1.4851  0.5963
 7525TIP3    H243991   0.782   3.457  12.929 -1.6708  0.2767 -0.9440
 7526TIP3   OH243992   3.755   6.701  10.679 -0.4142 -0.1770  0.4227
 7526TIP3    H143993   3.823   6.639  10.654 -1.0842 -0.7482 -0.0042
 7526TIP3    H243994   3.673   6.655  10.664 -0.9087  0.5684  0.7583
 7527TIP3   OH243995   0.956   0.214   2.894  0.0045 -0.1331  0.3947
 7527TIP3    H143996   1.039   0.210   2.941 -0.0886 -2.0088  0.4700
 7527TIP3    H243997   0.940   0.125   2.865 -1.6799  0.3054 -0.1768
 7528TIP3   OH243998   5.589   2.605   9.849 -0.0898 -0.1471 -0.1111
 7528TIP3    H143999   5.594   2.566   9.937 -1.1554 -0.9925 -0.4115
 7528TIP3    H244000   5.508   2.571   9.812  0.7181 -0.3966 -1.7226
 7529TIP3   OH244001   0.133   1.946   5.898 -0.3711 -0.0154  0.1398
 7529TIP3    H144002   0.198   1.888   5.938  0.0083  0.5151  0.3062
 7529TIP3    H244003   0.170   2.034   5.909  0.5216  0.0621 -2.7911
 7530TIP3   OH244004   1.532   5.367  17.071  0.1732 -0.3521 -0.0458
 7530TIP3    H144005   1.539   5.345  16.978 -0.6067  0.1189 -0.2284
 7530TIP3    H244006   1.567   5.290  17.116  0.1358 -0.7757 -0.7189
 7531TIP3   OH244007   5.973   6.601  11.931 -0.2868 -0.1715 -0.7296
 7531TIP3    H144008   5.960   6.650  11.851 -0.9581 -0.5010 -0.8317
 7531TIP3    H244009   5.968   6.666  12.001 -0.8578 -0.0430 -0.8837
 7532TIP3   OH244010   2.473   6.382   1.783 -0.1741 -0.4644  0.2926
 7532TIP3    H144011   2.474   6.475   1.805 -0.1954 -0.3234 -0.2846
 7532TIP3    H244012   2.419   6.377   1.704 -1.3990 -1.1532  1.1350
 7533TIP3   OH244013   6.445   5.516  14.655  0.0986 -0.1614 -0.2258
 7533TIP3    H144014   6.469   5.606  14.631  0.3677  0.1001  0.9561
 7533TIP3    H244015   6.399   5.525  14.738  1.0298 -1.2135  0.4285
 7534TIP3   OH244016   1.386   0.500  11.644  0.1302 -0.2634 -0.0948
 7534TIP3    H144017   1.450   0.500  11.716 -0.5559  1.3186  0.5572
 7534TIP3    H244018   1.332   0.577  11.660 -2.5643 -2.0151 -0.0881
 7535TIP3   OH244019   0.279   4.126  14.475  0.9735 -0.2020 -0.2886
 7535TIP3    H144020   0.305   4.218  14.464 -0.5407  0.1504 -1.3168
 7535TIP3    H244021   0.217   4.111  14.403 -2.2228 -0.7088  2.3549
 7536TIP3   OH244022   5.527   6.482   0.740  0.0899 -0.3682  0.4798
 7536TIP3    H144023   5.453   6.465   0.683  0.4773 -0.3431 -0.0413
 7536TIP3    H244024   5.525   6.577   0.755  2.8452  0.6142 -3.6477
 7537TIP3   OH244025   3.310   6.486  15.635 -0.0889  0.2199  0.3212
 7537TIP3    H144026   3.362   6.567  15.635  0.3460  0.0323  2.7900
 7537TIP3    H244027   3.239   6.503  15.573  1.0182  1.7772 -0.5876
 7538TIP3   OH244028   0.341   3.015  13.467 -0.1203  0.0378 -0.5233
 7538TIP3    H144029   0.410   3.069  13.429  0.1096  1.2057  1.3872
 7538TIP3    H244030   0.388   2.953  13.523 -0.5345 -0.1852 -0.4203
 7539TIP3   OH244031   3.928   4.793   3.506 -0.6874 -0.1043  0.0407
 7539TIP3    H144032   3.833   4.797   3.515 -0.5158  1.3137  1.5825
 7539TIP3    H244033   3.949   4.701   3.526 -1.6846 -0.3269  0.1381
 7540TIP3   OH244034   3.650   4.746  13.948 -0.2315 -0.8328 -0.0382
 7540TIP3    H144035   3.695   4.757  13.864 -0.8582 -0.4138 -0.3299
 7540TIP3    H244036   3.719   4.719  14.009  0.1424 -1.6519 -0.7974
 7541TIP3   OH244037   2.799   5.349   1.351 -0.3215 -0.6365 -0.3634
 7541TIP3    H144038   2.768   5.439   1.355  1.6126  0.0312  0.6801
 7541TIP3    H244039   2.857   5.347   1.275  3.9057  0.5878  2.4661
 7542TIP3   OH244040   6.390   5.383  16.472 -0.0874 -0.3322  0.3598
 7542TIP3    H144041   6.416   5.398  16.563  0.0439 -1.6094  0.5505
 7542TIP3    H244042   6.470   5.353  16.429 -0.0113  0.7874 -0.3337
 7543TIP3   OH244043   0.760   6.473   0.141  0.3709 -1.0105  0.3796
 7543TIP3    H144044   0.754   6.468   0.045 -0.3685 -1.4529  0.4418
 7543TIP3    H244045   0.676   6.438   0.172 -0.3643  1.2903  1.1561
 7544TIP3   OH244046   1.368   5.733   5.028 -0.1199 -0.6654 -0.4793
 7544TIP3    H144047   1.446   5.683   5.052 -1.3798 -1.6621  1.8763
 7544TIP3    H244048   1.309   5.669   4.990 -1.2047 -0.7581  1.2650
 7545TIP3   OH244049   1.125   4.402  15.531 -0.3093  0.0798 -0.2130
 7545TIP3    H144050   1.056   4.448  15.484  0.1444 -0.9897 -2.0035
 7545TIP3    H244051   1.198   4.399  15.470  0.1637 -1.7578  0.3804
 7546TIP3   OH244052   6.639   5.662   3.634 -0.0586  0.0372 -0.7033
 7546TIP3    H144053   6.642   5.747   3.677 -0.8539 -0.0549 -0.4474
 7546TIP3    H244054   6.698   5.670   3.560  1.7527  0.0383  0.6713
 7547TIP3   OH244055   0.635   0.804  15.719  0.2453 -0.1304 -0.2536
 7547TIP3    H144056   0.727   0.790  15.743  0.0007 -1.2807  0.0357
 7547TIP3    H244057   0.587   0.793  15.800 -0.2429 -0.4399 -0.5817
 7548TIP3   OH244058   3.275   4.843   1.521 -0.0504 -0.2692  0.1702
 7548TIP3    H144059   3.226   4.766   1.552  1.5658 -1.7178 -0.7566
 7548TIP3    H244060   3.210   4.893   1.471 -0.9840 -1.3442  0.2531
 7549TIP3   OH244061   0.340   6.094  16.471  0.8803 -0.6420  0.3553
 7549TIP3    H144062   0.380   6.020  16.426 -0.0704 -0.0332 -1.5764
 7549TIP3    H244063   0.413   6.151  16.495  1.3381  0.0478 -2.3531
 7550TIP3   OH244064   6.136   1.076   0.641  0.0295 -0.0402  0.5109
 7550TIP3    H144065   6.118   0.983   0.634 -1.1794  0.0694  1.6389
 7550TIP3    H244066   6.224   1.087   0.605 -0.0719 -1.4997 -0.2332
 7551TIP3   OH244067   2.039   3.952  14.097 -0.1044 -0.0106 -0.0740
 7551TIP3    H144068   2.024   4.021  14.033 -0.4326 -0.8930 -0.9727
 7551TIP3    H244069   2.133   3.935  14.093 -0.1350 -0.1092 -0.3725
 7552TIP3   OH244070   3.995   4.525  10.207 -0.3490  0.3662 -0.5803
 7552TIP3    H144071   3.931   4.469  10.162  0.0731  0.1466 -0.9151
 7552TIP3    H244072   3.949   4.556  10.284 -0.3678 -1.0406  0.0142
 7553TIP3   OH244073   3.679   4.339  13.162 -0.1468  0.2973  0.5286
 7553TIP3    H144074   3.723   4.288  13.094  1.1815  1.6387  0.3305
 7553TIP3    H244075   3.616   4.392  13.115 -0.6981 -0.2813  0.6019
 7554TIP3   OH244076   6.340   3.480  13.099  0.0897 -0.3149  0.1961
 7554TIP3    H144077   6.276   3.416  13.064  1.2139 -2.5566  1.9946
 7554TIP3    H244078   6.422   3.456  13.057  0.6391 -0.4297  1.3164
 7555TIP3   OH244079   4.428   3.386   5.801  0.3284 -0.4420 -0.1272
 7555TIP3    H144080   4.501   3.429   5.756 -0.0049  2.5437  1.8582
 7555TIP3    H244081   4.355   3.392   5.739  1.0023 -0.6091 -0.9458
 7556TIP3   OH244082   6.431   3.633   6.063  0.3438  0.1833  0.2155
 7556TIP3    H144083   6.525   3.617   6.050  0.4568 -0.9273  2.0670
 7556TIP3    H244084   6.427   3.701   6.129 -0.1562  0.3165  0.0518
 7557TIP3   OH244085   6.370   6.061   3.364 -0.0167 -0.3779  0.4459
 7557TIP3    H144086   6.426   5.999   3.410 -0.8003 -0.8444  0.7824
 7557TIP3    H244087   6.316   6.100   3.432 -1.1706 -1.0566 -0.0421
 7558TIP3   OH244088   2.364   6.397   1.095  0.0458  0.4878  0.1133
 7558TIP3    H144089   2.274   6.427   1.105 -0.1710 -0.2308  0.3775
 7558TIP3    H244090   2.376   6.332   1.164  1.3528  1.8576  1.2665
 7559TIP3   OH244091   2.134   6.207   4.381  0.0030 -0.2675 -0.0371
 7559TIP3    H144092   2.129   6.256   4.298  0.7089 -0.7986 -0.4043
 7559TIP3    H244093   2.043   6.196   4.408 -0.1728  0.9842 -0.1015
 7560TIP3   OH244094   0.953   5.779   3.075 -0.0356 -0.3481 -0.3105
 7560TIP3    H144095   0.953   5.700   3.129 -0.6979 -0.0210  0.1877
 7560TIP3    H244096   0.870   5.823   3.097  0.5011  0.6818 -0.2856
 7561TIP3   OH244097   5.252   3.970  15.527  0.5234  0.2861 -0.1319
 7561TIP3    H144098   5.243   3.877  15.504  0.1018 -0.0720  1.3537
 7561TIP3    H244099   5.345   3.982  15.541  0.5584  0.0296 -0.1283
 7562TIP3   OH244100   1.987   2.541  16.784  0.6640  0.1397  0.3850
 7562TIP3    H144101   1.900   2.527  16.823  0.6227  0.1718  0.3049
 7562TIP3    H244102   2.048   2.514  16.853  0.5872 -0.7458  0.1160
 7563TIP3   OH244103   4.763   6.014  16.157  1.0429 -0.1037  0.0824
 7563TIP3    H144104   4.738   6.107  16.153  1.6044  0.0264 -2.8507
 7563TIP3    H244105   4.689   5.968  16.118  2.3317 -0.4105 -2.1625
 7564TIP3   OH244106   3.440   3.401   4.051  0.2354 -0.2118 -0.1557
 7564TIP3    H144107   3.401   3.314   4.062  0.5004 -0.2936  0.1756
 7564TIP3    H244108   3.422   3.445   4.134  2.1389 -0.7704  0.6161
 7565TIP3   OH244109   2.591   2.846  17.043  0.0464 -0.3330  0.3061
 7565TIP3    H144110   2.536   2.914  17.083  0.1521 -1.1341  1.8613
 7565TIP3    H244111   2.528   2.787  17.001 -0.1413 -0.1479  0.3206
 7566TIP3   OH244112   5.310   0.417  14.336  0.5396  0.6189 -0.4463
 7566TIP3    H144113   5.372   0.348  14.357  0.3044  0.0063 -1.6710
 7566TIP3    H244114   5.231   0.395  14.386  0.1120 -0.6071 -1.5889
 7567TIP3   OH244115   6.008   4.837  16.532  0.2936 -0.3505  0.3048
 7567TIP3    H144116   5.976   4.906  16.591 -1.5438 -2.2591  1.6696
 7567TIP3    H244117   5.995   4.756  16.580 -0.5448 -1.9553 -2.3986
 7568TIP3   OH244118   4.501   5.193   4.668 -0.3317 -0.4589  0.2467
 7568TIP3    H144119   4.573   5.170   4.609  1.1229 -0.3129  1.8985
 7568TIP3    H244120   4.477   5.111   4.711  1.3040  0.0578  2.2888
 7569TIP3   OH244121   0.173   0.661  11.980 -0.4459  0.1088 -0.5571
 7569TIP3    H144122   0.182   0.718  11.904  2.1653 -1.1907 -1.3385
 7569TIP3    H244123   0.092   0.612  11.964 -0.2363  0.2486 -2.2525
 7570TIP3   OH244124   6.139   5.904   5.452 -0.0502  0.1434 -0.1378
 7570TIP3    H144125   6.140   5.858   5.536  0.3668 -0.7819 -0.6269
 7570TIP3    H244126   6.230   5.933   5.439 -0.0654  0.0926 -0.3682
 7571TIP3   OH244127   2.320   0.103  16.915  0.3083 -0.0510  0.0728
 7571TIP3    H144128   2.394   0.070  16.967 -1.3277 -0.9660  1.9455
 7571TIP3    H244129   2.326   0.198  16.923  1.1807 -0.1195  0.3665
 7572TIP3   OH244130   2.146   0.854   1.206  0.0027 -0.1219 -0.2681
 7572TIP3    H144131   2.196   0.839   1.126 -0.6801  0.8382 -0.8929
 7572TIP3    H244132   2.063   0.807   1.191 -0.7916  1.4059 -0.8371
 7573TIP3   OH244133   4.556   0.017   5.817 -0.3520  0.2862 -0.0849
 7573TIP3    H144134   4.521  -0.067   5.789 -2.5212  0.8723  0.6536
 7573TIP3    H244135   4.573   0.006   5.911  0.1020  0.4344 -0.1480
 7574TIP3   OH244136   3.815   2.119   1.080  0.1005 -0.6857  0.3437
 7574TIP3    H144137   3.796   2.182   1.010  0.4485  1.2262  1.8918
 7574TIP3    H244138   3.799   2.034   1.039 -3.2001  0.4097 -1.0752
 7575TIP3   OH244139   0.128   5.512  12.629  0.1725 -0.3280  0.0268
 7575TIP3    H144140   0.080   5.430  12.615  0.7038 -1.1617  2.5783
 7575TIP3    H244141   0.082   5.555  12.701  0.0908  1.4992 -1.0740
 7576TIP3   OH244142   2.526   3.004   4.784  0.5814 -0.3559  0.1457
 7576TIP3    H144143   2.540   3.083   4.731 -0.2721 -1.6568 -2.1589
 7576TIP3    H244144   2.613   2.979   4.813  1.4609 -0.8789 -2.6829
 7577TIP3   OH244145   3.404   6.466   5.688 -0.0075 -0.1082 -0.3406
 7577TIP3    H144146   3.322   6.514   5.688 -1.2655 -2.1479 -0.1532
 7577TIP3    H244147   3.462   6.517   5.744 -1.4311  0.9149  0.2498
 7578TIP3   OH244148   2.363   3.788  12.840 -0.3038  0.1657 -0.7660
 7578TIP3    H144149   2.289   3.841  12.871  1.1878  0.4592  2.6677
 7578TIP3    H244150   2.429   3.797  12.908  1.8084 -2.4383 -2.3099
 7579TIP3   OH244151   4.018   2.556  12.321  0.2497  0.0228 -0.1725
 7579TIP3    H144152   4.044   2.522  12.407  1.5412 -1.1825 -1.0087
 7579TIP3    H244153   3.931   2.593  12.336  0.6528  0.3148  1.7686
 7580TIP3   OH244154   6.188   4.721   2.003  0.2758  0.3545 -0.4972
 7580TIP3    H144155   6.100   4.756   1.990  0.7591  1.2876 -1.3832
 7580TIP3    H244156   6.195   4.708   2.098 -0.8488  0.1308 -0.4281
 7581TIP3   OH244157   4.909   3.092  14.705  0.1669 -0.1588  0.6626
 7581TIP3    H144158   4.956   3.102  14.622  0.3880  1.3898  0.9513
 7581TIP3    H244159   4.846   3.164  14.707  1.0398  0.6215  2.3918
 7582TIP3   OH244160   4.941   6.407   2.345  0.7666  0.1918 -0.1646
 7582TIP3    H144161   5.019   6.448   2.308  0.8133  1.9123  1.6816
 7582TIP3    H244162   4.957   6.405   2.439 -1.6646  1.1825  0.3471
 7583TIP3   OH244163   5.517   6.366  16.823  0.2247 -0.2903  0.0209
 7583TIP3    H144164   5.422   6.368  16.837  0.2358  0.7331  0.0290
 7583TIP3    H244165   5.538   6.273  16.818 -0.8329 -0.5335 -0.3383
 7584TIP3   OH244166   3.152   0.511   0.667 -0.2894  0.0636 -0.1923
 7584TIP3    H144167   3.206   0.589   0.652  0.1089  0.0739  1.1473
 7584TIP3    H244168   3.062   0.543   0.666 -0.2579  0.1715 -1.7001
 7585TIP3   OH244169   0.764   2.982   0.541  0.5893 -0.3201  0.9641
 7585TIP3    H144170   0.738   2.971   0.632 -1.5905 -1.9365  0.2253
 7585TIP3    H244171   0.741   2.899   0.499  0.7310  0.6794 -1.2334
 7586TIP3   OH244172   4.977   5.207  13.495 -0.2192 -0.0589  0.4647
 7586TIP3    H144173   4.891   5.172  13.470 -1.5458  1.9323  1.9473
 7586TIP3    H244174   5.009   5.146  13.561 -1.2002 -0.0182  1.0017
 7587TIP3   OH244175   5.292   2.377   5.604  0.4709  0.5596  0.1604
 7587TIP3    H144176   5.291   2.287   5.573  1.3370  0.5330  0.1935
 7587TIP3    H244177   5.366   2.382   5.663  2.0211  1.9091 -1.7573
 7588TIP3   OH244178   1.968   4.749   1.364  0.1911 -0.2215  0.1342
 7588TIP3    H144179   1.961   4.692   1.288 -0.4800 -1.2265  0.9189
 7588TIP3    H244180   1.926   4.700   1.435  1.2130  0.4702  1.2707
 7589TIP3   OH244181   5.005   2.245   0.929  0.5548  0.1539  0.1364
 7589TIP3    H144182   4.964   2.182   0.869 -2.4309 -1.2514  3.2940
 7589TIP3    H244183   5.069   2.193   0.978  1.2580  0.7019 -0.1828
 7590TIP3   OH244184   2.076   6.451   2.522 -0.3944 -0.0525 -0.0387
 7590TIP3    H144185   2.000   6.443   2.464  0.6109  2.9752 -2.0541
 7590TIP3    H244186   2.151   6.440   2.465  0.6485  2.6640  0.6457
 7591TIP3   OH244187   6.593   5.046   1.698 -0.0757 -0.2059 -0.3223
 7591TIP3    H144188   6.588   5.142   1.691  0.0152 -0.0783  1.0553
 7591TIP3    H244189   6.531   5.024   1.767 -1.5071 -1.3706 -1.9042
 7592TIP3   OH244190   2.775   4.680  16.282 -0.5668 -0.2537  0.2861
 7592TIP3    H144191   2.725   4.598  16.281  0.7481 -1.1104 -1.6425
 7592TIP3    H244192   2.731   4.735  16.217  0.5959 -0.8009 -1.0074
 7593TIP3   OH244193   1.347   1.678   5.042  0.0998  0.4766  0.3648
 7593TIP3    H144194   1.415   1.709   5.102 -0.4783  0.3335  1.1072
 7593TIP3    H244195   1.395   1.648   4.965  0.8942  0.1604  0.9686
 7594TIP3   OH244196   1.181   3.499   6.228 -0.3511  0.5130 -0.1329
 7594TIP3    H144197   1.193   3.559   6.301  1.3318 -1.1745  1.0815
 7594TIP3    H244198   1.263   3.504   6.179 -0.2818 -0.5581 -0.1581
 7595TIP3   OH244199   0.603   6.220   0.759 -1.0382  0.1766 -0.4541
 7595TIP3    H144200   0.685   6.197   0.802 -1.3867 -0.3568 -0.0605
 7595TIP3    H244201   0.626   6.228   0.666 -0.1743  1.8546 -0.1297
 7596TIP3   OH244202   1.436   0.029  16.284  0.2807 -0.1287 -0.0687
 7596TIP3    H144203   1.507   0.080  16.325  0.6728 -0.4076 -0.3860
 7596TIP3    H244204   1.475  -0.057  16.267  1.1067  0.7746 -3.6191
 7597TIP3   OH244205   3.756   2.024   0.171 -0.0435 -0.3481  0.6506
 7597TIP3    H144206   3.705   2.009   0.091  0.0141 -1.3125  0.7849
 7597TIP3    H244207   3.847   2.024   0.143 -0.0484 -0.0133  0.6237
 7598TIP3   OH244208   5.069   5.233  10.865  0.0575 -0.4415  0.2448
 7598TIP3    H144209   5.042   5.223  10.956  0.2947 -1.3293  0.2273
 7598TIP3    H244210   5.127   5.159  10.849  2.2129  1.1762  0.1542
 7599TIP3   OH244211   5.667   5.163  15.525  0.2087 -0.1132  0.0151
 7599TIP3    H144212   5.659   5.258  15.513  1.5594  0.1091  0.6648
 7599TIP3    H244213   5.745   5.140  15.474  0.5861 -0.6668  0.8208
 7600TIP3   OH244214   6.172   5.566   2.717 -0.2392  0.3780 -0.6836
 7600TIP3    H144215   6.147   5.474   2.706  0.4309  0.2042 -0.8041
 7600TIP3    H244216   6.215   5.569   2.802 -0.4244  0.6222 -0.5970
 7601TIP3   OH244217   3.256   0.988   2.508 -0.3098 -0.2788 -0.0498
 7601TIP3    H144218   3.213   1.073   2.507  0.6789  0.2707  1.2877
 7601TIP3    H244219   3.185   0.926   2.527 -1.1960  0.0887 -1.8932
 7602TIP3   OH244220   2.983   3.171   3.038  0.6542  0.0582  0.2046
 7602TIP3    H144221   2.943   3.174   3.125 -1.2614  0.2143 -0.6411
 7602TIP3    H244222   3.011   3.261   3.021  1.3971 -0.0504  0.7999
 7603TIP3   OH244223   1.781   6.143   4.937  0.1559  0.4606  0.3197
 7603TIP3    H144224   1.707   6.131   4.878  0.2453  0.1427  0.2705
 7603TIP3    H244225   1.858   6.143   4.880  0.2528  0.0225  0.4487
 7604TIP3   OH244226   5.164   2.512  11.318 -0.2807  0.2236 -0.0271
 7604TIP3    H144227   5.196   2.539  11.232 -0.3513 -0.8802 -0.4167
 7604TIP3    H244228   5.234   2.458  11.354 -0.2355  0.7191  0.6352
 7605TIP3   OH244229   2.657   0.792   3.220 -0.2899 -0.1018 -0.7246
 7605TIP3    H144230   2.592   0.841   3.170 -1.7074 -2.5038 -1.3784
 7605TIP3    H244231   2.607   0.723   3.264  1.3506  0.1137  1.6488
 7606TIP3   OH244232   6.398   4.319  10.723 -0.1109 -0.1661 -0.1146
 7606TIP3    H144233   6.357   4.249  10.671  0.0194 -0.7419  0.5521
 7606TIP3    H244234   6.475   4.278  10.763  1.4424  1.0308 -1.7313
 7607TIP3   OH244235   1.530   3.014  14.849 -0.2708 -0.0730 -0.3068
 7607TIP3    H144236   1.605   3.013  14.790  0.4587 -0.5773  0.5964
 7607TIP3    H244237   1.545   2.940  14.907 -1.0946  0.2651  0.3535
 7608TIP3   OH244238   5.271   3.380  15.452  0.2134  0.0251  0.6081
 7608TIP3    H144239   5.322   3.333  15.387  0.9989  1.1986  0.3358
 7608TIP3    H244240   5.186   3.335  15.454 -0.3165  0.7203 -2.1845
 7609TIP3   OH244241   5.696   4.143   2.562  0.0752  0.2448 -0.2876
 7609TIP3    H144242   5.652   4.128   2.646 -0.2790  0.4057 -0.4433
 7609TIP3    H244243   5.697   4.238   2.553 -1.1689  0.2002 -1.1333
 7610TIP3   OH244244   2.028   0.442   1.339 -0.6341  0.4438 -0.0765
 7610TIP3    H144245   2.122   0.454   1.353 -0.5255 -1.8795  1.7651
 7610TIP3    H244246   2.022   0.364   1.284 -1.4877 -0.2045  0.9092
 7611TIP3   OH244247   4.473   3.468   1.477  0.0612 -0.4447  0.7736
 7611TIP3    H144248   4.436   3.451   1.390  0.5584 -0.5167  0.5780
 7611TIP3    H244249   4.460   3.386   1.524 -1.8201  0.1315  1.3569
 7612TIP3   OH244250   2.242   3.426  12.438 -0.3654  0.2319 -0.1676
 7612TIP3    H144251   2.279   3.512  12.422  0.1244 -0.2678 -1.9927
 7612TIP3    H244252   2.150   3.442  12.460 -0.1621  1.2383 -0.0358
 7613TIP3   OH244253   5.032   5.934  16.057 -0.2886 -0.0924  0.4453
 7613TIP3    H144254   4.987   5.850  16.051  0.0311 -0.1786 -1.1413
 7613TIP3    H244255   4.984   5.982  16.125 -0.5603 -1.4799  1.2858
 7614TIP3   OH244256   4.800   2.522  14.653  0.2746  0.0377 -0.6945
 7614TIP3    H144257   4.832   2.609  14.629  0.9168  0.6346  1.9177
 7614TIP3    H244258   4.717   2.539  14.698  0.0319 -0.7857 -0.8219
 7615TIP3   OH244259   5.200   3.137   0.388 -0.2423 -0.2889 -0.1556
 7615TIP3    H144260   5.218   3.134   0.482  2.6443  1.2865 -0.5432
 7615TIP3    H244261   5.214   3.047   0.359 -2.4666 -1.0923  1.0456
 7616TIP3   OH244262   4.297   2.985  16.530  0.9909  0.1044  0.6308
 7616TIP3    H144263   4.271   3.006  16.620 -0.0584  4.5088 -0.4590
 7616TIP3    H244264   4.393   2.984  16.532  0.9749 -0.6964  1.9006
 7617TIP3   OH244265   1.851   2.852   4.490 -0.0953 -0.8481 -0.2249
 7617TIP3    H144266   1.944   2.857   4.470 -0.0233  0.8084  0.3590
 7617TIP3    H244267   1.836   2.922   4.554 -1.3820 -2.3106  1.1584
 7618TIP3   OH244268   0.885   2.726   2.300 -0.0679 -0.3474  0.3331
 7618TIP3    H144269   0.795   2.696   2.288  0.2113 -0.7898 -0.7166
 7618TIP3    H244270   0.880   2.821   2.293 -0.2567 -0.4438 -1.2907
 7619TIP3   OH244271   4.704   2.841   6.351  0.6522 -0.7064  0.0343
 7619TIP3    H144272   4.738   2.768   6.403 -0.2794 -0.8186  0.4993
 7619TIP3    H244273   4.621   2.809   6.316 -0.9162  0.8442  2.0635
 7620TIP3   OH244274   3.541   0.272  15.228 -0.3021 -0.3745 -0.1258
 7620TIP3    H144275   3.458   0.315  15.251 -0.9077 -0.5289 -1.9277
 7620TIP3    H244276   3.578   0.327  15.159  0.9768 -0.4773  0.4570
 7621TIP3   OH244277   3.547   3.271   0.218  0.0969 -0.2398 -0.8257
 7621TIP3    H144278   3.523   3.254   0.309  0.7123 -1.4474 -0.8666
 7621TIP3    H244279   3.481   3.332   0.186  0.4534  0.9953  0.7193
 7622TIP3   OH244280   0.854   3.942  16.269 -0.2474 -0.0895  0.5708
 7622TIP3    H144281   0.898   4.023  16.297 -0.5728 -0.2128  1.4754
 7622TIP3    H244282   0.860   3.944  16.174  1.0281  0.2817  0.6401
 7623TIP3   OH244283   3.812   1.880  12.165  0.6209 -0.0164  0.1398
 7623TIP3    H144284   3.888   1.842  12.120  2.0374  1.8590  0.8534
 7623TIP3    H244285   3.789   1.815  12.231  0.2587 -1.5454 -1.4096
 7624TIP3   OH244286   6.575   5.522   4.985 -0.3052  0.4888 -0.5528
 7624TIP3    H144287   6.576   5.589   5.053 -0.2641  0.9808 -1.0289
 7624TIP3    H244288   6.663   5.526   4.946 -0.6593  0.9321 -1.3215
 7625TIP3   OH244289   0.039   3.137  14.780 -0.6383 -0.9070 -0.0178
 7625TIP3    H144290  -0.016   3.170  14.709  0.6850  0.7510 -0.3480
 7625TIP3    H244291   0.084   3.062  14.743  0.2074  0.0805 -1.0477
 7626TIP3   OH244292   2.669   1.708  12.962  0.8175 -0.1681  0.4759
 7626TIP3    H144293   2.616   1.786  12.947  3.0169  1.2851 -0.1623
 7626TIP3    H244294   2.758   1.740  12.970  1.8168 -2.6226  0.1807
 7627TIP3   OH244295   4.627   5.510  16.879  0.0824  0.2036  0.0386
 7627TIP3    H144296   4.647   5.521  16.786 -1.0113 -0.9727 -0.3668
 7627TIP3    H244297   4.621   5.415  16.891 -1.9628  0.3782  0.8142
 7628TIP3   OH244298   5.638   4.912   3.588  0.0005  0.4463 -0.1326
 7628TIP3    H144299   5.694   4.959   3.527  1.2972 -1.7386 -0.7418
 7628TIP3    H244300   5.638   4.966   3.667 -0.6734  2.6884 -1.5683
 7629TIP3   OH244301   4.378   4.571  16.822  0.2727  0.2639 -0.2048
 7629TIP3    H144302   4.315   4.550  16.891 -0.9809 -0.3254 -1.5024
 7629TIP3    H244303   4.424   4.489  16.806  0.9751  0.5449  0.3143
 7630TIP3   OH244304   0.283   1.378   1.754  0.1840 -0.7082 -0.0372
 7630TIP3    H144305   0.328   1.375   1.839  1.9459 -1.5620 -0.9320
 7630TIP3    H244306   0.265   1.471   1.740  1.5907 -0.3344  0.4370
 7631TIP3   OH244307   5.677   2.651   2.441 -0.3807 -0.0057 -0.2428
 7631TIP3    H144308   5.770   2.640   2.420 -0.2433  1.0569 -0.2109
 7631TIP3    H244309   5.676   2.676   2.534 -0.6885  0.2918 -0.3283
 7632TIP3   OH244310   2.718   3.578  11.376 -0.2418 -0.6105 -0.1114
 7632TIP3    H144311   2.722   3.543  11.288  0.3234 -1.2890  0.1721
 7632TIP3    H244312   2.685   3.506  11.430  0.4114 -0.5483  0.3904
 7633TIP3   OH244313   1.464   4.926   2.854 -0.5137  0.2297 -0.5530
 7633TIP3    H144314   1.546   4.877   2.845 -0.4686  0.3002 -0.5230
 7633TIP3    H244315   1.444   4.920   2.948 -0.4438  0.3741 -0.5294
 7634TIP3   OH244316   2.275   2.603   2.848 -0.0541  0.2391 -0.6299
 7634TIP3    H144317   2.211   2.562   2.790 -0.1727 -2.4013  1.1949
 7634TIP3    H244318   2.231   2.605   2.934  2.2826 -1.9085  0.7459
 7635TIP3   OH244319   1.284   4.515   1.060  0.3545 -0.1786  0.1727
 7635TIP3    H144320   1.201   4.560   1.073 -0.6064 -1.9089  0.3963
 7635TIP3    H244321   1.319   4.502   1.148 -0.3485 -1.5417  0.2794
 7636TIP3   OH244322   5.561   1.354   2.089  0.4297  0.4168 -0.1174
 7636TIP3    H144323   5.599   1.442   2.094 -0.8071  1.0141 -0.7834
 7636TIP3    H244324   5.563   1.322   2.180 -1.0882  2.0203  0.5282
 7637TIP3   OH244325   3.122   6.112   3.138 -0.0258 -0.3845  0.0443
 7637TIP3    H144326   3.040   6.064   3.131 -0.1597  0.0948 -2.4105
 7637TIP3    H244327   3.108   6.191   3.086  2.2517 -0.6987 -1.1559
 7638TIP3   OH244328   3.755   2.292  12.998  0.1227 -0.4151  0.0204
 7638TIP3    H144329   3.725   2.345  12.924 -0.3368 -1.8927 -0.9013
 7638TIP3    H244330   3.699   2.318  13.071 -1.3974 -0.9462 -0.9045
 7639TIP3   OH244331   2.621   5.741  14.747 -0.3396  0.8377  0.0588
 7639TIP3    H144332   2.620   5.660  14.696 -2.2945  0.4772  0.5783
 7639TIP3    H244333   2.626   5.712  14.838 -0.9040  1.2912  0.2427
 7640TIP3   OH244334   3.971   3.536   2.331 -0.5377  0.0612 -0.0320
 7640TIP3    H144335   4.044   3.514   2.272  0.6821 -0.4311  1.5806
 7640TIP3    H244336   4.005   3.608   2.384 -1.9771  1.1745 -0.5643
 7641TIP3   OH244337   2.432   0.236   3.089  0.1663 -0.2272  0.0944
 7641TIP3    H144338   2.397   0.175   3.155  0.4885 -0.1050  0.3818
 7641TIP3    H244339   2.406   0.198   3.005 -0.0631 -0.4987  0.2868
 7642TIP3   OH244340   1.597   5.951  16.937 -0.2565 -0.2781 -0.1662
 7642TIP3    H144341   1.525   5.963  16.998 -0.3079  0.2474 -0.3186
 7642TIP3    H244342   1.564   5.985  16.854 -0.8643 -2.7013 -0.9973
 7643TIP3   OH244343   1.128   3.688   4.248  0.3446  0.0109  0.6538
 7643TIP3    H144344   1.079   3.647   4.177 -0.0628 -0.8322  1.3924
 7643TIP3    H244345   1.060   3.726   4.304  0.4939 -1.2925  1.7701
 7644TIP3   OH244346   6.412   4.411   4.523 -0.5930  0.4517  0.3074
 7644TIP3    H144347   6.455   4.428   4.607 -1.9193  1.1068  0.8728
 7644TIP3    H244348   6.485   4.396   4.462  0.3951 -1.3450  1.8110
 7645TIP3   OH244349   1.728   5.091  15.307  0.6068  0.4456  0.5337
 7645TIP3    H144350   1.803   5.096  15.248  1.0007  0.3977  1.0275
 7645TIP3    H244351   1.662   5.042  15.258 -0.1139  2.7699 -0.9860
 7646TIP3   OH244352   1.082   1.285   3.193  0.3556 -0.0643  0.4547
 7646TIP3    H144353   1.034   1.208   3.225 -0.8449 -0.4376 -1.9368
 7646TIP3    H244354   1.035   1.360   3.229 -1.3776 -0.4550 -0.8169
 7647TIP3   OH244355   3.866   4.836  17.374 -0.3379  0.3276 -0.1737
 7647TIP3    H144356   3.962   4.835  17.373 -0.3108 -0.9027  1.0327
 7647TIP3    H244357   3.844   4.905  17.437 -0.2831  1.1829 -1.0642
 7648TIP3   OH244358   2.740   2.887  11.595 -0.2208  0.0836  0.3345
 7648TIP3    H144359   2.826   2.888  11.637 -1.1673 -0.2934  2.4057
 7648TIP3    H244360   2.705   2.975  11.609 -0.3375  0.1232 -0.1699
 7649TIP3   OH244361   5.089   5.627  12.395  0.4278 -0.4611 -0.3032
 7649TIP3    H144362   5.104   5.720  12.382  1.6540 -0.5420  0.4258
 7649TIP3    H244363   5.055   5.596  12.311  1.6881  0.3066 -1.1268
 7650TIP3   OH244364   6.237   0.956  15.928  0.0891  0.0236  0.0591
 7650TIP3    H144365   6.326   0.982  15.903  0.7719 -0.1268  2.1528
 7650TIP3    H244366   6.236   0.963  16.024 -1.8460 -0.9859  0.1527
 7651TIP3   OH244367   5.360   2.274  13.038 -0.1170 -0.3923  0.4994
 7651TIP3    H144368   5.355   2.352  12.982 -2.9783  0.5112  1.8401
 7651TIP3    H244369   5.451   2.246  13.030  0.5419  1.9057 -1.5943
 7652TIP3   OH244370   2.647   4.353   5.817 -0.3427 -0.3386 -0.5150
 7652TIP3    H144371   2.677   4.312   5.898  0.2931 -0.0828 -0.6195
 7652TIP3    H244372   2.596   4.429   5.847  0.2100 -0.0230 -0.3509
 7653TIP3   OH244373   4.888   4.765   2.572 -0.0763  0.4799 -0.0916
 7653TIP3    H144374   4.895   4.816   2.491  0.4550 -0.4516 -0.6482
 7653TIP3    H244375   4.800   4.729   2.571  0.0035  0.2876 -0.3736
 7654TIP3   OH244376   2.735   4.611  14.436 -0.3598 -0.2227 -0.5742
 7654TIP3    H144377   2.747   4.695  14.390  1.2649 -0.2765 -0.3206
 7654TIP3    H244378   2.711   4.549  14.367  1.6948 -0.2265 -1.3525
 7655TIP3   OH244379   3.912   1.620  16.210  0.1579  0.3167 -0.3223
 7655TIP3    H144380   3.912   1.526  16.230 -2.1077  0.4638  0.7264
 7655TIP3    H244381   3.915   1.624  16.114  2.4926 -0.7138 -0.3436
 7656TIP3   OH244382   1.479   6.124   2.866 -0.0346 -0.0407  0.5276
 7656TIP3    H144383   1.520   6.109   2.951 -1.8801  1.0680  1.6959
 7656TIP3    H244384   1.385   6.130   2.885 -0.5265  0.0518 -1.6245
 7657TIP3   OH244385   4.256   6.703  14.791  0.0209 -0.1125 -0.3855
 7657TIP3    H144386   4.298   6.618  14.779  0.8675  0.3483 -0.8154
 7657TIP3    H244387   4.246   6.737  14.702 -3.3349 -1.1287 -0.5287
 7658TIP3   OH244388   3.508   5.290  12.181  0.5605 -0.5717  0.9480
 7658TIP3    H144389   3.591   5.260  12.218  0.0823 -1.0753  1.6306
 7658TIP3    H244390   3.451   5.214  12.186 -0.3417  0.1301  1.6765
 7659TIP3   OH244391   6.467   2.202   5.950  0.8014  0.1857 -0.1309
 7659TIP3    H144392   6.524   2.198   5.873 -0.5532  0.5851 -1.1917
 7659TIP3    H244393   6.495   2.281   5.997 -0.9366  2.2930 -2.3957
 7660TIP3   OH244394   0.545   4.272  12.155 -0.2101  0.3222  0.4924
 7660TIP3    H144395   0.471   4.282  12.095 -0.2726  0.4287  0.5869
 7660TIP3    H244396   0.580   4.360  12.165 -0.3295  0.3395  0.7756
 7661TIP3   OH244397   0.669   2.906  11.822  0.1997 -0.3879 -0.7675
 7661TIP3    H144398   0.755   2.936  11.792 -0.6415  5.5689  1.4040
 7661TIP3    H244399   0.687   2.860  11.904  1.4331  2.6414  0.8053
 7662TIP3   OH244400   0.172   0.474  17.052 -0.1124 -0.2423 -0.4930
 7662TIP3    H144401   0.087   0.441  17.025  1.8978 -4.1489 -2.8972
 7662TIP3    H244402   0.206   0.520  16.975 -0.1328  1.7149  0.6004
 7663TIP3   OH244403   2.201   6.234   5.625 -0.0208 -0.3864  0.0972
 7663TIP3    H144404   2.122   6.181   5.617 -0.1201 -0.4430  1.3025
 7663TIP3    H244405   2.171   6.319   5.656  0.1069  0.5317 -2.1093
 7664TIP3   OH244406   2.754   0.056  11.813  0.0810  0.5655 -0.3356
 7664TIP3    H144407   2.841   0.017  11.807 -0.3751 -0.6755  0.6853
 7664TIP3    H244408   2.745   0.106  11.732  1.3134 -0.1700 -0.9649
 7665TIP3   OH244409   2.216   5.145   0.147 -0.6806 -0.1111 -0.5570
 7665TIP3    H144410   2.310   5.129   0.141 -0.4650  0.9222 -0.2152
 7665TIP3    H244411   2.183   5.076   0.205  0.2120  0.7057  0.9775
 7666TIP3   OH244412   0.714   6.475   6.477 -0.0375  0.0032 -0.7788
 7666TIP3    H144413   0.777   6.541   6.505 -1.2324  1.2384 -0.9259
 7666TIP3    H244414   0.710   6.413   6.549  0.6808  0.4036 -0.3862
 7667TIP3   OH244415   5.188   4.833  17.027  0.0149  0.3438  0.1105
 7667TIP3    H144416   5.157   4.807  17.114  2.9857  3.3118  2.3338
 7667TIP3    H244417   5.235   4.756  16.994 -2.0039 -1.1600  0.5959
 7668TIP3   OH244418   4.342   2.877  13.269  0.5895 -0.0497  0.3764
 7668TIP3    H144419   4.363   2.905  13.359 -1.0855 -0.2676  0.8624
 7668TIP3    H244420   4.343   2.958  13.218 -1.0301  0.4834  1.1343
 7669TIP3   OH244421   3.268   6.398  16.960 -0.0751 -0.4604 -0.0248
 7669TIP3    H144422   3.265   6.455  17.037 -0.7217 -0.5767  0.0454
 7669TIP3    H244423   3.261   6.458  16.886 -0.3318 -0.4147  0.0342
 7670TIP3   OH244424   0.566   2.140   4.866 -0.1530 -0.5552  0.0338
 7670TIP3    H144425   0.552   2.105   4.778  1.7248  1.1047 -1.0121
 7670TIP3    H244426   0.621   2.075   4.910 -1.1513 -1.4202  0.0473
 7671TIP3   OH244427   3.414   6.138   0.239  0.0114  0.3348  0.7778
 7671TIP3    H144428   3.415   6.126   0.334  0.8986  0.6192  0.8085
 7671TIP3    H244429   3.466   6.066   0.205 -1.7117 -0.7810  0.3618
 7672TIP3   OH244430   3.908   2.209   1.292  0.0107 -0.2403 -0.5920
 7672TIP3    H144431   3.997   2.231   1.266  0.1416 -0.4337 -0.3133
 7672TIP3    H244432   3.870   2.168   1.215 -0.2612  1.0006 -1.1469
 7673TIP3   OH244433   4.362   0.446  12.613 -0.5624  0.0220 -0.1085
 7673TIP3    H144434   4.364   0.353  12.589  0.2693  0.4145 -1.6954
 7673TIP3    H244435   4.402   0.491  12.538 -0.3841  1.6085  0.8915
 7674TIP3   OH244436   5.241   1.736  12.185 -0.2947  0.0501  0.1801
 7674TIP3    H144437   5.231   1.698  12.272 -0.6293  0.3695  0.2807
 7674TIP3    H244438   5.290   1.669  12.136  1.4244  0.5629  1.0938
 7675TIP3   OH244439   3.968   1.575  15.276 -0.6690 -0.4017  0.2343
 7675TIP3    H144440   3.891   1.554  15.223 -0.8418  0.4073  0.1462
 7675TIP3    H244441   4.018   1.494  15.279 -1.5937 -0.9858  0.4091
 7676TIP3   OH244442   1.229   1.370  10.022 -0.0639  0.2283 -0.6902
 7676TIP3    H144443   1.301   1.432  10.033 -0.7732  0.7415  1.3375
 7676TIP3    H244444   1.235   1.313  10.098 -1.8905  0.3637 -0.4259
 7677TIP3   OH244445   5.123   2.645   1.189  0.2484  0.6537 -0.0029
 7677TIP3    H144446   5.103   2.566   1.138 -0.8483 -0.8526  2.5831
 7677TIP3    H244447   5.073   2.715   1.146 -1.8465 -0.8460 -0.1400
 7678TIP3   OH244448   1.157   2.880   6.120 -0.2552  0.4200 -0.0543
 7678TIP3    H144449   1.116   2.806   6.164  0.3282 -0.1277 -0.4169
 7678TIP3    H244450   1.251   2.860   6.123 -0.2557 -0.3152 -2.7101
 7679TIP3   OH244451   4.900   6.274   5.811 -0.4076  0.0420 -0.3116
 7679TIP3    H144452   4.875   6.362   5.838 -0.4450  0.4246 -1.5265
 7679TIP3    H244453   4.826   6.219   5.838  0.1548  0.1492  1.5692
 7680TIP3   OH244454   1.822   6.126  15.388  0.4917 -0.2556 -0.6070
 7680TIP3    H144455   1.828   6.031  15.381  0.2541 -0.2450 -1.0246
 7680TIP3    H244456   1.737   6.142  15.429 -0.2522 -0.1882 -2.0857
 7681TIP3   OH244457   0.582   4.184   2.545  0.3751 -0.2622  0.0992
 7681TIP3    H144458   0.677   4.173   2.550  0.6024  0.5158 -1.5234
 7681TIP3    H244459   0.560   4.237   2.621  1.2555 -0.3896  0.4548
 7682TIP3   OH244460   2.238   3.707   1.622  0.4271 -0.3239  0.1443
 7682TIP3    H144461   2.145   3.701   1.645 -0.1008  0.1089 -1.7282
 7682TIP3    H244462   2.282   3.656   1.689 -1.3122 -1.7359  0.2935
 7683TIP3   OH244463   1.717   3.469   6.097  0.6823  0.5589 -0.4648
 7683TIP3    H144464   1.766   3.428   6.026  0.3807 -0.7173  0.0344
 7683TIP3    H244465   1.739   3.417   6.175 -1.7367 -0.3159 -0.2995
 7684TIP3   OH244466   1.149   3.686   6.410 -0.4638  0.1971 -0.5997
 7684TIP3    H144467   1.092   3.653   6.480  0.8872 -1.1311 -0.0696
 7684TIP3    H244468   1.189   3.764   6.447  2.9585 -2.3623  1.6664
 7685TIP3   OH244469   1.460   5.406   1.523 -0.5226 -0.2697 -0.3565
 7685TIP3    H144470   1.469   5.319   1.562 -0.2120  0.3894  1.1296
 7685TIP3    H244471   1.548   5.444   1.529 -0.5386 -0.0128 -1.4486
 7686TIP3   OH244472   3.081   1.941  12.851 -0.0176  0.0312 -0.5779
 7686TIP3    H144473   3.170   1.943  12.816 -0.4072 -0.7684 -1.6506
 7686TIP3    H244474   3.040   2.020  12.817  0.4505  0.7433  0.4479
 7687TIP3   OH244475   3.176   1.342  11.725 -0.3144 -0.3102 -0.1734
 7687TIP3    H144476   3.108   1.278  11.744 -0.5957  0.3314  1.0910
 7687TIP3    H244477   3.163   1.365  11.633 -0.3355 -1.8889 -0.5877
 7688TIP3   OH244478   5.672   1.432  16.466  0.3761  0.4971  0.0402
 7688TIP3    H144479   5.744   1.480  16.426  0.2101  0.5950 -0.1387
 7688TIP3    H244480   5.712   1.352  16.499  1.5363  2.3338  3.7786
 7689TIP3   OH244481   4.002   5.183   2.302 -0.0063  0.7625  0.5186
 7689TIP3    H144482   3.946   5.201   2.227  0.6234 -0.3826 -0.2393
 7689TIP3    H244483   4.033   5.270   2.330  1.3257  1.0947 -1.7641
 7690TIP3   OH244484   6.139   6.175  17.066  0.3828  0.7252  0.1739
 7690TIP3    H144485   6.127   6.135  17.152 -0.1164 -0.3630 -0.3702
 7690TIP3    H244486   6.229   6.154  17.042 -0.2723 -1.4611 -0.7177
 7691TIP3   OH244487   3.417   5.508  14.476  0.1211  0.2639  0.2524
 7691TIP3    H144488   3.406   5.490  14.570 -0.0496  1.0132  0.3865
 7691TIP3    H244489   3.335   5.552  14.451  0.6386  1.0991  0.0152
 7692TIP3   OH244490   3.637   1.773  14.377  0.4327  0.6110 -0.6459
 7692TIP3    H144491   3.558   1.795  14.427  0.9653  0.3440  0.3440
 7692TIP3    H244492   3.607   1.765  14.287 -1.0238 -1.3218 -0.0464
 7693TIP3   OH244493   6.274   1.169  16.793  0.0471 -0.5761  0.4711
 7693TIP3    H144494   6.313   1.083  16.777 -2.1697 -1.3466 -1.2607
 7693TIP3    H244495   6.201   1.151  16.852 -0.4857  0.1138  0.0327
 7694TIP3   OH244496   0.186   1.309  17.208 -0.3856 -0.2540 -0.5970
 7694TIP3    H144497   0.108   1.358  17.181 -1.4258 -1.2606  0.4591
 7694TIP3    H244498   0.203   1.339  17.298 -0.7654 -1.4772 -0.1029
 7695TIP3   OH244499   1.899   4.902   2.816  0.6845  0.3846  0.6730
 7695TIP3    H144500   1.993   4.888   2.822  0.5337 -2.6509 -1.5943
 7695TIP3    H244501   1.887   4.950   2.735  0.2396 -0.0071  0.5028
 7696TIP3   OH244502   3.835   0.975   0.219  0.2468  0.5664 -0.0342
 7696TIP3    H144503   3.926   0.999   0.203  0.0951  1.9325  0.9635
 7696TIP3    H244504   3.795   0.975   0.132  1.2507 -0.4352 -0.5337
 7697TIP3   OH244505   4.383   1.255  13.734 -0.2323  0.0762  0.2467
 7697TIP3    H144506   4.323   1.277  13.805 -2.7335 -2.0368 -1.0311
 7697TIP3    H244507   4.369   1.324  13.668 -2.0822 -0.8837 -0.4349
 7698TIP3   OH244508   2.579   1.930  11.845 -0.4151 -0.1957  0.0381
 7698TIP3    H144509   2.593   1.846  11.800  1.2994  1.3508 -2.5415
 7698TIP3    H244510   2.661   1.945  11.892 -1.4213 -0.7726  2.1296
 7699TIP3   OH244511   4.805   1.342  12.075 -0.3545  0.6860 -0.0239
 7699TIP3    H144512   4.796   1.302  11.988 -1.5850 -1.3798  0.9529
 7699TIP3    H244513   4.715   1.351  12.106  0.0843 -0.3471  1.7171
 7700TIP3   OH244514   0.278   2.892   5.830 -0.4050 -0.0699 -0.1567
 7700TIP3    H144515   0.255   2.903   5.922 -1.0236 -0.6440 -0.2301
 7700TIP3    H244516   0.373   2.896   5.828 -0.3565 -0.6346  0.5961
 7701TIP3   OH244517   1.991   0.189  14.301  0.2152  0.1500  0.6119
 7701TIP3    H144518   2.034   0.217  14.382  1.5339  1.3094 -0.4356
 7701TIP3    H244519   2.032   0.105  14.280  1.3518  0.8051  0.1162
 7702TIP3   OH244520   6.030   4.705  14.452 -0.2731  0.5943  0.0204
 7702TIP3    H144521   6.091   4.746  14.391 -1.2060  0.5473 -0.9689
 7702TIP3    H244522   6.080   4.633  14.492 -0.4434 -1.2415 -2.8004
 7703TIP3   OH244523   3.999   5.721   1.144  0.0916  0.0424  0.1830
 7703TIP3    H144524   3.941   5.747   1.215 -1.8086 -1.8788 -0.5754
 7703TIP3    H244525   3.952   5.744   1.064  2.0285  1.8210 -0.5477
 7704TIP3   OH244526   3.943   1.097   1.582 -0.3473 -0.4916 -0.7396
 7704TIP3    H144527   3.972   1.007   1.567  1.8483 -0.1176  0.7694
 7704TIP3    H244528   4.014   1.151   1.547 -0.8740  0.6049 -0.1627
 7705TIP3   OH244529   1.879   0.465  12.521  0.3141  0.4947  0.1523
 7705TIP3    H144530   1.965   0.495  12.551 -0.2912 -0.2559  2.9606
 7705TIP3    H244531   1.824   0.544  12.522  0.7459  0.8325 -0.9312
 7706TIP3   OH244532   0.208   4.265  13.947 -0.6883  0.2209 -0.2021
 7706TIP3    H144533   0.302   4.278  13.930 -0.2436 -0.4004  1.5859
 7706TIP3    H244534   0.184   4.190  13.893  0.5290 -1.3460  1.3122
 7707TIP3   OH244535   0.584   3.376   4.042 -0.1690 -0.2447  0.0873
 7707TIP3    H144536   0.488   3.373   4.038 -0.1879 -1.9374  0.8915
 7707TIP3    H244537   0.611   3.389   3.951 -1.1373 -1.4430 -0.3973
 7708TIP3   OH244538   0.173   4.755   1.257 -0.5740 -0.2057  0.0057
 7708TIP3    H144539   0.195   4.698   1.183 -1.9101  0.3154 -0.8347
 7708TIP3    H244540   0.240   4.736   1.323  0.2619 -1.1664 -1.0778
 7709TIP3   OH244541   1.209   5.764   4.084 -0.0586  0.2175 -0.3229
 7709TIP3    H144542   1.270   5.749   4.157 -0.3926  0.7012  0.0672
 7709TIP3    H244543   1.257   5.736   4.006  0.8160  0.9481 -0.0710
 7710TIP3   OH244544   5.012   1.967  10.441  0.4566  0.4054  0.6265
 7710TIP3    H144545   4.926   1.993  10.472 -0.7945 -0.2407 -1.9688
 7710TIP3    H244546   5.057   2.049  10.421  0.1412  0.7308  1.2585
 7711TIP3   OH244547   1.644   1.659  13.745  0.5086 -0.1217 -0.8853
 7711TIP3    H144548   1.689   1.693  13.822 -0.5384  0.0647 -0.3441
 7711TIP3    H244549   1.635   1.565  13.763  2.7885 -0.6455 -2.0742
 7712TIP3   OH244550   5.242   3.703   2.348  0.9526 -0.3088 -0.3211
 7712TIP3    H144551   5.206   3.669   2.430 -0.0890 -0.1529 -0.6950
 7712TIP3    H244552   5.303   3.635   2.318  0.3092 -0.9935 -0.1083
 7713TIP3   OH244553   2.129   2.741   0.227  0.0641  0.2850 -0.0805
 7713TIP3    H144554   2.149   2.660   0.179  0.3664  0.0563  0.4279
 7713TIP3    H244555   2.111   2.712   0.316  1.5541  0.9206  0.4454
 7714TIP3   OH244556   4.470   5.727  16.345 -0.6415 -0.6209  0.0290
 7714TIP3    H144557   4.456   5.675  16.266 -0.1178 -0.2588 -0.3085
 7714TIP3    H244558   4.383   5.733  16.385 -0.8892 -0.9184 -0.4516
 7715TIP3   OH244559   5.792   4.367   3.883 -0.4620  0.0988  0.2620
 7715TIP3    H144560   5.803   4.417   3.963 -2.3181  0.0675  0.5774
 7715TIP3    H244561   5.720   4.411   3.837 -0.2767 -0.6419 -0.7703
 7716TIP3   OH244562   5.009   5.255  13.863 -0.1352  0.3303  0.1880
 7716TIP3    H144563   5.081   5.315  13.844 -0.1542  0.1937 -0.3261
 7716TIP3    H244564   4.955   5.302  13.927  0.4684  0.3877  0.6557
 7717TIP3   OH244565   2.422   0.501  13.678  0.0912 -0.6354  0.1142
 7717TIP3    H144566   2.463   0.588  13.673 -1.7850  0.2447 -1.1221
 7717TIP3    H244567   2.496   0.441  13.688  1.3897  1.1464  2.1406
 7718TIP3   OH244568   2.077   1.865  15.051 -0.3159  0.0611  0.2236
 7718TIP3    H144569   1.999   1.893  15.003 -0.7953 -0.9126  0.3986
 7718TIP3    H244570   2.053   1.876  15.143 -1.8952 -4.0324  0.5188
 7719TIP3   OH244571   3.497   0.297   2.112  0.2875  0.0066 -0.3536
 7719TIP3    H144572   3.499   0.363   2.181  0.6447  1.0805 -1.3563
 7719TIP3    H244573   3.562   0.233   2.138  1.7925  1.3769 -0.6037
 7720TIP3   OH244574   2.052   1.421   2.189 -0.0137  0.0443  0.1616
 7720TIP3    H144575   1.961   1.432   2.163  0.0600 -0.1617 -0.1933
 7720TIP3    H244576   2.095   1.383   2.112  0.0015 -1.5112  0.9109
 7721TIP3   OH244577   3.912   3.697  12.910 -0.3576  0.2607 -0.2026
 7721TIP3    H144578   3.895   3.760  12.981  0.8934  0.5145 -0.0991
 7721TIP3    H244579   3.841   3.712  12.848 -0.1062  1.7897 -0.1730
 7722TIP3   OH244580   3.478   1.368  14.676 -0.3054  0.0832 -0.1883
 7722TIP3    H144581   3.383   1.364  14.666 -0.1450 -0.5405 -1.7898
 7722TIP3    H244582   3.495   1.328  14.761 -1.4259 -0.5748 -0.2601
 7723TIP3   OH244583   0.781   4.064  10.805 -0.3225  0.4266  0.4937
 7723TIP3    H144584   0.791   4.044  10.712  0.8388  1.5026  0.3743
 7723TIP3    H244585   0.775   3.978  10.847 -0.2852 -0.0769 -0.5028
 7724TIP3   OH244586   4.177   0.561   3.385 -0.2054  0.0863  0.2373
 7724TIP3    H144587   4.153   0.486   3.438  0.7468 -2.4968 -2.6488
 7724TIP3    H244588   4.258   0.594   3.425 -0.8368 -0.1700  1.7650
 7725TIP3   OH244589   3.883   1.304   1.146 -0.0698 -0.1209 -0.2586
 7725TIP3    H144590   3.817   1.240   1.172  0.4705  0.2983  2.4596
 7725TIP3    H244591   3.967   1.259   1.159  0.2730 -0.3791 -2.9062
 7726TIP3   OH244592   2.208   4.554  12.787  0.2897 -0.3911  0.7452
 7726TIP3    H144593   2.210   4.615  12.714 -1.1260  0.1614  1.1442
 7726TIP3    H244594   2.117   4.523  12.790  0.8097 -2.0292  0.9650
 7727TIP3   OH244595   2.292   1.167  14.080 -0.2510  0.4695  0.1623
 7727TIP3    H144596   2.340   1.172  14.162 -1.6041 -1.4981  1.1517
 7727TIP3    H244597   2.205   1.136  14.105 -1.6129  2.4140 -1.7227
 7728TIP3   OH244598   0.922   1.576  12.726 -0.7295 -0.3950 -0.2052
 7728TIP3    H144599   0.974   1.657  12.730 -0.1770 -0.7793  0.5203
 7728TIP3    H244600   0.847   1.600  12.672 -0.0207  0.2923 -0.9173
 7729TIP3   OH244601   1.846   4.945   1.718 -0.2056  0.5656  0.0812
 7729TIP3    H144602   1.906   4.880   1.680  0.0053  0.8281 -0.0358
 7729TIP3    H244603   1.883   5.030   1.692 -0.0887  0.7495  0.8330
 7730TIP3   OH244604   0.743   5.603   5.364 -0.5635  0.3929 -0.2435
 7730TIP3    H144605   0.657   5.576   5.396  0.0273  0.0678  1.1708
 7730TIP3    H244606   0.796   5.524   5.367 -0.4900  0.3246 -2.2145
 7731TIP3   OH244607   0.330   2.343   4.156 -0.3654  0.9808  0.4245
 7731TIP3    H144608   0.300   2.332   4.066 -0.0025 -0.8632  0.4873
 7731TIP3    H244609   0.401   2.279   4.166  0.1613  1.7291  1.7698
 7732TIP3   OH244610   5.628   0.103  16.160  0.2898  0.2955 -0.0222
 7732TIP3    H144611   5.586   0.103  16.074 -1.8565 -2.2302  0.8867
 7732TIP3    H244612   5.571   0.157  16.214 -0.2854 -0.8717  0.5686
 7733TIP3   OH244613   2.172   3.970  14.911 -0.1123 -0.0462  0.0511
 7733TIP3    H144614   2.170   4.059  14.944  0.8368 -0.4152  1.1904
 7733TIP3    H244615   2.157   3.978  14.817  3.6253  1.7179 -0.5897
 7734TIP3   OH244616   5.068   4.690   2.763 -0.0878 -0.0810 -0.1794
 7734TIP3    H144617   5.019   4.725   2.688 -1.1518  0.6352  0.8014
 7734TIP3    H244618   5.020   4.611   2.788 -0.1429  0.0566  0.1548
 7735TIP3   OH244619   0.407   4.565   5.421  0.1550  0.0681  0.1730
 7735TIP3    H144620   0.327   4.606   5.389  0.9950  1.5090 -0.1839
 7735TIP3    H244621   0.382   4.524   5.504 -0.8900  0.7021  0.1847
 7736TIP3   OH244622   0.230   5.691  15.251  0.5543  0.4078 -0.0857
 7736TIP3    H144623   0.141   5.725  15.251  0.7809  1.0124 -0.2911
 7736TIP3    H244624   0.255   5.690  15.343  0.5667  0.8740 -0.0792
 7737TIP3   OH244625   2.295   2.012  10.426  0.6711 -0.3833 -0.2564
 7737TIP3    H144626   2.212   1.994  10.470  0.2095  2.3863  0.1508
 7737TIP3    H244627   2.348   2.059  10.491  1.2618  0.8146 -1.5481
 7738TIP3   OH244628   2.253   3.702  15.024  0.3363  0.2738  0.1289
 7738TIP3    H144629   2.310   3.660  14.960  1.0932  1.9071 -0.3005
 7738TIP3    H244630   2.194   3.756  14.972 -1.2255 -0.8740  0.6163
 7739TIP3   OH244631   4.646   1.487   1.755 -0.4425  0.5624 -0.0990
 7739TIP3    H144632   4.577   1.440   1.802 -0.0721 -0.4508 -0.5502
 7739TIP3    H244633   4.653   1.570   1.802 -1.2291  0.2510  0.6140
 7740TIP3   OH244634   4.929   5.026   5.208 -0.2791  0.0861 -0.5603
 7740TIP3    H144635   4.866   5.039   5.278  0.9137 -1.3221  0.8505
 7740TIP3    H244636   4.875   5.004   5.131 -1.6304  2.3119 -0.3253
 7741TIP3   OH244637   6.158   1.408  16.024  0.5843 -0.4800 -0.2687
 7741TIP3    H144638   6.071   1.403  15.984  0.0984  4.9369 -0.6011
 7741TIP3    H244639   6.218   1.393  15.952  0.0552 -2.9208 -0.3038
 7742TIP3   OH244640   4.886   0.592  14.292 -0.4877  0.2807 -0.7039
 7742TIP3    H144641   4.901   0.546  14.375  1.1572 -0.6293 -1.4476
 7742TIP3    H244642   4.916   0.681  14.308  0.5652 -0.0883 -0.4988
 7743TIP3   OH244643   1.890   5.952  15.809  0.3194 -0.1474  0.1665
 7743TIP3    H144644   1.883   6.027  15.867 -1.6568 -0.0202 -0.1772
 7743TIP3    H244645   1.869   5.876  15.864 -1.1052 -0.0702 -0.2299
 7744TIP3   OH244646   2.092   5.857  15.339 -0.0928 -0.0042  0.3518
 7744TIP3    H144647   2.002   5.889  15.337  0.2402  1.1609 -2.6270
 7744TIP3    H244648   2.084   5.762  15.341 -1.6189 -0.0743 -2.5546
 7745TIP3   OH244649   3.125   1.583  16.098  0.4953  0.2975  0.3623
 7745TIP3    H144650   3.213   1.548  16.081  0.4333  0.0940  0.4551
 7745TIP3    H244651   3.092   1.530  16.171 -0.2552 -0.5766 -0.5839
 7746TIP3   OH244652   2.016   5.798   3.936  0.2662  0.7191  0.0356
 7746TIP3    H144653   1.980   5.878   3.898  0.1206 -0.2924 -2.0860
 7746TIP3    H244654   2.110   5.802   3.916  0.7082  1.4550  2.0473
 7747TIP3   OH244655   1.777   5.543   3.811  0.0608  0.2805 -0.8640
 7747TIP3    H144656   1.863   5.515   3.842  0.4133  1.6164 -0.6043
 7747TIP3    H244657   1.792   5.574   3.721 -0.2858 -0.1293 -1.0695
 7748TIP3   OH244658   1.753   1.607   1.467  0.1212 -0.2206 -0.0546
 7748TIP3    H144659   1.776   1.695   1.439  0.2819 -0.0869  0.4681
 7748TIP3    H244660   1.678   1.619   1.526 -0.8744 -0.5923 -1.2173
 7749TIP3   OH244661   1.254   2.851   1.865  0.3901  0.1181 -0.1493
 7749TIP3    H144662   1.305   2.828   1.942  0.7356  0.6177 -0.2238
 7749TIP3    H244663   1.163   2.845   1.893  0.5155  0.3041  0.2991
 7750TIP3   OH244664   1.154   0.217  17.301 -0.5388  0.2369  0.1520
 7750TIP3    H144665   1.163   0.233  17.207  0.4549  0.4623  0.2752
 7750TIP3    H244666   1.243   0.217  17.334 -0.8020 -0.9094  0.9295
 7751TIP3   OH244667   5.422   3.498  13.546 -0.1619 -0.3182  0.1607
 7751TIP3    H144668   5.496   3.555  13.569  1.3215 -2.0050 -0.2555
 7751TIP3    H244669   5.421   3.431  13.615 -0.3573 -1.1683 -0.6542
 7752TIP3   OH244670   4.528   5.972  16.489  0.4416  0.2435 -0.1303
 7752TIP3    H144671   4.469   6.044  16.466  0.3762  0.0096 -0.7381
 7752TIP3    H244672   4.499   5.899  16.433  2.3862  0.6237 -1.7789
 7753TIP3   OH244673   5.481   0.206  14.387  0.1157 -0.3028 -0.0051
 7753TIP3    H144674   5.419   0.134  14.372  0.1268 -0.0355 -1.5507
 7753TIP3    H244675   5.560   0.180  14.339  0.2831  0.5115 -0.1920
 7754TIP3   OH244676   5.744   3.791  15.546  0.7472 -0.3186 -0.2422
 7754TIP3    H144677   5.684   3.755  15.480  0.0787 -2.1808  1.2586
 7754TIP3    H244678   5.820   3.733  15.543  1.2386  0.3140 -0.1883
 7755TIP3   OH244679   3.649   5.816  14.850  0.0896 -0.1709 -0.4197
 7755TIP3    H144680   3.737   5.847  14.873  1.0576 -1.9198 -1.5707
 7755TIP3    H244681   3.649   5.813  14.755 -1.3983  0.2055 -0.4543
 7756TIP3   OH244682   4.818   5.979   5.359 -0.3199  0.2422  0.9226
 7756TIP3    H144683   4.898   5.943   5.322 -0.3977 -0.0113  1.0053
 7756TIP3    H244684   4.757   5.982   5.285 -0.4651 -0.2339  1.0219
 7757TIP3   OH244685   0.137   2.225   4.994  0.4271 -0.0661 -0.9309
 7757TIP3    H144686   0.054   2.197   4.955  0.4618 -1.2409 -0.2100
 7757TIP3    H244687   0.112   2.283   5.066  0.1302 -1.5852  0.2349
 7758TIP3   OH244688   3.224   3.177   5.372 -0.2806 -0.7255  0.1611
 7758TIP3    H144689   3.202   3.170   5.465 -2.3563  1.3668 -0.0908
 7758TIP3    H244690   3.140   3.188   5.328  0.7729  0.2011 -1.7618
 7759TIP3   OH244691   2.716   5.840  13.801 -0.4280  0.2003  0.1038
 7759TIP3    H144692   2.777   5.899  13.756 -1.6618  0.7293 -0.9343
 7759TIP3    H244693   2.758   5.754  13.795  0.7281  0.7185  0.3919
 7760TIP3   OH244694   0.041   0.492  15.801  0.5769  0.4691  0.0313
 7760TIP3    H144695   0.122   0.459  15.761  0.2936 -1.4682  0.9175
 7760TIP3    H244696  -0.028   0.453  15.748  0.1606  2.4541 -0.9842
 7761TIP3   OH244697   3.822   1.207  14.170  0.8211  0.2455 -0.0477
 7761TIP3    H144698   3.816   1.143  14.099  1.9969  0.8587 -0.7233
 7761TIP3    H244699   3.903   1.184  14.216  0.2444  0.0680  0.9075
 7762TIP3   OH244700   2.074   4.733   0.914  0.4290  0.0216  0.1146
 7762TIP3    H144701   2.170   4.739   0.906  0.3532  0.8933 -0.3041
 7762TIP3    H244702   2.050   4.658   0.859  0.8683 -0.1786  0.1903
 7763TIP3   OH244703   3.291   4.831  14.176  0.0746 -0.6824  0.0361
 7763TIP3    H144704   3.314   4.862  14.088  0.2892 -0.9897 -0.0199
 7763TIP3    H244705   3.320   4.739  14.177  1.9055 -0.1471  1.0955
 7764TIP3   OH244706   0.390   4.730   3.285  0.2795  0.0653 -0.6336
 7764TIP3    H144707   0.321   4.668   3.262 -1.5399  2.0199 -0.6747
 7764TIP3    H244708   0.419   4.702   3.372  0.4349 -1.5708 -1.1691
 7765TIP3   OH244709   1.735   0.456   4.828  0.3126  0.1991  0.0761
 7765TIP3    H144710   1.689   0.374   4.810  1.1367  0.0224 -1.3792
 7765TIP3    H244711   1.674   0.524   4.799  0.1938  0.0516 -0.0219
 7766TIP3   OH244712   2.012   5.106  16.367  0.2680  0.4946  0.2123
 7766TIP3    H144713   2.050   5.193  16.363 -1.7782  1.3917 -1.7472
 7766TIP3    H244714   2.042   5.062  16.288 -1.1398  0.5568 -0.3895
 7767TIP3   OH244715   2.885   3.402  12.150  0.6781 -0.8335 -0.6950
 7767TIP3    H144716   2.838   3.381  12.069 -0.2773  0.2710 -0.4477
 7767TIP3    H244717   2.886   3.320  12.199 -2.1810 -0.6325 -0.1346
 7768TIP3   OH244718   3.815   3.586   4.867 -0.3547 -0.3611 -0.2415
 7768TIP3    H144719   3.879   3.581   4.796  0.3525  2.0882  0.1265
 7768TIP3    H244720   3.867   3.573   4.947 -0.2864  1.2701  0.0324
 7769TIP3   OH244721   5.257   0.020  14.706 -0.3684  0.7933 -1.1314
 7769TIP3    H144722   5.212   0.012  14.622  1.5310  1.8855 -2.3380
 7769TIP3    H244723   5.243  -0.064  14.749 -2.2860  0.5977 -2.0511
 7770TIP3   OH244724   1.941   4.126   0.850 -0.8950 -0.3971  0.0779
 7770TIP3    H144725   1.885   4.172   0.786 -0.3321  1.6597  0.9794
 7770TIP3    H244726   1.900   4.143   0.934  1.1257  1.3947  0.8026
 7771TIP3   OH244727   6.725   2.664  13.530  0.5978  0.1750 -0.0614
 7771TIP3    H144728   6.752   2.590  13.476 -2.0388  0.8693 -2.5794
 7771TIP3    H244729   6.783   2.736  13.504 -0.8933  0.6178 -2.4764
 7772TIP3   OH244730   0.839   3.644   0.192  0.7234  0.4914 -0.0958
 7772TIP3    H144731   0.799   3.570   0.147  0.2592  0.5145  0.2770
 7772TIP3    H244732   0.868   3.702   0.122  0.5477  0.2429 -0.3770
 7773TIP3   OH244733   3.688   3.307  15.923 -0.9253 -0.2894 -0.2336
 7773TIP3    H144734   3.769   3.358  15.921 -1.4426  0.8101  2.2910
 7773TIP3    H244735   3.657   3.307  15.832  1.1205  0.5206 -0.9918
 7774TIP3   OH244736   0.483   0.852  15.166 -0.1578 -0.1601 -0.2282
 7774TIP3    H144737   0.557   0.853  15.106 -1.3877 -1.1258 -1.8552
 7774TIP3    H244738   0.452   0.761  15.164  0.4067 -0.5069  2.7569
 7775TIP3   OH244739   2.899   0.179   0.112  0.6723  0.4185  0.1568
 7775TIP3    H144740   2.824   0.210   0.062  0.7522 -0.3216 -0.4440
 7775TIP3    H244741   2.954   0.256   0.123  0.6317  0.6110 -0.8693
 7776TIP3   OH244742   4.945   2.289  17.132 -0.2425 -0.5591 -0.5676
 7776TIP3    H144743   4.988   2.221  17.078  0.0170  0.4385 -1.6624
 7776TIP3    H244744   4.918   2.355  17.069  1.1308  1.2405  0.6532
 7777TIP3   OH244745   4.609   2.537  12.134  0.9395 -0.5498 -0.1725
 7777TIP3    H144746   4.592   2.486  12.054 -0.0499 -1.0011  0.3075
 7777TIP3    H244747   4.526   2.535  12.182  1.4456 -0.0723  0.7544
 7778TIP3   OH244748   5.616   3.245  12.064  0.6902  0.2031 -0.3137
 7778TIP3    H144749   5.609   3.258  11.969  1.5983  0.3901 -0.3722
 7778TIP3    H244750   5.706   3.216  12.077  0.3772 -0.4691  0.4333
 7779TIP3   OH244751   1.896   4.638   1.104  0.3464 -0.0845  0.4030
 7779TIP3    H144752   1.963   4.699   1.072 -0.0047  0.2009  0.2092
 7779TIP3    H244753   1.908   4.559   1.052 -0.9253  0.7457 -1.2195
 7780TIP3   OH244754   3.836   0.656   0.432 -0.8665 -0.1216  0.3934
 7780TIP3    H144755   3.825   0.661   0.337 -1.3507  1.8451  0.5030
 7780TIP3    H244756   3.929   0.674   0.446 -1.4369  3.6493  0.3971
 7781TIP3   OH244757   3.636   4.858  15.948  0.3584  0.1012  0.3272
 7781TIP3    H144758   3.714   4.856  16.005  0.7636  1.5759 -0.1347
 7781TIP3    H244759   3.640   4.776  15.900  0.1320 -1.0929  2.2454
 7782TIP3   OH244760   2.042   4.135  16.557  1.0314 -0.5993  0.2556
 7782TIP3    H144761   2.054   4.040  16.550 -0.2147 -0.7298 -0.4560
 7782TIP3    H244762   2.009   4.162  16.472 -1.1122  0.0431  1.2143
 7783TIP3   OH244763   4.105   4.353  14.945  0.1563 -0.7855  0.1050
 7783TIP3    H144764   4.062   4.344  14.860  1.2507 -1.1542 -0.4416
 7783TIP3    H244765   4.166   4.427  14.932 -0.6358  0.0443  1.0018
 7784TIP3   OH244766   0.017   3.349   3.971 -0.1455  0.3272 -0.1343
 7784TIP3    H144767   0.080   3.331   3.902 -2.0981  0.2888 -2.0334
 7784TIP3    H244768  -0.060   3.297   3.947 -0.9517  0.3986  2.0451
 7785TIP3   OH244769   1.702   0.509   3.129  0.1195  0.3017 -0.2144
 7785TIP3    H144770   1.730   0.543   3.214 -1.6650  0.0572  0.5125
 7785TIP3    H244771   1.773   0.533   3.070  2.9097 -2.0984  1.8356
 7786TIP3   OH244772   0.612   1.450  15.808  0.7318 -0.0625 -1.0270
 7786TIP3    H144773   0.640   1.541  15.811 -0.3859  0.2662 -0.0214
 7786TIP3    H244774   0.564   1.443  15.725  0.5488  0.3466 -0.9584
 7787TIP3   OH244775   1.512   6.519   1.553  0.3487 -0.0261  0.0384
 7787TIP3    H144776   1.577   6.525   1.484 -1.7895 -0.3514 -2.1411
 7787TIP3    H244777   1.473   6.606   1.558 -1.8324 -0.7977 -1.7095
 7788TIP3   OH244778   5.104   5.001  11.369  0.1433  0.1563  0.4807
 7788TIP3    H144779   5.090   4.932  11.304  1.8012 -0.2388  0.5076
 7788TIP3    H244780   5.025   5.054  11.364 -0.5590 -0.9297 -0.5494
 7789TIP3   OH244781   6.208   4.541   1.601  0.2727  0.0294 -0.4164
 7789TIP3    H144782   6.188   4.621   1.649  0.3314  0.0034 -0.3498
 7789TIP3    H244783   6.124   4.517   1.560  0.3527  0.3607 -0.7870
 7790TIP3   OH244784   4.516   3.704   6.419 -0.0522 -0.4541 -0.0762
 7790TIP3    H144785   4.605   3.678   6.394 -0.0103  0.2549 -0.6960
 7790TIP3    H244786   4.461   3.674   6.347 -0.2620 -0.5607  0.1286
 7791TIP3   OH244787   1.957   4.117   6.137 -0.1003 -0.7313  0.3165
 7791TIP3    H144788   2.024   4.101   6.203  0.3262 -1.3811 -0.2528
 7791TIP3    H244789   1.992   4.188   6.083 -0.0631 -0.7807  0.2758
 7792TIP3   OH244790   2.067   1.749   5.921  0.0681 -0.0885  0.0674
 7792TIP3    H144791   2.079   1.833   5.877 -0.2438  0.7036  1.4282
 7792TIP3    H244792   2.119   1.688   5.870  3.0777  1.5657  0.8612
 7793TIP3   OH244793   3.083   5.358  13.939 -0.1840  0.3890  0.0917
 7793TIP3    H144794   3.079   5.406  13.857  0.5088  2.3729  1.1617
 7793TIP3    H244795   3.124   5.418  14.001 -0.8554 -0.9608  1.9567
 7794TIP3   OH244796   1.806   1.410   3.183 -0.4361 -0.2268  0.6670
 7794TIP3    H144797   1.876   1.436   3.122 -0.6342  0.0568  0.5604
 7794TIP3    H244798   1.790   1.318   3.161  1.0098 -0.7900  1.7687
 7795TIP3   OH244799   3.511   3.945  15.248  0.3536  0.6392 -0.1278
 7795TIP3    H144800   3.557   3.973  15.328  1.0053 -0.9830  0.0937
 7795TIP3    H244801   3.571   3.882  15.207  0.1452  1.6285 -2.0526
 7796TIP3   OH244802   2.138   4.729  14.560 -0.3099  0.0791 -0.0707
 7796TIP3    H144803   2.119   4.716  14.467 -0.2463 -1.8778  0.1371
 7796TIP3    H244804   2.061   4.694  14.605  0.2885 -0.3688  0.6280
 7797TIP3   OH244805   1.572   1.815  11.012 -0.2059  0.7858 -0.2498
 7797TIP3    H144806   1.536   1.728  11.000 -0.0890  0.5790  0.8022
 7797TIP3    H244807   1.586   1.823  11.107  0.2967  1.7342 -0.3852
 7798TIP3   OH244808   3.006   5.526  14.799 -0.2536 -0.1489  0.2939
 7798TIP3    H144809   3.058   5.497  14.874  0.9104  0.2108 -0.3430
 7798TIP3    H244810   2.984   5.617  14.819 -1.1746 -0.4767  0.8344
 7799TIP3   OH244811   3.751   4.879  16.650  0.3458 -0.0210  0.0635
 7799TIP3    H144812   3.708   4.950  16.697 -1.1820 -0.8585  0.0098
 7799TIP3    H244813   3.712   4.882  16.562 -2.1624 -2.7730  0.9052
 7800TIP3   OH244814   4.074   2.681  13.831  0.4167  0.5505 -0.3975
 7800TIP3    H144815   4.051   2.589  13.824 -0.0313  0.7233 -1.4096
 7800TIP3    H244816   4.098   2.693  13.923 -1.1783 -0.1976  0.1607
 7801TIP3   OH244817   2.785   2.582  11.987  0.0431  0.2331 -0.1542
 7801TIP3    H144818   2.737   2.665  11.991  0.2064  0.2828  1.5212
 7801TIP3    H244819   2.810   2.574  11.895  0.8504  2.5219 -0.2170
 7802TIP3   OH244820   4.161   4.422   4.441 -0.1251  0.1115 -0.1931
 7802TIP3    H144821   4.182   4.423   4.348 -1.0511 -1.7050 -0.4621
 7802TIP3    H244822   4.178   4.332   4.469 -0.7627  0.3841  1.1659
 7803TIP3   OH244823   4.438   0.176  14.573  0.6944  0.4254 -0.0521
 7803TIP3    H144824   4.401   0.218  14.651  1.3695  0.1063  0.4450
 7803TIP3    H244825   4.494   0.106  14.607  1.1041  0.3673 -0.8218
 7804TIP3   OH244826   5.023   2.492  15.470 -0.6489  0.1947 -0.3262
 7804TIP3    H144827   5.078   2.569  15.462 -2.5910  1.6257 -0.7987
 7804TIP3    H244828   5.049   2.452  15.553  0.0459  1.6717  0.1942
 7805TIP3   OH244829   5.210   4.593   1.996 -0.7964  0.4621 -0.4099
 7805TIP3    H144830   5.290   4.614   1.948 -1.1246  2.4831 -0.1444
 7805TIP3    H244831   5.141   4.594   1.929 -0.9768  1.3901 -0.2185
 7806TIP3   OH244832   1.156   2.485  16.903 -0.1491 -0.1805 -0.0027
 7806TIP3    H144833   1.146   2.391  16.919 -2.9492 -0.1638 -1.0226
 7806TIP3    H244834   1.214   2.490  16.827  1.1733 -0.9713  0.9149
 7807TIP3   OH244835   0.989   5.681  13.032  0.0422 -0.3149 -0.1260
 7807TIP3    H144836   1.018   5.769  13.009  0.6329  0.2199  2.3733
 7807TIP3    H244837   1.031   5.624  12.967  1.6619  1.0364 -0.3240
 7808TIP3   OH244838   2.410   2.660   1.535  0.1717  0.1951 -0.1738
 7808TIP3    H144839   2.403   2.565   1.532  0.8185  0.0994  0.9991
 7808TIP3    H244840   2.327   2.691   1.498  0.0784 -0.8110 -0.8470
 7809TIP3   OH244841   1.468   0.791  12.182  0.4886  0.1996  0.1231
 7809TIP3    H144842   1.549   0.837  12.207  0.1236  0.5808  0.6320
 7809TIP3    H244843   1.433   0.759  12.265 -0.3653  0.8425  0.0247
 7810TIP3   OH244844   3.854   5.617  15.832  0.2266  0.0585 -0.1907
 7810TIP3    H144845   3.903   5.567  15.766  3.1030  0.6338  1.3039
 7810TIP3    H244846   3.884   5.707  15.820 -2.1686  0.8765 -0.5338
 7811TIP3   OH244847   3.746   1.021   0.684 -0.6548 -0.0722  0.9142
 7811TIP3    H144848   3.702   0.959   0.626 -1.3955  0.6215  0.7255
 7811TIP3    H244849   3.833   0.983   0.697 -0.7913 -0.6992  0.0861
 7812TIP3   OH244850   1.683   1.178   3.437 -0.4026 -0.4518 -0.1161
 7812TIP3    H144851   1.769   1.220   3.434 -1.0124  0.8263 -0.4394
 7812TIP3    H244852   1.644   1.196   3.352 -1.0849 -0.8152  0.1110
 7813TIP3   OH244853   0.391   6.301   3.743  0.3085  0.1833 -0.0512
 7813TIP3    H144854   0.451   6.321   3.815  1.4394 -1.0630 -0.6234
 7813TIP3    H244855   0.345   6.384   3.727  0.7030  0.7232  1.4692
 7814TIP3   OH244856   3.027   3.820  12.518 -0.2629  0.3053  0.2043
 7814TIP3    H144857   3.035   3.830  12.423 -1.5367  0.2147  0.0705
 7814TIP3    H244858   3.065   3.734  12.536  2.4883  1.4186  0.1734
 7815TIP3   OH244859   4.085   4.419   1.274 -0.7187 -0.3874  0.1182
 7815TIP3    H144860   4.061   4.341   1.323 -1.7729  1.0508  2.0533
 7815TIP3    H244861   4.161   4.455   1.321 -0.3985 -0.1047 -0.5954
 7816TIP3   OH244862   6.383   5.913  14.978  0.6578 -0.0085 -0.4075
 7816TIP3    H144863   6.387   6.005  14.951 -1.8378  0.1866 -0.4170
 7816TIP3    H244864   6.456   5.902  15.038  1.3081  1.8581 -0.7889
 7817TIP3   OH244865   5.374   3.554  12.033  0.0871 -0.6227 -0.2392
 7817TIP3    H144866   5.282   3.529  12.042  0.3267 -1.7215 -0.5621
 7817TIP3    H244867   5.373   3.649  12.022 -1.0704 -0.6932 -0.9384
 7818TIP3   OH244868   3.575   1.407  10.925  0.2316  0.0683  0.2565
 7818TIP3    H144869   3.526   1.462  10.865 -0.3301  1.7363  2.1073
 7818TIP3    H244870   3.658   1.391  10.881  0.3512  2.3048 -0.4683
 7819TIP3   OH244871   0.503   0.435   4.407  0.5392 -0.0941 -0.3787
 7819TIP3    H144872   0.578   0.415   4.463 -0.0266 -1.5950 -0.1065
 7819TIP3    H244873   0.442   0.481   4.464 -0.0764 -1.7001  0.3429
 7820TIP3   OH244874   4.830   6.166   1.939  0.1664  0.4146  0.6053
 7820TIP3    H144875   4.802   6.087   1.986  2.8229 -1.4793 -0.7744
 7820TIP3    H244876   4.921   6.178   1.965  1.7763 -0.6689 -3.6933
 7821TIP3   OH244877   2.584   2.272   2.067  0.5348 -0.0985  0.2770
 7821TIP3    H144878   2.667   2.308   2.096  1.1042 -0.4231 -0.8670
 7821TIP3    H244879   2.605   2.226   1.985 -0.2172 -2.6404  1.4072
 7822TIP3   OH244880   3.591   2.806  17.232  0.3948 -0.1690 -0.0105
 7822TIP3    H144881   3.538   2.853  17.168  0.2751 -0.2923 -0.0031
 7822TIP3    H244882   3.533   2.794  17.307 -0.3949 -2.5133 -0.9396
 7823TIP3   OH244883   3.623   3.970   3.543 -0.8278  0.4905 -0.3451
 7823TIP3    H144884   3.625   3.916   3.622 -0.1440 -0.1794 -0.8133
 7823TIP3    H244885   3.532   3.966   3.514 -0.8379 -0.2058 -0.2304
 7824TIP3   OH244886   6.368   2.806   2.144 -0.2663 -0.2394 -0.4655
 7824TIP3    H144887   6.351   2.895   2.114  0.2132  0.2022  0.4987
 7824TIP3    H244888   6.348   2.809   2.238 -2.4664 -1.7500 -0.8228
 7825TIP3   OH244889   5.671   6.603   0.486  0.2055 -0.0400 -0.4186
 7825TIP3    H144890   5.588   6.556   0.492  1.2230 -1.8279  0.5921
 7825TIP3    H244891   5.693   6.626   0.576  1.0902 -0.1143 -0.6053
 7826TIP3   OH244892   0.429   6.592  15.523  0.8666 -0.1034 -0.0670
 7826TIP3    H144893   0.458   6.501  15.518  2.9622  0.5485 -1.0105
 7826TIP3    H244894   0.442   6.617  15.614 -0.1609 -0.8359  0.3062
 7827TIP3   OH244895   4.747   0.662   5.285  0.5671  0.1485 -0.1461
 7827TIP3    H144896   4.830   0.710   5.277 -0.1436  1.2195 -1.7025
 7827TIP3    H244897   4.680   0.727   5.261 -0.6929 -0.7883  0.7673
 7828TIP3   OH244898   4.079   5.449  12.269 -0.6971 -0.2619  0.8597
 7828TIP3    H144899   4.080   5.358  12.296 -0.5511  0.1575  2.3648
 7828TIP3    H244900   4.149   5.456  12.204 -0.6328 -1.1854  0.8262
 7829TIP3   OH244901   2.244   3.138  11.693 -0.3302 -0.0451 -1.1024
 7829TIP3    H144902   2.209   3.068  11.747 -0.2303  1.0260  0.4133
 7829TIP3    H244903   2.219   3.114  11.603  0.4652 -2.4153 -0.7448
 7830TIP3   OH244904   3.552   2.225  13.723  0.1694  0.7792 -0.1093
 7830TIP3    H144905   3.546   2.248  13.815 -1.6951  3.6263 -0.8305
 7830TIP3    H244906   3.646   2.232  13.703  0.5389  0.6088  1.4265
 7831TIP3   OH244907   5.062   5.864   5.262 -0.0382 -0.3083 -0.6868
 7831TIP3    H144908   5.099   5.948   5.233 -0.6218 -0.1056 -0.8747
 7831TIP3    H244909   5.086   5.802   5.193  0.1463 -0.2348 -0.6901
 7832TIP3   OH244910   5.549   3.075  13.969 -0.5916 -0.0780  0.0585
 7832TIP3    H144911   5.466   3.036  13.995 -1.7132  1.0613 -1.5741
 7832TIP3    H244912   5.531   3.169  13.963  1.0056  0.2811  0.2919
 7833TIP3   OH244913   6.086   1.371  12.006 -0.2604  0.3447 -0.2179
 7833TIP3    H144914   6.064   1.280  11.989 -0.2133  0.0812  1.0480
 7833TIP3    H244915   6.004   1.410  12.038 -0.4784  0.9463 -1.4728
 7834TIP3   OH244916   5.645   2.198   1.690 -0.5032 -0.0827 -0.5298
 7834TIP3    H144917   5.578   2.232   1.749 -0.3817 -1.1453  0.2432
 7834TIP3    H244918   5.702   2.145   1.746 -0.1060 -0.7298 -1.5177
 7835TIP3   OH244919   5.081   5.194   1.378  0.2601  0.4966  0.2437
 7835TIP3    H144920   5.173   5.212   1.393 -0.0470  1.1384  1.5124
 7835TIP3    H244921   5.059   5.125   1.442  0.3657 -1.3256 -1.5722
 7836TIP3   OH244922   5.169   3.209   3.945  0.1741 -0.2667 -0.1833
 7836TIP3    H144923   5.181   3.262   4.023  0.3393 -0.2437 -0.2230
 7836TIP3    H244924   5.155   3.273   3.875 -1.5597 -0.3100  0.0734
 7837TIP3   OH244925   2.065   4.954   0.665 -0.0101  0.1112  0.1747
 7837TIP3    H144926   2.029   5.039   0.642 -0.1432  0.0355  0.1027
 7837TIP3    H244927   2.159   4.969   0.673  0.2774 -0.1829 -2.0455
 7838TIP3   OH244928   3.489   3.325  11.819 -0.1718 -0.1713 -0.3401
 7838TIP3    H144929   3.508   3.235  11.846 -0.2484  0.1122  0.6997
 7838TIP3    H244930   3.568   3.353  11.773 -0.2996 -0.8975 -1.0166
 7839TIP3   OH244931   1.231   2.559  17.197  0.4053 -0.1003  0.1370
 7839TIP3    H144932   1.249   2.651  17.218 -0.0668 -0.0947  0.5188
 7839TIP3    H244933   1.177   2.563  17.118 -0.3126 -0.0205  0.6294
 7840TIP3   OH244934   0.425   3.857  10.956 -0.0933  0.1981 -0.4258
 7840TIP3    H144935   0.466   3.876  10.872 -0.7338 -0.8211 -0.9960
 7840TIP3    H244936   0.472   3.781  10.989  0.4140  0.8313  0.3402
 7841TIP3   OH244937   6.631   1.879   5.394 -0.0766 -0.0115  0.7539
 7841TIP3    H144938   6.664   1.814   5.456  2.1233  0.2555 -0.0280
 7841TIP3    H244939   6.686   1.869   5.317  0.2226  2.6098  0.5101
 7842TIP3   OH244940   1.022   1.907   6.276  0.1886 -0.1703  0.2302
 7842TIP3    H144941   0.936   1.919   6.316 -0.1187  0.6202 -0.6340
 7842TIP3    H244942   1.071   1.854   6.339 -0.0654  1.5514  1.9594
 7843TIP3   OH244943   0.975   5.853   4.188  0.6769  0.0459 -0.2502
 7843TIP3    H144944   1.057   5.823   4.148 -0.5894 -2.1239 -1.4643
 7843TIP3    H244945   0.995   5.859   4.281  3.0913  2.9349 -0.8000
 7844TIP3   OH244946   1.734   4.878   5.845 -0.0089  0.7601 -0.4395
 7844TIP3    H144947   1.679   4.877   5.923 -2.0274  0.9469 -1.7910
 7844TIP3    H244948   1.796   4.950   5.860  0.1844  0.2592  1.3135
 7845TIP3   OH244949   0.559   0.454   0.350 -0.2740  0.6820  0.3806
 7845TIP3    H144950   0.635   0.476   0.404  0.0595 -0.5204  0.4172
 7845TIP3    H244951   0.589   0.465   0.260 -0.6706  2.1593  0.4017
 7846TIP3   OH244952   4.114   1.544   3.957 -0.0762 -0.3136 -0.6799
 7846TIP3    H144953   4.160   1.533   4.040 -0.6144 -0.0662 -0.3457
 7846TIP3    H244954   4.126   1.460   3.912  0.4595 -0.3468 -0.4806
 7847TIP3   OH244955   2.982   1.461  14.369 -0.0123  0.4073  0.3186
 7847TIP3    H144956   3.030   1.401  14.311 -0.1383  0.1614  0.4643
 7847TIP3    H244957   2.986   1.419  14.455 -0.3172  0.4845  0.3726
 7848TIP3   OH244958   1.407   4.592   4.936 -0.0207  0.3160 -0.1117
 7848TIP3    H144959   1.350   4.577   5.011  0.5901 -0.1154  0.2797
 7848TIP3    H244960   1.428   4.505   4.904  1.4126  0.3901  0.5266
 7849TIP3   OH244961   4.511   0.554   5.506 -0.0458  0.4880  0.2535
 7849TIP3    H144962   4.438   0.612   5.485 -1.3144 -1.1881 -0.1939
 7849TIP3    H244963   4.513   0.552   5.602  0.7849  2.1342  0.3074
 7850TIP3   OH244964   6.486   3.765   5.173 -0.3417  0.0507  0.2258
 7850TIP3    H144965   6.440   3.729   5.249  1.6392  0.5216  1.7088
 7850TIP3    H244966   6.520   3.687   5.128 -0.0729 -0.1516  0.7725
 7851TIP3   OH244967   6.272   5.648  14.849 -0.0599 -0.0970 -0.3798
 7851TIP3    H144968   6.316   5.638  14.934  0.4496  0.1244 -0.6126
 7851TIP3    H244969   6.242   5.739  14.848  3.6882  1.3138 -2.1514
 7852TIP3   OH244970   5.321   1.791   2.114  0.4044 -0.1175 -0.1375
 7852TIP3    H144971   5.350   1.722   2.174 -1.5775  1.5981  3.0671
 7852TIP3    H244972   5.242   1.756   2.073 -0.0226 -0.1532  0.6985
 7853TIP3   OH244973   0.714   2.509  15.790  0.2061  0.4334  0.1279
 7853TIP3    H144974   0.685   2.533  15.702  0.9755  1.5089  0.1412
 7853TIP3    H244975   0.771   2.581  15.816  0.5867 -0.2415  1.2134
 7854TIP3   OH244976   0.593   2.278  17.105  0.3444  0.2446  0.3062
 7854TIP3    H144977   0.591   2.194  17.150  2.7039 -0.6466 -1.0266
 7854TIP3    H244978   0.608   2.342  17.174 -0.1825 -0.5732  1.2039
 7855TIP3   OH244979   2.709   3.856  11.311  0.5135  0.4313 -0.1742
 7855TIP3    H144980   2.766   3.883  11.239  1.1690 -1.1283 -0.2978
 7855TIP3    H244981   2.724   3.761  11.318  0.1828  0.4875  1.7658
 7856TIP3   OH244982   1.472   1.372  15.512  0.4903 -0.0651 -0.0217
 7856TIP3    H144983   1.478   1.299  15.573  0.7333  0.1161  0.1751
 7856TIP3    H244984   1.383   1.405  15.522  0.6238  0.1507  0.4546
 7857TIP3   OH244985   2.468   4.241  14.763  0.1702  0.3325 -0.0522
 7857TIP3    H144986   2.415   4.281  14.832  1.0106  0.2716  0.6457
 7857TIP3    H244987   2.542   4.301  14.751  0.8087 -0.3957  0.1553
 7858TIP3   OH244988   3.804   5.765  11.514 -0.2275  0.7442 -0.2958
 7858TIP3    H144989   3.834   5.678  11.542  1.4891  0.9102 -1.4653
 7858TIP3    H244990   3.815   5.764  11.419  2.0423  2.9844 -0.1546
 7859TIP3   OH244991   5.603   4.650   5.053  0.2049 -0.3130 -0.6669
 7859TIP3    H144992   5.587   4.712   5.124  2.5867 -0.3850  0.0039
 7859TIP3    H244993   5.580   4.697   4.974  0.0111  0.7012 -0.0217
 7860TIP3   OH244994   2.289   6.193  17.233 -0.2191 -0.2639  0.6915
 7860TIP3    H144995   2.290   6.287  17.215  1.0420 -0.1660  1.1769
 7860TIP3    H244996   2.199   6.175  17.261 -0.2041  1.0060  1.6602
 7861TIP3   OH244997   2.466   5.473  11.247 -0.5136 -0.5161  0.2534
 7861TIP3    H144998   2.439   5.554  11.289 -0.8243  0.3278 -1.5163
 7861TIP3    H244999   2.536   5.499  11.188 -0.0624 -1.6839  0.2466
 7862TIP3   OH245000   5.141   2.876   1.382  0.3169  0.5961  0.0763
 7862TIP3    H145001   5.081   2.806   1.408  0.5866 -0.4846 -1.9540
 7862TIP3    H245002   5.227   2.834   1.382  0.7566  1.4806  0.7077
 7863TIP3   OH245003   0.795   5.632   4.112 -0.3010  0.0061 -0.1508
 7863TIP3    H145004   0.841   5.712   4.138 -0.7185  0.3097 -0.3362
 7863TIP3    H245005   0.863   5.576   4.074  0.3958 -0.5811  1.8332
 7864TIP3   OH245006   4.526   2.442  11.909  0.0656  0.3758  0.0122
 7864TIP3    H145007   4.602   2.388  11.888 -0.8924 -0.8102 -0.5663
 7864TIP3    H245008   4.499   2.479  11.825 -0.0224  0.7357  0.2005
 7865TIP3   OH245009   2.507   5.621   3.443  0.6054 -0.2210 -0.1489
 7865TIP3    H145010   2.462   5.625   3.358  1.4679  0.3206 -0.5936
 7865TIP3    H245011   2.575   5.688   3.438  0.7670 -0.2843  0.9207
 7866TIP3   OH245012   4.073   5.080   6.166  0.0529 -0.3637 -0.0596
 7866TIP3    H145013   4.037   5.107   6.250 -0.7485  0.1776 -0.5649
 7866TIP3    H245014   4.007   5.105   6.102  0.0339 -2.0006 -0.7353
 7867TIP3   OH245015   1.164   4.145   1.918 -0.2044  0.2727  0.2336
 7867TIP3    H145016   1.096   4.197   1.960  0.7902  1.8838 -0.0758
 7867TIP3    H245017   1.125   4.116   1.835 -0.9477  0.0488  0.6525
 7868TIP3   OH245018   6.432   5.650   4.762 -0.0761 -0.4136  0.3873
 7868TIP3    H145019   6.464   5.595   4.834  0.4284  0.5259  0.9070
 7868TIP3    H245020   6.346   5.614   4.740  0.1066 -1.2060  0.9224
 7869TIP3   OH245021   0.174   3.001  13.031  0.1373  0.4097 -0.2845
 7869TIP3    H145022   0.096   2.990  12.977  0.3240 -0.2580 -0.4274
 7869TIP3    H245023   0.148   2.965  13.116  0.5441 -0.5638 -0.5645
 7870TIP3   OH245024   4.496   5.197  15.656  0.7373  0.2885  0.1892
 7870TIP3    H145025   4.489   5.165  15.567  0.8970 -1.5840  0.8113
 7870TIP3    H245026   4.583   5.169  15.686  0.6136  0.7148  0.9874
 7871TIP3   OH245027   6.017   3.798  13.159 -0.0633  0.2174 -0.2061
 7871TIP3    H145028   5.987   3.720  13.111  0.6468  0.0686 -0.4300
 7871TIP3    H245029   6.097   3.824  13.113 -0.9424  1.8326 -0.9143
 7872TIP3   OH245030   5.612   0.556   2.546  0.0022  0.0223 -0.1117
 7872TIP3    H145031   5.598   0.583   2.636 -1.6744 -1.7276  0.2245
 7872TIP3    H245032   5.683   0.492   2.550 -1.0317 -1.1646  0.2643
 7873TIP3   OH245033   2.801   1.206  12.780 -0.2521 -0.6463  0.3100
 7873TIP3    H145034   2.897   1.204  12.774 -0.2976 -0.7857 -0.5716
 7873TIP3    H245035   2.772   1.204  12.689 -1.0897 -0.1943  0.5595
 7874TIP3   OH245036   6.130   5.314  15.308 -0.5296 -0.0032 -0.9406
 7874TIP3    H145037   6.117   5.346  15.219  0.9497  0.8373 -0.8955
 7874TIP3    H245038   6.123   5.392  15.363 -2.5018 -0.6718 -0.1591
 7875TIP3   OH245039   1.001   6.625   2.555  0.8168 -0.0892 -0.2625
 7875TIP3    H145040   0.942   6.646   2.483  1.2504 -0.6711 -0.7879
 7875TIP3    H245041   1.054   6.552   2.524  1.4107  0.0284  0.4262
 7876TIP3   OH245042   6.134   1.619   5.644  0.0734 -0.1939 -0.5151
 7876TIP3    H145043   6.064   1.684   5.652  1.1995  0.8748  1.3735
 7876TIP3    H245044   6.214   1.670   5.633  0.7183 -1.3626 -1.5478
 7877TIP3   OH245045   0.338   2.473   5.072 -0.3119 -0.5343 -0.4472
 7877TIP3    H145046   0.389   2.547   5.039 -0.0694 -1.2217 -1.6718
 7877TIP3    H245047   0.258   2.512   5.106  0.0097  0.3286 -0.6421
 7878TIP3   OH245048   2.732   0.454  11.156  0.2289  0.4515 -0.4570
 7878TIP3    H145049   2.649   0.483  11.117 -0.0022  0.6980  0.2019
 7878TIP3    H245050   2.749   0.370  11.115  0.3132  0.9758 -1.5463
 7879TIP3   OH245051   0.561   3.105   4.570 -0.0166 -0.0084 -0.0829
 7879TIP3    H145052   0.655   3.122   4.580 -0.2224  1.1428  0.0733
 7879TIP3    H245053   0.534   3.066   4.653  0.7289 -2.4750 -0.9213
 7880TIP3   OH245054   5.952   2.775  14.734  0.3034 -0.4444  0.8032
 7880TIP3    H145055   5.911   2.861  14.733  0.3898 -0.3982 -0.0924
 7880TIP3    H245056   5.880   2.713  14.734  0.0786 -0.3933 -2.8055
 7881TIP3   OH245057   0.274   5.283   5.992 -0.1130 -0.2133 -0.2153
 7881TIP3    H145058   0.260   5.245   6.079  0.9602  1.6549  0.8447
 7881TIP3    H245059   0.303   5.209   5.939 -1.3330 -1.5180  0.8340
 7882TIP3   OH245060   1.661   0.333  12.893 -0.3323 -0.1572 -0.0788
 7882TIP3    H145061   1.655   0.280  12.973  1.0813 -0.7341 -0.3366
 7882TIP3    H245062   1.741   0.384  12.904 -0.4157  0.1650 -0.8921
 7883TIP3   OH245063   6.617   2.852  14.486 -0.0859  0.7096  0.0915
 7883TIP3    H145064   6.566   2.784  14.443 -0.9646  1.1300  0.4236
 7883TIP3    H245065   6.625   2.823  14.577 -0.9310  1.2756  0.3673
 7884TIP3   OH245066   2.860   0.959  15.040 -0.3297  0.5997 -0.1224
 7884TIP3    H145067   2.802   1.032  15.016  0.0927  0.6057 -1.1965
 7884TIP3    H245068   2.946   1.000  15.053 -0.0969  0.3049 -0.7039
 7885TIP3   OH245069   1.182   3.548  15.508 -0.4899  0.4719  0.0527
 7885TIP3    H145070   1.138   3.533  15.424 -1.2092 -1.0648  0.6728
 7885TIP3    H245071   1.144   3.630  15.540 -2.4231 -0.4408  0.2249
 7886TIP3   OH245072   2.495   3.871  12.507 -0.1473  0.3007  0.1269
 7886TIP3    H145073   2.577   3.920  12.514 -0.3916  0.7187  0.0646
 7886TIP3    H245074   2.462   3.866  12.596  0.8845 -1.5003  0.4522
 7887TIP3   OH245075   5.869   1.801   4.955 -0.2684  0.1468  0.1919
 7887TIP3    H145076   5.936   1.761   4.898  0.0579 -2.6083  2.2621
 7887TIP3    H245077   5.912   1.879   4.990  0.3557  0.6242 -1.5107
 7888TIP3   OH245078   0.423   5.534  13.455 -0.2957  0.2829 -0.8286
 7888TIP3    H145079   0.328   5.525  13.447 -0.1693 -2.2280 -0.5305
 7888TIP3    H245080   0.455   5.444  13.460  1.9406  1.0639  1.0195
 7889TIP3   OH245081   2.546   2.689  13.259  0.0304 -0.2251  0.6413
 7889TIP3    H145082   2.494   2.643  13.325 -1.2993  1.5865  0.9411
 7889TIP3    H245083   2.489   2.693  13.182 -0.2438  1.6152  0.9053
 7890TIP3   OH245084   4.887   6.740   0.252  0.2768  0.4907  0.2667
 7890TIP3    H145085   4.793   6.759   0.258  0.1546 -0.4805  3.3090
 7890TIP3    H245086   4.929   6.814   0.296  0.9071  0.5103 -0.3466
 7891TIP3   OH245087   4.686   5.367  13.343  0.1763 -0.2978 -0.0114
 7891TIP3    H145088   4.697   5.412  13.426 -1.3905 -0.0456  0.0972
 7891TIP3    H245089   4.693   5.274  13.364 -2.5325 -0.3831  0.8923
 7892TIP3   OH245090   1.234   0.108  12.065 -0.2253  0.3856 -0.5521
 7892TIP3    H145091   1.164   0.053  12.100 -1.3461  1.3807 -1.1281
 7892TIP3    H245092   1.189   0.186  12.033  1.4550  2.5619  1.9500
 7893TIP3   OH245093   0.116   3.801   0.589  0.0149 -0.1684  0.1828
 7893TIP3    H145094   0.061   3.731   0.625  1.4491 -2.0445 -1.1652
 7893TIP3    H245095   0.204   3.764   0.586  0.7880  1.6407 -0.7646
 7894TIP3   OH245096   1.445   4.132   3.038 -0.4068 -0.1030 -0.1037
 7894TIP3    H145097   1.375   4.194   3.060  0.9646  0.9112  1.7692
 7894TIP3    H245098   1.414   4.048   3.072 -0.2811  0.5666  1.8173
 7895TIP3   OH245099   4.131   3.961   4.833  0.5245  0.1401  0.1658
 7895TIP3    H145100   4.120   4.025   4.904  1.4140 -0.3641  0.7926
 7895TIP3    H245101   4.049   3.912   4.832  0.7588 -0.3255  1.3621
 7896TIP3   OH245102   1.901   6.641   1.074 -0.5142 -0.4334  0.0284
 7896TIP3    H145103   1.832   6.575   1.067 -1.4695  0.4486  0.7608
 7896TIP3    H245104   1.916   6.670   0.984 -1.0930 -0.6529 -0.1435
 7897TIP3   OH245105   1.664   2.291   3.179 -0.6321  0.2344 -0.2134
 7897TIP3    H145106   1.602   2.351   3.219  0.3835  0.8995  0.4084
 7897TIP3    H245107   1.614   2.210   3.165 -1.2365  0.2294  1.6827
 7898TIP3   OH245108   3.390   3.336   2.371 -0.3203  0.5266  0.3590
 7898TIP3    H145109   3.477   3.375   2.364 -0.0737 -0.1718 -0.7851
 7898TIP3    H245110   3.400   3.262   2.430  0.3091 -0.6446 -1.1375
 7899TIP3   OH245111   3.834   0.890   3.152  0.2134  0.0803  0.4125
 7899TIP3    H145112   3.915   0.869   3.200  0.2126 -1.4611 -0.1919
 7899TIP3    H245113   3.771   0.914   3.220  1.1990  1.4462  0.8848
 7900TIP3   OH245114   6.500   2.218   4.577 -0.0141  0.6342  0.1692
 7900TIP3    H145115   6.526   2.310   4.569 -0.3693  0.7166 -0.0541
 7900TIP3    H245116   6.520   2.181   4.491  0.8299  0.3194  0.4923
 7901TIP3   OH245117   6.183   6.147  13.118 -0.2172  0.0629  0.2549
 7901TIP3    H145118   6.249   6.145  13.187  0.1191 -0.0362 -0.0682
 7901TIP3    H245119   6.140   6.232  13.128  1.1925  0.9301 -0.6710
 7902TIP3   OH245120   6.202   5.935   1.500  0.4661  0.1141  0.4686
 7902TIP3    H145121   6.113   5.953   1.531 -1.1736 -3.0337 -1.7900
 7902TIP3    H245122   6.230   6.016   1.459 -1.2812  1.2510  1.3762
 7903TIP3   OH245123   4.585   4.339  11.907 -0.2630 -0.4617  0.6040
 7903TIP3    H145124   4.503   4.290  11.911 -0.5684 -0.1957 -1.4459
 7903TIP3    H245125   4.568   4.408  11.843  0.6907  1.3335  2.1726
 7904TIP3   OH245126   5.087   6.339  11.375 -0.2493 -0.1789  0.8411
 7904TIP3    H145127   5.179   6.338  11.402  0.1695  0.1892 -0.5004
 7904TIP3    H245128   5.089   6.313  11.283 -1.3521  1.1361  0.4192
 7905TIP3   OH245129   2.579   3.934   0.321 -0.2050 -0.4459  0.3630
 7905TIP3    H145130   2.672   3.959   0.322  0.0275 -1.2264 -0.6655
 7905TIP3    H245131   2.559   3.922   0.229 -1.4709  0.1622  0.5403
 7906TIP3   OH245132   3.048   4.079  14.137  0.0739  0.0177  0.0321
 7906TIP3    H145133   3.064   4.168  14.169  0.8849 -0.8648  2.3433
 7906TIP3    H245134   3.133   4.051  14.102  0.3049 -0.4353  0.9365
 7907TIP3   OH245135   4.392   3.868  11.959 -0.1149 -0.6858  0.5446
 7907TIP3    H145136   4.374   3.951  11.915 -0.3274 -1.5058 -0.9703
 7907TIP3    H245137   4.485   3.873  11.982  0.1212 -0.4432 -0.4491
 7908TIP3   OH245138   1.229   0.183   5.392  0.5144  0.3704  0.0515
 7908TIP3    H145139   1.272   0.126   5.456  2.3712 -0.6629 -1.9538
 7908TIP3    H245140   1.140   0.149   5.386  0.5201  0.0139  1.5012
 7909TIP3   OH245141   2.130   6.399   5.325 -0.1154 -0.3714 -0.1749
 7909TIP3    H145142   2.131   6.365   5.415 -1.4962 -1.0770 -0.3895
 7909TIP3    H245143   2.044   6.373   5.291 -0.6061  1.9805 -0.9064
 7910TIP3   OH245144   2.856   6.504   2.454 -0.1697 -0.0402 -0.2984
 7910TIP3    H145145   2.765   6.480   2.439 -0.3285  1.1712 -1.4552
 7910TIP3    H245146   2.864   6.593   2.419  1.1607  0.3474  0.8882
 7911TIP3   OH245147   5.550   3.201   0.772  0.1262 -0.6011 -0.5674
 7911TIP3    H145148   5.640   3.194   0.804 -0.7645 -2.2001  1.8348
 7911TIP3    H245149   5.543   3.133   0.704  0.1649 -2.0214  0.8080
 7912TIP3   OH245150   0.731   5.352   0.621 -0.4692 -0.2692 -0.5506
 7912TIP3    H145151   0.732   5.434   0.572 -1.1999  0.1366  0.0813
 7912TIP3    H245152   0.816   5.312   0.604 -0.3406  0.3281 -1.3527
 7913TIP3   OH245153   5.909   4.893   0.912 -0.1969 -0.1473 -0.0712
 7913TIP3    H145154   5.950   4.861   0.992  1.4266  0.3815 -0.6349
 7913TIP3    H245155   5.816   4.872   0.921 -0.0578 -0.0205  1.9682
 7914TIP3   OH245156   0.459   3.739   3.732 -0.5645 -0.6152 -0.0282
 7914TIP3    H145157   0.413   3.773   3.655  1.8024 -0.2064 -1.3588
 7914TIP3    H245158   0.516   3.670   3.698  0.6461 -0.3305  1.3020
 7915TIP3   OH245159   5.665   3.764  15.101 -0.4824  0.1680 -0.1809
 7915TIP3    H145160   5.679   3.672  15.126  2.5683  0.8240  0.9523
 7915TIP3    H245161   5.583   3.763  15.052 -0.8143 -3.0749  0.2095
 7916TIP3   OH245162   3.233   0.451  14.710  0.2965  0.1373 -0.2861
 7916TIP3    H145163   3.210   0.465  14.618 -2.0491 -0.0053  0.2136
 7916TIP3    H245164   3.148   0.443  14.755  1.3766  0.5311  1.9462
 7917TIP3   OH245165   6.058   1.353  16.916  0.2807 -0.7152 -0.0643
 7917TIP3    H145166   6.076   1.445  16.896  0.9451 -0.9406 -0.5391
 7917TIP3    H245167   6.120   1.332  16.986  0.8789 -1.0954 -0.7012
 7918TIP3   OH245168   3.812   0.916   1.976  0.0014  1.0054 -0.1273
 7918TIP3    H145169   3.754   0.843   2.000  0.8969  1.1491  2.7477
 7918TIP3    H245170   3.896   0.875   1.957 -0.0417  1.1236 -0.5821
 7919TIP3   OH245171   4.495   4.913  13.235 -0.0903 -0.5205  0.0916
 7919TIP3    H145172   4.425   4.859  13.271  0.1623 -0.9456 -0.0385
 7919TIP3    H245173   4.511   4.877  13.147  1.5101 -1.6383  0.7778
 7920TIP3   OH245174   3.886   2.122   2.956 -0.1636  0.8497 -0.2691
 7920TIP3    H145175   3.810   2.179   2.967 -1.6262 -0.5567 -2.5828
 7920TIP3    H245176   3.905   2.125   2.863  1.2953 -0.5235 -0.0462
 7921TIP3   OH245177   0.797   6.037  11.301 -0.5042 -0.6011  0.4200
 7921TIP3    H145178   0.852   5.967  11.264 -1.2303  0.1586 -2.2845
 7921TIP3    H245179   0.860   6.098  11.340  0.2340 -1.9408  1.4285
 7922TIP3   OH245180   6.196   0.024  13.994  0.5229  0.4079  0.5602
 7922TIP3    H145181   6.254   0.086  14.039 -0.0625  1.3582  0.0216
 7922TIP3    H245182   6.254  -0.024  13.934  1.0572  0.0854  1.3092
 7923TIP3   OH245183   1.592   2.156  14.956 -0.4248 -0.0754  1.2876
 7923TIP3    H145184   1.518   2.096  14.963 -0.2164 -0.7249 -1.3589
 7923TIP3    H245185   1.558   2.239  14.989 -2.0439 -0.5885  0.9972
 7924TIP3   OH245186   0.740   2.166   2.337  0.3367  0.8558  0.2754
 7924TIP3    H145187   0.822   2.203   2.371  0.7654  0.4667 -0.3198
 7924TIP3    H245188   0.768   2.098   2.276 -0.4207  1.1850 -0.4550
 7925TIP3   OH245189   5.492   4.765   4.834  0.2655 -0.1207 -0.2155
 7925TIP3    H145190   5.494   4.741   4.741  0.5593 -1.1740  0.0460
 7925TIP3    H245191   5.493   4.860   4.834 -2.0878 -0.0137 -1.3428
 7926TIP3   OH245192   0.169   4.792   0.791 -0.6357 -0.6199 -0.0037
 7926TIP3    H145193   0.165   4.864   0.853 -0.6021  0.4798 -1.2426
 7926TIP3    H245194   0.098   4.809   0.729  0.0263 -1.0599 -0.9176
 7927TIP3   OH245195   3.933   3.840  11.319  0.3658  0.0214 -0.2631
 7927TIP3    H145196   3.976   3.923  11.298 -0.4713  0.6167  0.3369
 7927TIP3    H245197   3.995   3.773  11.290  1.7771  0.8553  0.7500
 7928TIP3   OH245198   6.006   2.613   6.018  0.4994  0.4697  0.2467
 7928TIP3    H145199   5.969   2.688   5.971  0.4589  1.1298  1.3053
 7928TIP3    H245200   5.941   2.544   6.009  0.1009  0.8661  0.0613
 7929TIP3   OH245201   3.477   2.886   6.193  0.2243  0.3119  0.1673
 7929TIP3    H145202   3.396   2.836   6.185  0.3738 -0.3517  2.3845
 7929TIP3    H245203   3.449   2.978   6.192 -0.5899  0.0820  1.2218
 7930TIP3   OH245204   3.455   6.632   0.240  0.3796 -0.2924 -0.3540
 7930TIP3    H145205   3.441   6.726   0.230  2.1409  0.2245  1.4170
 7930TIP3    H245206   3.368   6.596   0.257 -0.4873  0.8051 -2.2451
 7931TIP3   OH245207   0.283   2.937   5.288 -0.3784 -0.2582  0.3367
 7931TIP3    H145208   0.298   2.993   5.364 -2.0961  1.4616 -0.5247
 7931TIP3    H245209   0.205   2.886   5.309 -1.7295  1.2688 -0.7759
 7932TIP3   OH245210   2.985   6.317   2.016 -0.7726 -0.7682 -0.4773
 7932TIP3    H145211   3.072   6.282   1.999 -0.6351 -1.5672  1.6233
 7932TIP3    H245212   2.998   6.412   2.023  0.3205 -1.0259  1.6746
 7933TIP3   OH245213   3.312   5.098  14.771 -0.1518 -0.0622 -0.6918
 7933TIP3    H145214   3.388   5.082  14.716  0.5460  0.5582  0.0529
 7933TIP3    H245215   3.341   5.074  14.859 -1.1278 -0.7052 -0.5369
 7934TIP3   OH245216   1.258   1.828  13.473  0.2110  0.4103  0.1315
 7934TIP3    H145217   1.229   1.799  13.386  0.0762 -0.0117  0.3127
 7934TIP3    H245218   1.200   1.901  13.495  0.2969  0.5675 -0.1681
 7935TIP3   OH245219   0.916   5.997  15.968 -0.2316  0.4797 -0.0430
 7935TIP3    H145220   0.833   6.037  15.943 -0.6916 -0.9735 -0.9827
 7935TIP3    H245221   0.949   5.959  15.887  1.7105  1.6179  0.1668
 7936TIP3   OH245222   1.051   0.226  11.116 -0.2920  0.1890 -0.3543
 7936TIP3    H145223   1.034   0.192  11.028  1.3469  0.4255 -0.8059
 7936TIP3    H245224   1.140   0.261  11.111 -0.3983  0.7732  1.2394
 7937TIP3   OH245225   3.402   5.776   0.224 -0.2635 -0.9379 -0.1838
 7937TIP3    H145226   3.365   5.864   0.231 -1.0199 -1.3638  2.2983
 7937TIP3    H245227   3.442   5.773   0.137 -2.3268  1.0136 -1.3162
 7938TIP3   OH245228   6.466   6.540  16.818  0.7965 -0.3957 -0.2857
 7938TIP3    H145229   6.449   6.497  16.734 -1.4328  0.5171 -0.3542
 7938TIP3    H245230   6.523   6.613  16.795  1.7559 -1.2442 -0.6939
 7939TIP3   OH245231   1.204   5.579   4.852 -0.5531  0.5020  0.2764
 7939TIP3    H145232   1.158   5.495   4.843 -2.4325  1.5429 -0.5332
 7939TIP3    H245233   1.188   5.623   4.769  2.3957  0.7927 -0.2588
 7940TIP3   OH245234   4.728   6.374   2.766  0.1139 -0.3695  0.7528
 7940TIP3    H145235   4.717   6.286   2.803 -1.7833 -0.5786 -0.1626
 7940TIP3    H245236   4.641   6.396   2.733  0.2314  2.3737  2.0434
 7941TIP3   OH245237   4.575   2.497   4.644 -0.3801 -0.2791 -0.0347
 7941TIP3    H145238   4.497   2.445   4.622 -1.6067  0.5499  2.0648
 7941TIP3    H245239   4.587   2.554   4.569 -0.4360 -1.9172 -1.3534
 7942TIP3   OH245240   2.237   2.133  13.630  0.2781  0.5922 -0.0361
 7942TIP3    H145241   2.221   2.043  13.661  1.7512  0.1043 -0.6202
 7942TIP3    H245242   2.183   2.187  13.687 -0.6144 -0.6628  0.3559
 7943TIP3   OH245243   2.432   0.129   5.392  0.4353 -0.0994 -0.1743
 7943TIP3    H145244   2.439   0.034   5.392 -0.3925 -0.1627  0.0171
 7943TIP3    H245245   2.461   0.155   5.304  0.9636 -0.4945 -0.1239
 7944TIP3   OH245246   6.270   2.204  12.915 -0.1232  0.3874  0.2670
 7944TIP3    H145247   6.220   2.174  12.991 -1.4427 -1.8407 -1.3717
 7944TIP3    H245248   6.347   2.147  12.914 -0.4416 -0.0485 -0.3884
 7945TIP3   OH245249   3.675   1.357  14.365 -0.2159  0.4949  0.3513
 7945TIP3    H145250   3.683   1.306  14.284  1.0349  0.2477  0.6078
 7945TIP3    H245251   3.620   1.302  14.422 -0.3100  0.2324  0.0148
 7946TIP3   OH245252   0.888   0.769  11.625 -0.2060 -0.3229  0.0740
 7946TIP3    H145253   0.892   0.696  11.563  3.1339  0.9177 -1.4109
 7946TIP3    H245254   0.795   0.779  11.644 -1.3036 -1.7996 -3.5670
 7947TIP3   OH245255   6.023   5.938  14.572  0.0675  0.3835  0.2381
 7947TIP3    H145256   5.949   5.970  14.623  2.1324  1.7408  2.6674
 7947TIP3    H245257   6.077   5.891  14.635  2.8198  2.1945 -0.5758
 7948TIP3   OH245258   2.323   6.003  11.698 -0.2802 -0.4629  0.1522
 7948TIP3    H145259   2.281   6.010  11.612  0.7473  0.3121 -0.3071
 7948TIP3    H245260   2.251   5.992  11.759 -1.1605  0.8106 -0.6128
 7949TIP3   OH245261   3.478   2.703   0.564  0.6696  0.2812 -0.8205
 7949TIP3    H145262   3.565   2.665   0.557  0.7407  0.1102  0.6473
 7949TIP3    H245263   3.468   2.755   0.484  1.8330 -0.2411 -1.3301
 7950TIP3   OH245264   1.149   1.561   5.168  0.3101 -0.1797 -0.1971
 7950TIP3    H145265   1.212   1.615   5.120  0.2041 -0.3851 -0.5706
 7950TIP3    H245266   1.193   1.541   5.251 -0.4009  2.0789  0.7937
 7951TIP3   OH245267   0.405   3.011  16.230  0.7416  0.1850  0.0640
 7951TIP3    H145268   0.341   3.078  16.255  0.2140 -0.7967  1.4213
 7951TIP3    H245269   0.352   2.940  16.194  1.0463 -0.6117  1.1444
 7952TIP3   OH245270   4.488   6.479   2.331  0.3719 -0.2943  0.0077
 7952TIP3    H145271   4.541   6.504   2.407 -0.1943  0.7951  0.0565
 7952TIP3    H245272   4.435   6.406   2.362  0.3196 -0.0139  0.5956
 7953TIP3   OH245273   2.790   4.332   3.621 -0.0793  0.0626 -0.3422
 7953TIP3    H145274   2.819   4.395   3.687  0.3388  0.0903 -0.5464
 7953TIP3    H245275   2.838   4.252   3.642  2.0497  0.7654 -2.1012
 7954TIP3   OH245276   4.367   2.465   5.312  0.2297  0.0323  0.0150
 7954TIP3    H145277   4.332   2.382   5.281  0.1633  0.6624 -1.7592
 7954TIP3    H245278   4.418   2.443   5.390 -0.4785 -1.5339  0.0627
 7955TIP3   OH245279   5.357   6.179  15.943  0.0444  0.2225  0.7490
 7955TIP3    H145280   5.342   6.088  15.969 -2.2927  0.2497 -0.2482
 7955TIP3    H245281   5.339   6.180  15.849  1.8268  1.3941  0.3747
 7956TIP3   OH245282   4.989   6.137   0.956  0.3147  0.1316  0.2145
 7956TIP3    H145283   4.967   6.084   1.032  1.3113  0.1470  0.5355
 7956TIP3    H245284   5.067   6.095   0.919  0.2122  0.4886 -0.4334
 7957TIP3   OH245285   5.102   4.487  13.657 -0.6523  0.1349  0.0331
 7957TIP3    H145286   5.068   4.576  13.670  1.5366  1.0388  0.0420
 7957TIP3    H245287   5.117   4.481  13.563 -0.4728 -0.1083  0.0765
 7958TIP3   OH245288   6.421   5.427   0.884  0.0772 -0.2415 -0.8820
 7958TIP3    H145289   6.364   5.399   0.955  2.6640 -0.8139  1.1389
 7958TIP3    H245290   6.452   5.346   0.844  0.4595  0.0174 -1.1206
 7959TIP3   OH245291   5.531   2.177  11.316 -0.6579  0.1687 -0.1253
 7959TIP3    H145292   5.551   2.238  11.245 -0.2185 -0.7013 -0.7728
 7959TIP3    H245293   5.471   2.113  11.277 -1.4722  0.4338  0.6704
 7960TIP3   OH245294   1.425   1.656   4.475 -0.3494  0.6463 -0.1216
 7960TIP3    H145295   1.444   1.749   4.490 -1.9353  0.9049  0.4950
 7960TIP3    H245296   1.336   1.644   4.508 -0.2468 -1.0640 -0.3659
 7961TIP3   OH245297   4.405   4.152  15.978 -0.1853  0.0444  0.2222
 7961TIP3    H145298   4.328   4.152  15.921 -0.0849 -1.1845  0.0476
 7961TIP3    H245299   4.475   4.190  15.925 -0.5387  0.6586  0.1927
 7962TIP3   OH245300   6.073   1.461  13.446  0.1718 -0.4019 -0.1242
 7962TIP3    H145301   6.031   1.479  13.530  0.1683  2.2896 -0.6278
 7962TIP3    H245302   6.131   1.386  13.463  0.4811  0.3286  2.3642
 7963TIP3   OH245303   4.077   3.514   1.207 -0.3552 -0.0397  0.5877
 7963TIP3    H145304   3.992   3.552   1.183 -0.3907 -0.3484  0.2088
 7963TIP3    H245305   4.084   3.529   1.301 -0.7070  0.2327  0.5742
 7964TIP3   OH245306   1.425   6.266  15.766 -0.1647  0.3440 -0.1057
 7964TIP3    H145307   1.480   6.343  15.780  1.3446 -0.5483 -0.8509
 7964TIP3    H245308   1.485   6.192  15.773 -1.4975 -0.7576  0.1493
 7965TIP3   OH245309   2.565   0.184  15.897 -0.6050 -0.1873 -0.1360
 7965TIP3    H145310   2.543   0.261  15.845  1.5400 -0.5510 -1.6774
 7965TIP3    H245311   2.604   0.220  15.977 -0.4938  0.3415 -0.4226
 7966TIP3   OH245312   2.202   4.862   5.527 -0.5899 -0.4473  0.3669
 7966TIP3    H145313   2.244   4.869   5.613 -3.5105 -0.5713  1.9309
 7966TIP3    H245314   2.243   4.786   5.486  2.7735  1.1908  0.4031
 7967TIP3   OH245315   5.805   1.160  15.353  0.5096 -0.8034  0.1987
 7967TIP3    H145316   5.793   1.092  15.286  0.6754 -0.8042  0.1697
 7967TIP3    H245317   5.861   1.226  15.311  0.8563 -0.9439  0.4334
 7968TIP3   OH245318   3.460   4.857   3.394 -0.9385 -0.0701 -0.1874
 7968TIP3    H145319   3.498   4.845   3.307  0.0970  1.5342 -0.0026
 7968TIP3    H245320   3.366   4.868   3.379 -0.7574  0.2697 -1.1083
 7969TIP3   OH245321   3.519   3.501  13.101  0.4963 -0.3440  0.2345
 7969TIP3    H145322   3.577   3.557  13.153 -0.4623  0.0461  0.9196
 7969TIP3    H245323   3.504   3.550  13.020  0.8899 -0.3239  0.1700
 7970TIP3   OH245324   0.224   6.096   4.142 -0.1737  0.2438 -0.1678
 7970TIP3    H145325   0.226   6.179   4.190 -0.3361 -1.5624  3.2924
 7970TIP3    H245326   0.138   6.059   4.162  0.9984 -2.0560  1.0084
 7971TIP3   OH245327   6.697   0.226  13.483  0.1742 -0.0678 -0.5241
 7971TIP3    H145328   6.739   0.219  13.396 -0.2618  1.4700 -0.8792
 7971TIP3    H245329   6.604   0.231  13.464  0.0293 -0.4002  0.0861
 7972TIP3   OH245330   1.039   4.261  13.510  0.1551  0.0930 -0.6819
 7972TIP3    H145331   1.127   4.282  13.478  0.8398  0.5105  1.3431
 7972TIP3    H245332   1.018   4.330  13.572 -0.8272 -0.9977  0.2620
 7973TIP3   OH245333   3.921   5.759   2.341  0.1135  0.1117  0.4409
 7973TIP3    H145334   3.979   5.819   2.388  0.5251 -1.3284  1.8581
 7973TIP3    H245335   3.976   5.721   2.272  0.6940 -0.6986  1.3186
 7974TIP3   OH245336   6.289   3.172   1.919  0.1215 -0.3122 -0.7964
 7974TIP3    H145337   6.223   3.103   1.923 -1.1956  0.9525  0.6522
 7974TIP3    H245338   6.371   3.126   1.902 -0.3225 -2.5309  2.2259
 7975TIP3   OH245339   0.526   5.046  10.772  0.2401 -0.5010 -0.3378
 7975TIP3    H145340   0.608   5.026  10.727  0.3069 -0.1372 -0.3794
 7975TIP3    H245341   0.489   5.120  10.723 -0.2494 -0.8381 -0.4908
 7976TIP3   OH245342   1.780   1.702  12.144  0.0252  0.2510 -0.0670
 7976TIP3    H145343   1.783   1.736  12.234 -0.1516  0.8691 -0.2879
 7976TIP3    H245344   1.868   1.716  12.110  0.5127 -1.3130  0.4716
 7977TIP3   OH245345   0.693   1.605   4.170 -0.4012  0.0993  0.0167
 7977TIP3    H145346   0.777   1.569   4.143 -0.4842 -0.1920  0.1439
 7977TIP3    H245347   0.643   1.615   4.089  0.1615  1.3249 -0.1896
 7978TIP3   OH245348   3.930   3.322  16.493  0.6328 -0.6473  0.0653
 7978TIP3    H145349   3.853   3.353  16.447  0.1284 -1.6680  0.2029
 7978TIP3    H245350   3.999   3.384  16.469 -0.3274  0.5521  0.3114
 7979TIP3   OH245351   5.758   5.829   3.018 -0.0437  0.0246 -0.5593
 7979TIP3    H145352   5.770   5.761   2.951 -1.4976  1.2026 -2.1121
 7979TIP3    H245353   5.685   5.881   2.985 -0.1030  1.2962  1.4662
 7980TIP3   OH245354   0.981   6.653  11.820  0.0526 -0.2788 -0.3412
 7980TIP3    H145355   0.993   6.687  11.909  1.8124  0.6333 -0.8816
 7980TIP3    H245356   0.917   6.582  11.829  2.2431 -2.1033  2.1043
 7981TIP3   OH245357   5.254   4.886   0.973  1.0493 -0.1033 -0.2984
 7981TIP3    H145358   5.261   4.979   0.994  1.8307 -0.1091 -0.5013
 7981TIP3    H245359   5.170   4.859   1.011  0.2612  0.9344 -1.2489
 7982TIP3   OH245360   4.105   6.570  14.097  0.2087 -0.7314  0.5763
 7982TIP3    H145361   4.125   6.492  14.044  1.0652  0.0617 -0.3327
 7982TIP3    H245362   4.016   6.593  14.073  0.0216 -1.3086  0.6946
 7983TIP3   OH245363   6.605   4.640   4.390 -0.1924 -0.1350 -0.1239
 7983TIP3    H145364   6.667   4.637   4.463 -1.2764  1.4293  0.9221
 7983TIP3    H245365   6.528   4.686   4.425 -0.9520  0.2075 -2.0966
 7984TIP3   OH245366   3.049   3.061  13.581 -0.3705  0.1368  0.6260
 7984TIP3    H145367   2.983   3.072  13.649 -1.0111  3.2030 -0.3002
 7984TIP3    H245368   3.000   3.072  13.499  0.9226  0.2054 -0.1557
 7985TIP3   OH245369   4.780   1.584   5.058 -0.4151  0.3477  0.0435
 7985TIP3    H145370   4.781   1.628   4.973 -1.4497  2.3655  1.0147
 7985TIP3    H245371   4.867   1.544   5.066 -0.0819  0.6629 -1.6551
 7986TIP3   OH245372   5.227   3.964  14.326 -0.4771 -0.1034  0.0714
 7986TIP3    H145373   5.172   4.011  14.264 -0.6222  0.2792  0.4907
 7986TIP3    H245374   5.226   4.017  14.405 -0.1167 -0.4785  0.3339
 7987TIP3   OH245375   5.269   5.497   1.687  0.4030  0.3810  0.4236
 7987TIP3    H145376   5.264   5.565   1.755  0.1991  0.2098  0.5805
 7987TIP3    H245377   5.318   5.426   1.728 -0.9143 -0.2953  0.8828
 7988TIP3   OH245378   1.914   1.315   3.504  0.2623 -0.0651 -0.4149
 7988TIP3    H145379   1.934   1.314   3.597  0.6184 -0.5456 -0.4914
 7988TIP3    H245380   1.991   1.276   3.462  0.5554  1.0873 -0.9992
 7989TIP3   OH245381   0.546   2.497   0.768  0.5244  0.2053  0.1097
 7989TIP3    H145382   0.623   2.532   0.814  0.1596  0.0453  0.8506
 7989TIP3    H245383   0.580   2.468   0.684  1.6681 -1.6228  1.1424
 7990TIP3   OH245384   2.280   1.687   3.170 -0.5361 -0.2833 -0.0812
 7990TIP3    H145385   2.318   1.674   3.083 -1.7031 -1.5248 -0.4258
 7990TIP3    H245386   2.203   1.631   3.172 -1.1159  0.4986  1.3995
 7991TIP3   OH245387   0.186   5.231  14.324 -0.1298 -0.2554  0.6612
 7991TIP3    H145388   0.239   5.300  14.364 -0.2586 -0.9510  2.0929
 7991TIP3    H245389   0.096   5.252  14.351 -0.3771 -0.0905 -0.2509
 7992TIP3   OH245390   5.003   3.398  16.668  0.0295 -0.5931 -0.2944
 7992TIP3    H145391   5.039   3.386  16.580  0.7823  1.1645 -0.2818
 7992TIP3    H245392   4.930   3.459  16.655 -2.1782 -3.0679 -0.1265
 7993TIP3   OH245393   4.560   2.097   0.217  0.9078 -0.1365 -0.7369
 7993TIP3    H145394   4.594   2.172   0.168  1.0953  1.6861  1.9398
 7993TIP3    H245395   4.638   2.047   0.241  0.9384 -0.3388 -1.2657
 7994TIP3   OH245396   4.300   0.896   3.581  0.2542 -0.6305 -0.5273
 7994TIP3    H145397   4.303   0.817   3.635  0.7552  0.7894  1.6475
 7994TIP3    H245398   4.217   0.938   3.605  0.5552  0.1090 -0.7588
 7995TIP3   OH245399   1.506   4.951  11.281 -0.0148 -0.0660 -0.1395
 7995TIP3    H145400   1.520   5.027  11.225  1.3010  1.0718  1.6197
 7995TIP3    H245401   1.412   4.950  11.298 -0.1918  0.5242 -1.0440
 7996TIP3   OH245402   4.973   3.141  17.398 -0.3905  0.4901  0.0038
 7996TIP3    H145403   4.963   3.111  17.488 -0.0314  0.5567  0.0653
 7996TIP3    H245404   4.963   3.236  17.403  0.9807  0.6463  0.1826
 7997TIP3   OH245405   0.724   0.662   4.872 -0.7162 -0.1842  0.0734
 7997TIP3    H145406   0.793   0.728   4.862  1.0235 -1.5375  2.1708
 7997TIP3    H245407   0.695   0.670   4.963 -2.4502 -0.5093 -0.4098
 7998TIP3   OH245408   5.654   3.743   3.048 -0.2328  0.0335  0.9207
 7998TIP3    H145409   5.647   3.692   2.967 -0.8253 -1.0000  1.5904
 7998TIP3    H245410   5.726   3.702   3.096  1.9085  2.2924 -0.1683
 7999TIP3   OH245411   3.528   5.398   3.360  0.4194  0.4458 -0.3073
 7999TIP3    H145412   3.492   5.464   3.420  3.5512  1.8710  0.2215
 7999TIP3    H245413   3.586   5.345   3.415  0.9114 -0.2660 -1.4840
 8000TIP3   OH245414   0.792   4.483  15.605  0.6921  0.7248  0.2474
 8000TIP3    H145415   0.870   4.523  15.566  0.3038  0.7495 -0.5254
 8000TIP3    H245416   0.728   4.554  15.608 -0.4043 -0.0658 -2.2414
 8001TIP3   OH245417   3.529   1.350   0.002  0.2529  0.2842  0.3213
 8001TIP3    H145418   3.481   1.292  -0.057  1.3838 -2.2803  1.7281
 8001TIP3    H245419   3.474   1.428   0.011 -1.4592 -0.6322 -1.5350
 8002TIP3   OH245420   4.066   6.432   3.548  0.1510 -0.9137 -0.1546
 8002TIP3    H145421   4.071   6.494   3.621 -2.6037 -1.3021  0.4760
 8002TIP3    H245422   4.074   6.346   3.589 -1.7128 -1.1468 -0.2343
 8003TIP3   OH245423   2.981   5.224  16.691 -0.3280  0.4519  0.0560
 8003TIP3    H145424   3.019   5.147  16.732  0.3661  1.1750  0.8312
 8003TIP3    H245425   2.890   5.201  16.674 -0.3637 -0.2155  1.1074
 8004TIP3   OH245426   2.392   0.021   4.383  0.1802 -0.2654  0.5934
 8004TIP3    H145427   2.342   0.078   4.442  0.5291 -0.6872  1.2996
 8004TIP3    H245428   2.347  -0.063   4.387  2.0068 -1.2400  2.7449
 8005TIP3   OH245429   1.138   2.119  12.557 -0.3974 -0.0140  0.1114
 8005TIP3    H145430   1.180   2.047  12.511 -1.5587 -0.0875 -0.8608
 8005TIP3    H245431   1.128   2.188  12.490 -1.3757  0.1801  0.4443
 8006TIP3   OH245432   5.619   4.443   2.563  0.4000 -0.0466 -0.0651
 8006TIP3    H145433   5.649   4.437   2.654 -1.8505 -0.3661  0.7045
 8006TIP3    H245434   5.524   4.453   2.569  0.0616 -1.1196 -2.3917
 8007TIP3   OH245435   5.768   2.941  16.295  0.0117 -0.1950  0.4253
 8007TIP3    H145436   5.727   3.023  16.268  1.5916  1.0001  1.4866
 8007TIP3    H245437   5.846   2.934  16.241  2.3102  1.3846  3.2289
 8008TIP3   OH245438   3.775   2.877   1.847  0.0385 -0.3340 -0.2261
 8008TIP3    H145439   3.821   2.811   1.898  0.2093 -0.0212  0.0277
 8008TIP3    H245440   3.712   2.915   1.908 -1.7137 -1.8658 -0.9829
 8009TIP3   OH245441   6.679   1.321   5.080  0.2747  0.0921 -0.6816
 8009TIP3    H145442   6.588   1.349   5.065 -0.3245 -0.6304  1.3473
 8009TIP3    H245443   6.672   1.229   5.104  1.2495  0.5984  1.8467
 8010TIP3   OH245444   3.467   3.647   3.466  0.0396 -0.1713 -0.3955
 8010TIP3    H145445   3.541   3.638   3.525  0.3021  0.8379 -0.5482
 8010TIP3    H245446   3.493   3.600   3.387 -0.2878 -1.4776  0.2431
 8011TIP3   OH245447   3.717   2.633  13.721 -0.6027 -0.4379 -0.2884
 8011TIP3    H145448   3.751   2.655  13.635  0.7042  0.3073  0.3798
 8011TIP3    H245449   3.774   2.681  13.782  0.2561 -3.0245  1.1144
 8012TIP3   OH245450   1.117   3.099  12.116 -0.2380 -0.1187  0.0495
 8012TIP3    H145451   1.133   3.186  12.078 -1.9188  0.3914  0.4658
 8012TIP3    H245452   1.078   3.116  12.201 -0.6195 -1.2884  0.1311
 8013TIP3   OH245453   1.377   0.921  16.268  0.8020 -0.7781 -0.6068
 8013TIP3    H145454   1.348   0.979  16.198  2.0424  2.0250  1.0132
 8013TIP3    H245455   1.473   0.918  16.259  0.7223 -3.8065 -1.4463
 8014TIP3   OH245456   1.773   0.644   4.318 -0.1229 -0.0164  0.0156
 8014TIP3    H145457   1.851   0.682   4.358  0.0816  0.0513 -0.4405
 8014TIP3    H245458   1.796   0.634   4.225 -0.6561  0.0150 -0.1243
 8015TIP3   OH245459   3.047   5.234   2.161  0.7183 -0.5037  0.3650
 8015TIP3    H145460   3.130   5.215   2.203  0.7193  0.4988  0.8448
 8015TIP3    H245461   3.037   5.165   2.094 -0.2111 -3.4049  3.2126
 8016TIP3   OH245462   0.968   6.379  14.397 -0.3155  0.0709 -0.0666
 8016TIP3    H145463   0.948   6.457  14.346  0.1672  0.3513  0.1671
 8016TIP3    H245464   1.045   6.403  14.449 -1.0953 -0.0390  1.1794
 8017TIP3   OH245465   0.292   5.201   0.129  0.2157  0.6058  0.0331
 8017TIP3    H145466   0.372   5.150   0.115 -0.0382 -0.2117  1.4073
 8017TIP3    H245467   0.317   5.266   0.194 -0.1152  0.6512  0.1144
 8018TIP3   OH245468   0.169   1.179   1.415 -0.1312  0.3532 -0.9117
 8018TIP3    H145469   0.085   1.138   1.397 -0.4569  1.0268 -0.9528
 8018TIP3    H245470   0.229   1.106   1.428 -0.2744 -0.1612 -2.8537
 8019TIP3   OH245471   4.096   4.205   1.475 -0.3172  0.4093  0.4473
 8019TIP3    H145472   4.129   4.125   1.435 -1.9139 -0.0373 -0.0412
 8019TIP3    H245473   4.145   4.213   1.557  1.6178  0.2930 -0.6290
 8020TIP3   OH245474   0.210   4.092   3.731 -0.2598  0.0931 -0.0230
 8020TIP3    H145475   0.135   4.149   3.748 -0.4234 -0.5526  1.5283
 8020TIP3    H245476   0.267   4.104   3.806  1.5105  1.0101 -1.4466
 8021TIP3   OH245477   6.600   1.416   0.760  0.8568  0.2343 -0.1329
 8021TIP3    H145478   6.548   1.337   0.774  0.9885 -0.0587 -1.2137
 8021TIP3    H245479   6.543   1.488   0.787 -0.0241 -0.0993 -1.0318
 8022TIP3   OH245480   3.487   5.849  12.172  0.5589  0.1419 -0.1437
 8022TIP3    H145481   3.456   5.792  12.102  1.7630  0.8759 -1.3372
 8022TIP3    H245482   3.408   5.894  12.203  0.0702  0.2943 -1.5132
 8023TIP3   OH245483   4.415   5.065  13.476 -0.1985 -0.3284 -0.0200
 8023TIP3    H145484   4.453   4.991  13.427  1.3048 -0.2431  0.9449
 8023TIP3    H245485   4.452   5.057  13.564 -0.4883  1.2270  0.2665
 8024TIP3   OH245486   3.315   1.379   0.262 -0.2364 -0.0329  0.7611
 8024TIP3    H145487   3.317   1.291   0.224 -0.6188  0.0143  0.6319
 8024TIP3    H245488   3.223   1.403   0.262 -0.0333  0.7607 -0.0950
 8025TIP3   OH245489   1.326   4.981  11.989 -0.1240  0.4374 -0.1861
 8025TIP3    H145490   1.317   4.888  12.009 -1.3571  0.3928 -0.8458
 8025TIP3    H245491   1.378   4.983  11.908  0.4877  0.3682  0.1978
 8026TIP3   OH245492   4.356   1.239  15.340  0.8945 -0.3427 -0.0457
 8026TIP3    H145493   4.333   1.207  15.427 -0.5303  1.3195  0.2355
 8026TIP3    H245494   4.294   1.196  15.281 -0.0354  0.6907  0.1478
 8027TIP3   OH245495   5.092   2.158   3.951  0.4837  0.3756 -0.2667
 8027TIP3    H145496   5.119   2.089   3.890  0.2428  0.5528 -0.5806
 8027TIP3    H245497   5.015   2.123   3.995  1.6737 -0.4792  1.2533
 8028TIP3   OH245498   6.687   5.340   3.008 -0.7504  0.7441 -0.3897
 8028TIP3    H145499   6.635   5.303   2.938  0.9370 -1.6555 -0.5130
 8028TIP3    H245500   6.763   5.379   2.964  0.5780 -1.2247 -0.0047
 8029TIP3   OH245501   6.156   5.725   3.328 -0.0985 -0.3465 -0.4377
 8029TIP3    H145502   6.149   5.630   3.334 -2.0923 -0.1601  1.7289
 8029TIP3    H245503   6.149   5.744   3.234 -0.5484 -2.2691 -0.8295
 8030TIP3   OH245504   5.956   4.015   2.520 -0.1906  0.0959 -0.0605
 8030TIP3    H145505   6.017   3.987   2.588  0.3875 -0.8607 -0.9388
 8030TIP3    H245506   5.877   4.039   2.568  0.2902 -0.2976  0.9732
 8031TIP3   OH245507   0.059   2.627  17.057  0.1458  0.4385 -0.1601
 8031TIP3    H145508  -0.022   2.674  17.077 -0.2787 -0.9600  1.6817
 8031TIP3    H245509   0.035   2.569  16.986 -0.2949  0.5016 -0.0708
 8032TIP3   OH245510   5.555   1.459   3.927  0.4209  0.0823  0.9119
 8032TIP3    H145511   5.471   1.416   3.909 -0.0088  1.7366 -1.4517
 8032TIP3    H245512   5.616   1.386   3.941 -0.6375 -1.2925 -1.0957
 8033TIP3   OH245513   1.932   0.923   5.818 -0.3234 -0.2771  0.2377
 8033TIP3    H145514   1.953   0.882   5.902 -0.7298  0.2484  0.5998
 8033TIP3    H245515   1.911   0.850   5.760  1.4110 -0.7557  0.1633
 8034TIP3   OH245516   1.965   0.897   0.191  0.0713  0.4268  1.0585
 8034TIP3    H145517   1.986   0.818   0.241  0.6221 -2.1617 -2.8149
 8034TIP3    H245518   1.874   0.917   0.216  0.3723 -0.5111  3.1720
 8035TIP3   OH245519   6.579   4.221  14.081  0.1821 -0.3731  0.3105
 8035TIP3    H145520   6.527   4.179  14.150  1.1631 -2.3853 -0.1066
 8035TIP3    H245521   6.634   4.284  14.128  0.8749 -1.7467  1.4119
 8036TIP3   OH245522   5.256   5.489  11.636  0.0916 -0.6002 -0.1624
 8036TIP3    H145523   5.272   5.462  11.546 -0.2805 -2.6837  0.3368
 8036TIP3    H245524   5.281   5.412  11.688 -1.4691 -0.1274  1.3662
 8037TIP3   OH245525   2.925   3.027  14.205  0.3701  0.3572  0.5526
 8037TIP3    H145526   2.844   3.021  14.155  0.8727 -2.5545 -0.1076
 8037TIP3    H245527   2.900   3.007  14.295  0.1660  0.8119  0.5975
 8038TIP3   OH245528   5.755   2.218   3.179  0.5439  0.0711 -0.0613
 8038TIP3    H145529   5.740   2.284   3.247 -0.6867 -0.2344 -0.0005
 8038TIP3    H245530   5.685   2.154   3.192  2.0155 -1.5597  0.2247
 8039TIP3   OH245531   1.455   6.032  16.722 -0.0747  0.7405  0.0948
 8039TIP3    H145532   1.460   6.113  16.672 -2.1495  0.3745 -0.8189
 8039TIP3    H245533   1.367   5.999  16.705  0.8372 -1.9466  0.0481
 8040TIP3   OH245534   5.017   6.272  15.907 -0.0152 -0.5926 -0.1638
 8040TIP3    H145535   4.952   6.334  15.941  1.0839  0.7058 -0.3608
 8040TIP3    H245536   4.989   6.187  15.941 -1.2371  0.0817  0.5901
 8041TIP3   OH245537   2.254   2.560   5.510  0.0562 -0.3874 -0.2610
 8041TIP3    H145538   2.314   2.507   5.457 -0.2627  0.8970 -1.9900
 8041TIP3    H245539   2.282   2.650   5.496 -0.0559  0.0254  1.8120
 8042TIP3   OH245540   4.093   1.829  15.768  0.0121 -0.7992 -0.3208
 8042TIP3    H145541   4.014   1.810  15.716 -0.0331 -1.1541 -0.1204
 8042TIP3    H245542   4.082   1.921  15.794 -0.3655 -0.8665 -0.2360
 8043TIP3   OH245543   3.543   6.590  13.358 -0.7581  0.4027  0.0119
 8043TIP3    H145544   3.484   6.614  13.287 -0.0669  1.0537 -0.3580
 8043TIP3    H245545   3.614   6.654  13.353 -0.4436  0.1473  0.9711
 8044TIP3   OH245546   1.824   0.237  14.040 -0.0050  0.2612  0.2984
 8044TIP3    H145547   1.866   0.155  14.067 -0.0521  0.8300  2.2791
 8044TIP3    H245548   1.740   0.210  14.005  0.4830 -0.6160 -0.2508
 8045TIP3   OH245549   1.195   5.609   1.191 -0.2890 -0.0425 -0.4782
 8045TIP3    H145550   1.164   5.692   1.153  0.4527  1.1299  1.3644
 8045TIP3    H245551   1.136   5.592   1.263 -1.2408 -1.8792 -1.6195
 8046TIP3   OH245552   4.478   1.917   0.026  0.6252 -0.0673  0.4029
 8046TIP3    H145553   4.467   1.923   0.121 -2.4727  2.9040  0.0599
 8046TIP3    H245554   4.519   2.000   0.002  1.6515 -0.9168 -0.8557
 8047TIP3   OH245555   3.625   0.969  11.698  0.0185 -0.1268  0.1250
 8047TIP3    H145556   3.637   1.062  11.679  0.0938 -0.1456  0.0803
 8047TIP3    H245557   3.531   0.954  11.687  0.0368 -0.1004 -0.0725
 8048TIP3   OH245558   3.672   0.501  11.628 -0.3801  0.1617  0.0162
 8048TIP3    H145559   3.629   0.521  11.545  1.2922  2.4259 -0.4259
 8048TIP3    H245560   3.747   0.446  11.604 -0.6478 -0.2925  0.2136
 8049TIP3   OH245561   0.282   1.752  15.276 -0.0974 -0.0451  0.8051
 8049TIP3    H145562   0.268   1.690  15.348 -0.8266 -1.4370 -0.4983
 8049TIP3    H245563   0.328   1.702  15.209  0.3542  1.1636  0.1730
 8050TIP3   OH245564   0.112   1.103  11.203 -0.4864 -0.1733 -0.6081
 8050TIP3    H145565   0.165   1.163  11.255  0.4750 -1.9325  0.5836
 8050TIP3    H245566   0.066   1.049  11.268 -1.3400 -0.7020 -1.6154
 8051TIP3   OH245567   2.905   3.300   0.944  0.9444  0.0674  0.5444
 8051TIP3    H145568   2.944   3.232   0.999  1.0174 -0.1034  0.2846
 8051TIP3    H245569   2.973   3.323   0.882  0.0717 -1.5772 -1.1316
 8052TIP3   OH245570   6.751   5.083  12.361 -0.1717  0.3878  0.4748
 8052TIP3    H145571   6.817   5.053  12.424  0.8359  0.0768 -0.6864
 8052TIP3    H245572   6.685   5.014  12.360 -0.8799  0.9961  2.1227
 8053TIP3   OH245573   2.279   2.562  10.409 -0.1155 -0.1895 -0.2687
 8053TIP3    H145574   2.204   2.584  10.354 -1.1666  2.2716  1.8943
 8053TIP3    H245575   2.338   2.637  10.400 -0.5219  0.5287  2.1064
 8054TIP3   OH245576   1.254   1.910   5.527 -0.3658  0.0214 -0.2520
 8054TIP3    H145577   1.214   1.854   5.594 -1.1737  1.3125  0.3871
 8054TIP3    H245578   1.204   1.991   5.531  0.4703  0.6277 -1.4864
 8055TIP3   OH245579   4.575   0.218   1.914  0.6255 -0.2352  0.3384
 8055TIP3    H145580   4.553   0.306   1.945  0.2556 -0.4813  0.7934
 8055TIP3    H245581   4.596   0.169   1.994  1.0150 -0.5087  0.0705
 8056TIP3   OH245582   5.822   2.976   4.491 -0.4278  0.4273  0.0844
 8056TIP3    H145583   5.802   3.054   4.438  1.1683  1.4594  0.9346
 8056TIP3    H245584   5.823   3.008   4.581  0.0793 -0.6242  0.4623
 8057TIP3   OH245585   5.354   2.492   0.547 -0.3867  0.3846 -0.0620
 8057TIP3    H145586   5.392   2.508   0.634  0.6185 -2.2325  0.0796
 8057TIP3    H245587   5.260   2.497   0.561 -0.2274  0.7373  1.0043
 8058TIP3   OH245588   2.428   1.217   1.130 -0.2295  0.3816  0.0768
 8058TIP3    H145589   2.416   1.202   1.036  1.4963 -0.6420 -0.0190
 8058TIP3    H245590   2.444   1.130   1.166  0.8927  0.9457  1.0167
 8059TIP3   OH245591   3.782   2.022  12.771 -0.1292 -0.3016 -0.2378
 8059TIP3    H145592   3.804   2.050  12.682 -0.7368  0.0347 -0.2913
 8059TIP3    H245593   3.690   2.046  12.781  0.1034  0.2165  0.7044
 8060TIP3   OH245594   1.898   1.488   0.430 -0.8744  0.5884 -0.1643
 8060TIP3    H145595   1.860   1.456   0.512 -0.9819 -1.3050 -0.8945
 8060TIP3    H245596   1.850   1.440   0.362  1.5153 -0.4693 -1.1911
 8061TIP3   OH245597   3.256   6.240   1.931 -0.3439  0.4275 -0.5185
 8061TIP3    H145598   3.260   6.278   1.844  1.1586  0.7732 -0.3147
 8061TIP3    H245599   3.347   6.232   1.959 -0.8138  0.8982  1.2698
 8062TIP3   OH245600   5.217   1.942   5.339 -0.4343 -0.0812 -0.1268
 8062TIP3    H145601   5.298   1.992   5.347 -0.0773 -0.7193  0.3144
 8062TIP3    H245602   5.148   2.006   5.355 -0.0373  0.5547 -0.9106
 8063TIP3   OH245603   1.174   5.457   5.370 -0.0807 -0.3353 -0.2792
 8063TIP3    H145604   1.209   5.398   5.437 -0.7771 -0.5800 -0.1254
 8063TIP3    H245605   1.251   5.499   5.333  0.3487 -0.5684  0.3331
 8064TIP3   OH245606   3.542   0.510   4.363 -0.4071  0.1379 -0.5992
 8064TIP3    H145607   3.542   0.562   4.444 -1.0318 -1.8128  0.7258
 8064TIP3    H245608   3.458   0.532   4.321 -1.2156 -0.6102  0.5487
 8065TIP3   OH245609   6.197   4.246   1.537 -0.0880 -0.6480 -0.7310
 8065TIP3    H145610   6.117   4.253   1.485  0.4664 -1.5772 -1.7497
 8065TIP3    H245611   6.169   4.206   1.619 -1.0499  1.2374 -0.0812
 8066TIP3   OH245612   3.192   5.215  16.019 -0.1024 -0.2266 -0.2271
 8066TIP3    H145613   3.124   5.261  16.069  0.0337 -0.8870  0.5772
 8066TIP3    H245614   3.273   5.263  16.040  0.4069 -1.9557  2.2372
 8067TIP3   OH245615   5.734   4.108   5.141  0.3245 -0.0630  0.2840
 8067TIP3    H145616   5.656   4.120   5.087  0.2635  0.4077  0.4741
 8067TIP3    H245617   5.720   4.026   5.187  0.3869 -0.4879 -0.4360
 8068TIP3   OH245618   1.136   0.742  14.183 -0.2108 -0.2627 -0.3353
 8068TIP3    H145619   1.155   0.660  14.228  0.8439  0.0933 -0.0963
 8068TIP3    H245620   1.063   0.780  14.232  0.6163 -0.1015  0.8364
 8069TIP3   OH245621   5.398   5.949   3.428  0.2390  0.0164 -0.0556
 8069TIP3    H145622   5.378   5.986   3.514 -1.2868 -1.7183  0.4045
 8069TIP3    H245623   5.457   5.876   3.446 -0.5228 -0.6976 -0.4030
 8070TIP3   OH245624   0.998   1.401  14.523 -0.4088  0.4429  0.6889
 8070TIP3    H145625   1.040   1.370  14.443 -2.3027 -1.3406  0.3048
 8070TIP3    H245626   0.918   1.443  14.493 -1.8965 -1.5529  1.6462
 8071TIP3   OH245627   5.860   6.165   4.240 -0.0695 -0.2756  0.7616
 8071TIP3    H145628   5.831   6.162   4.331 -1.5933 -2.4743  0.2711
 8071TIP3    H245629   5.858   6.074   4.211  0.8945  0.3091 -1.3414
 8072TIP3   OH245630   6.665   1.162  11.763 -0.2248  0.0150 -0.5948
 8072TIP3    H145631   6.590   1.211  11.729 -0.6642  0.0064  0.3393
 8072TIP3    H245632   6.732   1.229  11.779 -1.6181  0.8061  2.9551
 8073TIP3   OH245633   2.574   1.439   3.729  0.1771  0.3003 -0.5242
 8073TIP3    H145634   2.507   1.491   3.773 -0.0067  0.7026 -1.2666
 8073TIP3    H245635   2.624   1.400   3.800 -1.3874 -0.7450  0.0744
 8074TIP3   OH245636   5.913   4.547   1.149  0.2861  0.3015  0.4957
 8074TIP3    H145637   5.895   4.605   1.223 -0.5887  0.4623  0.1777
 8074TIP3    H245638   5.826   4.515   1.122  0.5798  0.2851 -0.4877
 8075TIP3   OH245639   3.037   0.809  14.048  0.1356 -0.6153 -0.3326
 8075TIP3    H145640   3.051   0.903  14.037  0.7979 -0.7106 -0.3869
 8075TIP3    H245641   3.082   0.769  13.974  1.3136 -1.0490  0.5806
 8076TIP3   OH245642   5.650   3.092  17.071 -0.1184 -0.6493 -0.0470
 8076TIP3    H145643   5.602   3.047  17.141  0.0870 -1.2029 -0.2552
 8076TIP3    H245644   5.588   3.095  16.999 -0.7083  0.8824  0.4926
 8077TIP3   OH245645   6.097   1.876  13.254 -0.5722 -0.4350  0.3914
 8077TIP3    H145646   6.117   1.862  13.346  1.1771  2.2508  0.5094
 8077TIP3    H245647   6.005   1.902  13.252 -1.6519 -3.6866  0.8965
 8078TIP3   OH245648   0.698   0.427   4.613  0.1573  0.1791 -0.0166
 8078TIP3    H145649   0.738   0.514   4.617  0.9270 -0.1197 -0.9203
 8078TIP3    H245650   0.734   0.381   4.689  0.0860  0.5024  0.2183
 8079TIP3   OH245651   3.207   3.058  11.998 -0.5165  0.3363  0.3769
 8079TIP3    H145652   3.171   2.969  11.997  1.8790 -0.7190 -0.9103
 8079TIP3    H245653   3.301   3.045  12.009  0.3586  2.4707 -3.0829
 8080TIP3   OH245654   1.821   6.452  13.354  0.3030  0.2773 -0.7848
 8080TIP3    H145655   1.893   6.393  13.378 -1.0848 -1.3842 -0.5186
 8080TIP3    H245656   1.822   6.519  13.422 -0.2882 -1.4667  1.0491
 8081TIP3   OH245657   3.919   0.487   5.216  0.4675 -0.1540  0.2227
 8081TIP3    H145658   3.961   0.573   5.221 -0.4944  0.4776 -1.6317
 8081TIP3    H245659   3.841   0.495   5.271 -0.7469  0.9123 -1.5576
 8082TIP3   OH245660   6.018   1.494  12.459 -0.3955  0.5175 -0.4816
 8082TIP3    H145661   6.101   1.451  12.480 -1.0977  0.0924  1.6714
 8082TIP3    H245662   5.957   1.461  12.525 -2.4538  0.3458 -2.3743
 8083TIP3   OH245663   4.493   2.361  17.388 -0.9024 -0.3358 -0.1087
 8083TIP3    H145664   4.447   2.357  17.472 -0.7466  3.5674  0.3371
 8083TIP3    H245665   4.581   2.390  17.410 -0.6444  0.0721 -1.5831
 8084TIP3   OH245666   0.801   5.802   5.966 -1.1683  0.3765 -0.4307
 8084TIP3    H145667   0.797   5.786   6.060  3.6046  2.9835  0.5451
 8084TIP3    H245668   0.841   5.723   5.930 -1.7790 -0.0855 -0.1269
 8085TIP3   OH245669   2.482   0.035   0.220 -0.1971 -0.2820 -0.1210
 8085TIP3    H145670   2.544   0.033   0.293 -1.8856 -1.3204  1.3643
 8085TIP3    H245671   2.521  -0.021   0.153  2.9057  3.0970 -1.4784
 8086TIP3   OH245672   3.216   0.002   1.214  0.1017 -0.2649 -0.1808
 8086TIP3    H145673   3.132  -0.033   1.182  0.1488 -0.7014  0.1746
 8086TIP3    H245674   3.269  -0.075   1.230  0.8964  0.0294 -1.2529
 8087TIP3   OH245675   6.708   4.633  14.653 -0.6058  0.3988  0.6382
 8087TIP3    H145676   6.733   4.547  14.686 -0.8819 -0.7551 -1.8879
 8087TIP3    H245677   6.790   4.682  14.651  0.0355 -0.6477 -0.1141
 8088TIP3   OH245678   1.511   1.187  16.592  0.0679  0.2022 -0.2606
 8088TIP3    H145679   1.435   1.237  16.562 -0.6823 -0.4622  0.4931
 8088TIP3    H245680   1.475   1.122  16.651  1.0996 -0.8525 -0.7610
 8089TIP3   OH245681   3.996   5.604   4.014  0.0862  0.1934  0.1050
 8089TIP3    H145682   3.969   5.690   4.045  0.2192  0.0009  0.7659
 8089TIP3    H245683   3.936   5.543   4.055  0.4620 -0.0920  0.2364
 8090TIP3   OH245684   3.157   2.743   4.333 -0.2881  0.4739 -0.0273
 8090TIP3    H145685   3.130   2.653   4.349 -0.9989  0.4584 -1.1819
 8090TIP3    H245686   3.253   2.740   4.331 -0.2817 -0.0713  0.9164
 8091TIP3   OH245687   3.735   1.995   4.688  0.8822 -0.2152 -0.3150
 8091TIP3    H145688   3.816   2.045   4.681  0.0095  1.1669 -1.0745
 8091TIP3    H245689   3.673   2.043   4.633 -0.1643 -1.8376 -0.6074
 8092TIP3   OH245690   2.258   1.541  15.931 -0.0226 -0.2536  0.1123
 8092TIP3    H145691   2.198   1.505  15.997 -1.1945  1.1305 -0.1411
 8092TIP3    H245692   2.240   1.489  15.852  0.5849 -1.1702  0.5512
 8093TIP3   OH245693   5.353   4.280  11.757 -0.1955 -0.1239  0.2002
 8093TIP3    H145694   5.407   4.264  11.834 -0.9733  0.5779  0.9297
 8093TIP3    H245695   5.305   4.198  11.743  1.5787 -1.0192 -0.9325
 8094TIP3   OH245696   0.528   6.586   3.220  0.1512  0.2046  0.0176
 8094TIP3    H145697   0.605   6.621   3.175  1.0868 -1.1735  0.4998
 8094TIP3    H245698   0.490   6.662   3.264  1.6729  0.7976  0.3941
 8095TIP3   OH245699   6.530   0.780   6.000  0.0398  0.0827 -0.0744
 8095TIP3    H145700   6.438   0.762   5.982  0.0439 -1.7205  1.3856
 8095TIP3    H245701   6.529   0.840   6.075  0.0428 -0.2900  0.2270
 8096TIP3   OH245702   1.503   1.795  17.221 -0.0732 -0.1312  0.4104
 8096TIP3    H145703   1.523   1.824  17.309  1.1265 -0.8172  0.3850
 8096TIP3    H245704   1.535   1.864  17.164 -0.5795  0.1744  0.4896
 8097TIP3   OH245705   3.616   2.587   4.202 -0.1492  0.0429  0.6977
 8097TIP3    H145706   3.636   2.533   4.126 -0.2833  0.2690  0.5024
 8097TIP3    H245707   3.621   2.677   4.170 -0.1010  0.1427  0.9803
 8098TIP3   OH245708   6.662   3.606  10.576 -0.3716 -0.0855 -0.4814
 8098TIP3    H145709   6.688   3.564  10.494 -0.3140 -0.7976 -0.1139
 8098TIP3    H245710   6.634   3.533  10.632 -1.3075  0.4786 -0.1964
 8099TIP3   OH245711   5.877   5.788   0.309  0.2435  0.5652  0.5314
 8099TIP3    H145712   5.857   5.737   0.387 -0.9277  0.0879 -0.0537
 8099TIP3    H245713   5.795   5.788   0.259  0.6950  1.6642 -0.2411
 8100TIP3   OH245714   2.358   0.744   3.779  0.0203  0.4181  0.0194
 8100TIP3    H145715   2.428   0.775   3.722 -0.8824  0.8423 -0.8907
 8100TIP3    H245716   2.369   0.649   3.781  0.8192  0.5024  0.1835
 8101TIP3   OH245717   6.272   1.920   0.971 -0.5426 -0.5481  0.8309
 8101TIP3    H145718   6.365   1.939   0.958 -0.8416 -0.3260 -1.3139
 8101TIP3    H245719   6.248   1.971   1.049  0.3604  2.2378 -0.5708
 8102TIP3   OH245720   0.433   4.600   6.023 -0.5267 -0.9372  0.1762
 8102TIP3    H145721   0.393   4.671   5.973 -0.6839 -2.2724 -1.6630
 8102TIP3    H245722   0.525   4.627   6.033 -0.8579  0.0936  0.6368
 8103TIP3   OH245723   3.195   2.959  12.417 -0.0907 -0.2677  0.0600
 8103TIP3    H145724   3.290   2.950  12.418 -0.0270  0.3229  0.4412
 8103TIP3    H245725   3.164   2.891  12.358  0.7031  0.7150 -1.5574
 8104TIP3   OH245726   4.967   3.608   2.326 -0.5630  0.0602 -0.2064
 8104TIP3    H145727   5.041   3.619   2.266  0.6311 -1.5450  0.8863
 8104TIP3    H245728   4.957   3.693   2.367  0.1006  0.5460 -1.0152
 8105TIP3   OH245729   4.656   3.267   5.159  0.0354  0.1311 -0.1291
 8105TIP3    H145730   4.562   3.258   5.172 -0.2598  0.7688 -1.5466
 8105TIP3    H245731   4.676   3.357   5.186 -0.0525  0.4844 -1.1891
 8106TIP3   OH245732   3.557   0.110   4.943  0.6160 -0.5763  0.2779
 8106TIP3    H145733   3.507   0.093   4.863  0.4568 -2.0941  0.6557
 8106TIP3    H245734   3.643   0.138   4.912 -0.4754  2.3898 -0.3872
 8107TIP3   OH245735   4.854   6.650  14.835  0.1938 -0.1501 -0.0423
 8107TIP3    H145736   4.868   6.576  14.776  2.0477 -1.0289  1.3878
 8107TIP3    H245737   4.893   6.622  14.918 -0.6082  1.7801  1.0570
 8108TIP3   OH245738   3.738   1.278   1.479  0.1980  0.0430 -0.1487
 8108TIP3    H145739   3.810   1.218   1.497  1.2950  1.4542  0.4092
 8108TIP3    H245740   3.775   1.365   1.493 -1.7248  0.8228  0.5253
 8109TIP3   OH245741   5.459   4.489  12.883 -0.3103  0.1745  0.1209
 8109TIP3    H145742   5.463   4.514  12.791 -0.3588 -0.0235  0.0648
 8109TIP3    H245743   5.506   4.405  12.887  1.8015  1.3279  0.6837
 8110TIP3   OH245744   2.666   1.164  15.603  0.2706  0.7499  0.2252
 8110TIP3    H145745   2.686   1.089  15.659  3.1343 -0.3962 -2.0953
 8110TIP3    H245746   2.742   1.222  15.613 -1.8245  3.4875  1.9100
 8111TIP3   OH245747   3.860   4.992  14.222 -0.2302  0.4558  0.3725
 8111TIP3    H145748   3.908   4.973  14.141 -1.3414 -1.1940  0.0753
 8111TIP3    H245749   3.890   4.925  14.284 -0.8458  0.5075  0.7294
 8112TIP3   OH245750   4.609   5.788  12.013 -0.1929 -0.5928 -0.1546
 8112TIP3    H145751   4.705   5.782  12.009 -0.1114 -0.5012  1.0608
 8112TIP3    H245752   4.593   5.866  12.066 -0.9524 -0.4217 -0.6234
 8113TIP3   OH245753   5.700   0.426  16.310  0.1268 -0.0266 -0.2973
 8113TIP3    H145754   5.641   0.355  16.335 -0.9242  0.5933 -0.9060
 8113TIP3    H245755   5.683   0.439  16.216  0.1388  1.1582 -0.1509
 8114TIP3   OH245756   1.123   6.522   4.458  0.4094  0.8596 -0.4281
 8114TIP3    H145757   1.065   6.583   4.413 -0.5933  1.1974  1.2196
 8114TIP3    H245758   1.130   6.447   4.399 -1.1229  1.1308 -1.0075
 8115TIP3   OH245759   2.729   5.788   1.402  0.5729  0.3106  0.0800
 8115TIP3    H145760   2.782   5.721   1.358  2.3041  0.4659  1.8425
 8115TIP3    H245761   2.759   5.787   1.493 -1.9478  0.9425  0.9957
 8116TIP3   OH245762   3.720   5.532   0.115  0.1355 -0.1076 -0.2101
 8116TIP3    H145763   3.815   5.533   0.123  0.1530  0.1642 -0.4046
 8116TIP3    H245764   3.689   5.592   0.183 -0.1270 -2.8026  2.2405
 8117TIP3   OH245765   1.470   6.739  12.665 -0.6920  0.5614  0.0065
 8117TIP3    H145766   1.416   6.746  12.744  0.6036  0.6788  0.9123
 8117TIP3    H245767   1.425   6.793  12.600 -2.7669 -0.9634  0.0601
 8118TIP3   OH245768   5.707   1.216   3.912  0.2422  0.1469 -0.3513
 8118TIP3    H145769   5.689   1.133   3.868 -1.9590  0.6067 -0.4318
 8118TIP3    H245770   5.734   1.191   4.000  4.3106 -0.7782 -1.6271
 8119TIP3   OH245771   4.168   6.572  13.252  0.0244  0.9036  0.9053
 8119TIP3    H145772   4.232   6.570  13.323  0.5294  0.2658  0.4474
 8119TIP3    H245773   4.220   6.564  13.172 -0.2937  3.9020  0.2531
 8120TIP3   OH245774   6.147   0.675   3.277  0.6286  0.2985  0.0975
 8120TIP3    H145775   6.232   0.633   3.284  0.7227  0.6094  0.8637
 8120TIP3    H245776   6.128   0.675   3.183  0.3840 -1.9184  0.0878
 8121TIP3   OH245777   3.564   4.125  15.482 -0.0832  0.6006  0.8575
 8121TIP3    H145778   3.656   4.142  15.461  0.1002 -0.3891  0.8126
 8121TIP3    H245779   3.524   4.211  15.486  0.4722  0.9818 -0.9104
 8122TIP3   OH245780   4.852   1.224  11.822  0.4359  0.1783 -0.1400
 8122TIP3    H145781   4.906   1.146  11.831 -1.9226 -1.4028  1.7311
 8122TIP3    H245782   4.790   1.203  11.752  0.8863  1.1431 -0.8615
 8123TIP3   OH245783   5.084   2.627  14.591 -0.5858  0.2168  0.3405
 8123TIP3    H145784   5.111   2.700  14.647 -2.6306  0.4139  1.1582
 8123TIP3    H245785   5.059   2.558  14.653 -1.1912 -0.2107 -0.3713
 8124TIP3   OH245786   6.267   4.151  16.516  1.0947 -0.7337 -0.1526
 8124TIP3    H145787   6.316   4.145  16.598  1.9047 -1.1025 -0.6409
 8124TIP3    H245788   6.329   4.190  16.454  0.2837  0.1496 -0.4332
 8125TIP3   OH245789   0.959   5.864   4.457  0.2060 -0.7455  0.0899
 8125TIP3    H145790   0.950   5.924   4.531  0.9753  1.2326 -1.3314
 8125TIP3    H245791   0.883   5.806   4.462 -0.8552  0.7003  1.2182
 8126TIP3   OH245792   3.852   1.949  14.838 -0.0730  0.1592 -0.0247
 8126TIP3    H145793   3.827   1.899  14.916  1.9354 -0.8406  0.0343
 8126TIP3    H245794   3.841   2.040  14.864  0.9393 -0.1383  1.6076
 8127TIP3   OH245795   5.674   5.231   2.518  0.4679  0.3317  0.8921
 8127TIP3    H145796   5.734   5.198   2.451  0.9935  0.6012  1.2251
 8127TIP3    H245797   5.625   5.153   2.547  2.4358 -0.4187  2.4364
 8128TIP3   OH245798   1.609   4.983  15.925  0.4768  0.1665 -0.3423
 8128TIP3    H145799   1.676   5.019  15.983 -0.4350 -0.1621  0.9720
 8128TIP3    H245800   1.658   4.945  15.852  1.8797 -1.4031  1.3046
 8129TIP3   OH245801   4.683   0.831   5.760  0.1146 -0.4373 -0.1874
 8129TIP3    H145802   4.612   0.881   5.800  1.1331  0.7993  0.1419
 8129TIP3    H245803   4.746   0.897   5.732  1.5842 -1.5258  0.3953
 8130TIP3   OH245804   5.815   1.368  14.162 -0.7941  0.7458  0.1044
 8130TIP3    H145805   5.830   1.408  14.077 -0.6409 -1.0807 -0.7636
 8130TIP3    H245806   5.850   1.279  14.154  0.2646  0.8717  2.4396
 8131TIP3   OH245807   2.318   4.795  11.573 -0.4965 -0.0920  0.3196
 8131TIP3    H145808   2.311   4.811  11.479 -0.7212 -0.6459  0.2398
 8131TIP3    H245809   2.240   4.834  11.611  0.7060  2.2505  0.5772
 8132TIP3   OH245810   1.057   6.462   0.787 -0.0532 -0.5459  0.3955
 8132TIP3    H145811   1.011   6.465   0.871 -1.1900 -1.6610 -0.1548
 8132TIP3    H245812   1.039   6.547   0.746 -0.8276 -0.6041  0.6058
 8133TIP3   OH245813   3.928   5.508  13.697  0.6607  0.3624 -0.1682
 8133TIP3    H145814   3.989   5.572  13.735  0.2307  0.9611 -0.4638
 8133TIP3    H245815   3.842   5.540  13.724  0.4223  0.1273 -0.6570
 8134TIP3   OH245816   4.223   5.767  15.553  0.1494 -0.3363 -0.0570
 8134TIP3    H145817   4.176   5.809  15.481  2.3632 -0.7345 -1.8809
 8134TIP3    H245818   4.228   5.675  15.529  1.3054 -0.4022  0.3328
 8135TIP3   OH245819   1.775   5.924  11.513  0.0179  0.2294  0.0008
 8135TIP3    H145820   1.812   5.915  11.425 -2.2276  0.4346 -1.0318
 8135TIP3    H245821   1.810   6.007  11.545 -1.6669  1.8781 -2.1014
 8136TIP3   OH245822   5.932   6.081   4.926  0.0941 -0.0457  0.3621
 8136TIP3    H145823   5.943   6.175   4.943  0.6359 -0.3632  1.8562
 8136TIP3    H245824   5.862   6.053   4.985  0.7795 -0.8153  0.8337
 8137TIP3   OH245825   6.172   2.933   4.662  0.3121  0.2444 -0.5711
 8137TIP3    H145826   6.114   3.007   4.645  1.1414  0.9330 -0.4336
 8137TIP3    H245827   6.208   2.950   4.749  0.5407 -0.3027 -0.5520
 8138TIP3   OH245828   6.057   0.203   3.510  0.3791 -0.1532 -0.0222
 8138TIP3    H145829   6.062   0.291   3.547 -0.3333  0.0846 -0.4663
 8138TIP3    H245830   6.068   0.145   3.586  0.8745  0.3125  0.2688
 8139TIP3   OH245831   3.256   6.584   2.930 -0.1329  0.5771 -0.0336
 8139TIP3    H145832   3.323   6.643   2.964 -0.4456  0.5918  0.5731
 8139TIP3    H245833   3.180   6.640   2.914  0.2357  0.7034 -1.4789
 8140TIP3   OH245834   3.053   1.056  12.180  0.1812  0.2044 -0.1399
 8140TIP3    H145835   2.982   1.064  12.116 -0.2790  1.1248  0.4587
 8140TIP3    H245836   3.034   1.124  12.245  0.2507 -1.1475  1.3483
 8141TIP3   OH245837   3.760   1.572   1.097  0.6431 -0.0166 -0.2898
 8141TIP3    H145838   3.683   1.599   1.149  2.5289  0.2082  2.6374
 8141TIP3    H245839   3.749   1.477   1.087  0.5227 -0.1977  1.2231
 8142TIP3   OH245840   1.683   2.300   3.551  0.1550 -0.7929 -0.4635
 8142TIP3    H145841   1.673   2.206   3.561  1.2517 -1.1022 -1.8850
 8142TIP3    H245842   1.767   2.310   3.506  0.9851  0.9681  1.3068
 8143TIP3   OH245843   0.011   1.912  16.133 -0.2842  0.3659  0.2965
 8143TIP3    H145844  -0.057   1.980  16.142 -0.2445  0.4823 -0.2424
 8143TIP3    H245845   0.007   1.887  16.040  1.5924  1.6175 -0.1659
 8144TIP3   OH245846   6.683   6.385   5.201 -0.3236 -0.3023  0.2504
 8144TIP3    H145847   6.591   6.405   5.189 -0.0556 -0.0623 -1.6025
 8144TIP3    H245848   6.729   6.467   5.184  0.3672 -0.9666 -1.3075
 8145TIP3   OH245849   3.755   6.357   4.313  0.1107  0.0766  0.1762
 8145TIP3    H145850   3.819   6.424   4.336  1.1909 -0.7366 -0.3628
 8145TIP3    H245851   3.807   6.280   4.291 -1.0885 -1.0468  1.0407
 8146TIP3   OH245852   2.694   2.642   0.550  0.4780  0.0463 -0.0495
 8146TIP3    H145853   2.762   2.698   0.515 -2.8943  3.5876 -1.6862
 8146TIP3    H245854   2.710   2.641   0.645  3.1278  0.0757 -0.4270
 8147TIP3   OH245855   0.170   5.829   4.967  0.7245  0.2029 -0.9336
 8147TIP3    H145856   0.213   5.794   4.888 -0.6089  1.2621 -2.1966
 8147TIP3    H245857   0.102   5.887   4.933 -0.6383 -0.1724  1.0041
 8148TIP3   OH245858   4.124   4.321   4.167 -0.0436 -0.6938 -0.0958
 8148TIP3    H145859   4.044   4.349   4.124 -0.1252  0.7697  0.9208
 8148TIP3    H245860   4.190   4.319   4.098 -1.2707 -3.7637 -1.3488
 8149TIP3   OH245861   4.595   5.664  13.165 -0.0529  0.2091 -0.4372
 8149TIP3    H145862   4.678   5.706  13.185  0.9623 -0.5921 -2.6338
 8149TIP3    H245863   4.585   5.676  13.070 -2.2698 -0.0489 -0.2824
 8150TIP3   OH245864   3.658   0.424  15.010 -0.4500  0.8728  0.3269
 8150TIP3    H145865   3.740   0.456  15.048  0.2528  0.6339 -0.9280
 8150TIP3    H245866   3.685   0.355  14.950 -1.4995  1.4111 -0.7960
 8151TIP3   OH245867   2.323   2.306  15.477 -0.8598  0.7130  0.0661
 8151TIP3    H145868   2.360   2.369  15.415 -1.6339 -0.7797 -2.0074
 8151TIP3    H245869   2.238   2.282  15.440 -1.3196 -0.3246  1.6679
 8152TIP3   OH245870   1.176   2.718  15.992  0.6282 -0.0838  0.4485
 8152TIP3    H145871   1.158   2.797  15.941  0.3204  0.3162  1.1625
 8152TIP3    H245872   1.248   2.742  16.050  0.0527 -0.0835  1.1835
 8153TIP3   OH245873   5.405   0.757   3.866  0.0439  0.4007  0.2841
 8153TIP3    H145874   5.325   0.734   3.912  0.3569 -2.3385 -0.3660
 8153TIP3    H245875   5.384   0.840   3.821 -2.6056 -0.4805 -0.2957
 8154TIP3   OH245876   5.992   0.134   4.578  0.5657 -0.6582  0.3231
 8154TIP3    H145877   6.047   0.082   4.521  2.1663  0.6968  0.5591
 8154TIP3    H245878   6.052   0.170   4.644 -1.0560 -1.4389  2.3613
 8155TIP3   OH245879   1.189   4.876  14.126  0.2617 -0.8030 -0.1352
 8155TIP3    H145880   1.108   4.863  14.077 -0.5483 -0.0284  0.9421
 8155TIP3    H245881   1.163   4.868  14.218  0.9919  1.3739  0.3143
 8156TIP3   OH245882   2.336   6.445  13.490 -0.0305  0.8729 -0.0906
 8156TIP3    H145883   2.344   6.511  13.559 -4.5645  0.9315  0.6840
 8156TIP3    H245884   2.297   6.493  13.416  2.0998  0.1935 -1.7644
 8157TIP3   OH245885   5.065   1.953  16.806 -0.0870  0.4227  0.1506
 8157TIP3    H145886   5.046   1.860  16.795  0.4622  0.2017  0.9680
 8157TIP3    H245887   4.996   1.997  16.757 -1.0526 -0.3967  0.7304
 8158TIP3   OH245888   2.581   4.882  12.622  0.5776 -0.1409 -0.5662
 8158TIP3    H145889   2.637   4.904  12.696  0.0396  1.5347 -0.6075
 8158TIP3    H245890   2.566   4.788  12.630 -0.1177  0.1184  1.9290
 8159TIP3   OH245891   1.698   6.361  13.139  0.3319  0.5239  0.6615
 8159TIP3    H145892   1.738   6.411  13.210  0.2890 -1.5238  2.2452
 8159TIP3    H245893   1.770   6.306  13.107 -0.2224 -0.3344  0.8447
 8160TIP3   OH245894   0.999   3.316  11.782  0.0312 -0.0886 -0.2061
 8160TIP3    H145895   1.092   3.304  11.798  0.2803 -1.7455 -2.4413
 8160TIP3    H245896   0.968   3.367  11.857  2.9620  1.7181 -0.0619
 8161TIP3   OH245897   3.225   4.090   2.379 -0.1336  0.3144 -0.6134
 8161TIP3    H145898   3.314   4.100   2.410 -0.6919  0.8491  0.8825
 8161TIP3    H245899   3.223   4.140   2.297  1.0443 -0.1146 -0.9264
 8162TIP3   OH245900   2.472   0.723  13.249  0.0735  0.9890  0.2222
 8162TIP3    H145901   2.467   0.628  13.265 -2.7665  1.2702  1.5717
 8162TIP3    H245902   2.524   0.756  13.322 -0.9063  0.6784  1.0921
 8163TIP3   OH245903   2.833   0.491   1.388 -0.3703 -0.1383 -0.1509
 8163TIP3    H145904   2.799   0.577   1.365 -0.1906 -0.1685 -0.5436
 8163TIP3    H245905   2.907   0.508   1.446 -1.2115 -0.0802  0.9244
 8164TIP3   OH245906   2.317   1.134  16.194  0.5989 -0.1415  0.2402
 8164TIP3    H145907   2.232   1.145  16.151  1.2450 -0.7452 -1.2826
 8164TIP3    H245908   2.296   1.094  16.278 -0.6394 -0.0732 -0.0109
 8165TIP3   OH245909   3.736   2.767  11.820  0.2247 -0.5695  0.3549
 8165TIP3    H145910   3.686   2.845  11.842 -0.5444 -0.8869 -0.2183
 8165TIP3    H245911   3.782   2.789  11.739  0.7267 -0.4109  0.6755
 8166TIP3   OH245912   0.604   6.481   0.499 -0.4230 -0.2345 -0.3175
 8166TIP3    H145913   0.642   6.394   0.482 -0.2100 -1.0192  3.2658
 8166TIP3    H245914   0.680   6.538   0.511 -0.3837 -0.5530  1.2939
 8167TIP3   OH245915   3.328   5.333  16.813 -0.0474  0.0515 -0.4904
 8167TIP3    H145916   3.353   5.255  16.764 -0.9970 -0.7842  0.3090
 8167TIP3    H245917   3.251   5.306  16.863  1.7927  0.3463  2.7475
 8168TIP3   OH245918   5.945   0.363   3.196 -0.2669 -0.2432  0.0710
 8168TIP3    H145919   5.874   0.426   3.183 -1.6338 -1.0246  2.9723
 8168TIP3    H245920   5.901   0.281   3.218  1.4923 -0.7807  1.8515
 8169TIP3   OH245921   2.043   0.418  15.978  0.4936  0.2693 -0.0168
 8169TIP3    H145922   2.053   0.335  15.932 -0.7675 -0.1421  0.4133
 8169TIP3    H245923   2.122   0.468  15.956  0.2980 -0.2185 -1.9620
 8170TIP3   OH245924   2.330   1.022   0.400  0.6399 -0.8594  0.6168
 8170TIP3    H145925   2.262   0.975   0.449  0.6262 -1.4962 -0.0063
 8170TIP3    H245926   2.286   1.053   0.321  0.4678  0.8418  1.3439
 8171TIP3   OH245927   5.142   4.953   0.647  0.0052 -0.2280  0.4470
 8171TIP3    H145928   5.161   4.944   0.553  0.6030 -0.6206  0.5971
 8171TIP3    H245929   5.169   4.869   0.685  1.2614  0.4823  1.1949
 8172TIP3   OH245930   1.686   1.334   4.987 -0.6731  0.4251 -0.1934
 8172TIP3    H145931   1.629   1.399   5.029  0.4118  1.7869 -0.7401
 8172TIP3    H245932   1.734   1.294   5.060 -0.7429  0.8567  0.0976
 8173TIP3   OH245933   2.090   1.840   1.570  0.1478 -0.2647  0.0426
 8173TIP3    H145934   2.029   1.786   1.621  0.7909  0.2518  1.4152
 8173TIP3    H245935   2.123   1.781   1.503  0.6482 -1.5481  1.3537
 8174TIP3   OH245936   6.459   4.739   0.910 -0.1676 -0.3861 -0.2700
 8174TIP3    H145937   6.392   4.759   0.974 -0.9970  0.3165 -1.3168
 8174TIP3    H245938   6.514   4.817   0.908 -0.4872 -0.1709 -0.8181
 8175TIP3   OH245939   4.090   3.761   3.197 -0.3203  0.0281 -0.4559
 8175TIP3    H145940   4.115   3.669   3.188 -0.8682 -0.4032  1.7795
 8175TIP3    H245941   3.994   3.761   3.193 -0.4364  0.1878  1.5337
 8176TIP3   OH245942   1.713   4.621   5.497 -0.2844 -0.3244 -0.2137
 8176TIP3    H145943   1.792   4.605   5.444 -0.4752 -0.8179 -0.3549
 8176TIP3    H245944   1.641   4.618   5.435 -0.5203 -0.9989  0.0828
 8177TIP3   OH245945   3.749   0.739  16.480 -0.4748  0.3680 -0.3091
 8177TIP3    H145946   3.711   0.655  16.506  1.3083  0.3218  2.5668
 8177TIP3    H245947   3.788   0.774  16.560  0.8277  2.9022 -1.9038
 8178TIP3   OH245948   2.373   2.235   2.241 -0.4165 -0.1892 -0.2004
 8178TIP3    H145949   2.442   2.249   2.176  0.9092 -1.7294  0.8085
 8178TIP3    H245950   2.324   2.317   2.241  2.8485  1.9426  0.6990
 8179TIP3   OH245951   3.004   1.750   0.811 -0.4154 -0.8602 -0.9519
 8179TIP3    H145952   2.945   1.678   0.831 -1.8852  0.3649 -0.6654
 8179TIP3    H245953   3.042   1.774   0.895 -0.8580 -0.5348 -0.8400
 8180TIP3   OH245954   1.736   3.627   3.827 -0.2045  0.2342  0.2792
 8180TIP3    H145955   1.723   3.721   3.815 -0.3179  0.2408  0.4545
 8180TIP3    H245956   1.784   3.620   3.910  1.5802  0.2562 -0.7041
 8181TIP3   OH245957   0.960   4.297   2.750  1.0574 -0.2450 -0.1502
 8181TIP3    H145958   1.035   4.354   2.771  1.9496 -0.9752 -1.2240
 8181TIP3    H245959   0.954   4.237   2.824  1.8288 -0.4666 -0.2592
 8182TIP3   OH245960   3.829   6.281   1.736 -0.0582  0.1391  0.3294
 8182TIP3    H145961   3.848   6.276   1.829 -0.7051 -0.8217  0.4229
 8182TIP3    H245962   3.739   6.313   1.731 -0.9169 -2.1047  0.1513
 8183TIP3   OH245963   1.072   0.442  13.959 -0.6169 -0.2285 -0.0642
 8183TIP3    H145964   1.054   0.367  13.902 -0.8933  0.0765 -0.3787
 8183TIP3    H245965   1.028   0.516  13.917  0.5203  0.3228 -0.3214
 8184TIP3   OH245966   0.844   1.558  14.211  0.1515  0.4401  0.0894
 8184TIP3    H145967   0.845   1.489  14.145 -0.6857 -0.1771  0.6967
 8184TIP3    H245968   0.784   1.624  14.175 -0.4789  0.0024  0.3241
 8185TIP3   OH245969   0.331   2.684   0.267 -0.1638 -0.0490 -0.0477
 8185TIP3    H145970   0.347   2.715   0.177 -0.6425 -1.3352 -0.5990
 8185TIP3    H245971   0.339   2.589   0.261  0.5716 -0.0969  1.4505
 8186TIP3   OH245972   1.269   1.689  15.750  0.1856 -0.0483  0.0539
 8186TIP3    H145973   1.262   1.617  15.688 -0.0152 -1.5115  1.7203
 8186TIP3    H245974   1.183   1.694  15.791  1.0198 -0.8295  2.0193
 8187TIP3   OH245975   3.114   0.300   4.935 -0.3841 -0.0448 -0.0162
 8187TIP3    H145976   3.072   0.359   4.998 -0.9495 -0.8038  0.3329
 8187TIP3    H245977   3.202   0.286   4.969 -0.1406  0.8325 -0.2669
 8188TIP3   OH245978   2.834   5.137   4.840  0.2961 -0.2551 -0.1380
 8188TIP3    H145979   2.802   5.226   4.857 -0.3850 -0.8379  1.9007
 8188TIP3    H245980   2.775   5.102   4.774 -0.1672  0.4217 -0.0934
 8189TIP3   OH245981   3.631   6.139  11.942  0.7325 -0.3498  0.0107
 8189TIP3    H145982   3.571   6.084  11.892 -0.5822  0.5476  0.5489
 8189TIP3    H245983   3.596   6.139  12.031  0.8659  1.1010  0.0894
 8190TIP3   OH245984   3.687   1.505   3.798 -0.2634 -0.0842  0.2289
 8190TIP3    H145985   3.640   1.438   3.748 -1.6043  1.7119 -1.0685
 8190TIP3    H245986   3.629   1.523   3.873  0.5019 -0.9238  1.0498
 8191TIP3   OH245987   3.760   2.624  12.370  0.0059  0.2077 -0.3185
 8191TIP3    H145988   3.721   2.675  12.441 -1.3253  0.1644 -0.9957
 8191TIP3    H245989   3.724   2.536  12.381  0.8526 -0.1348 -0.2481
 8192TIP3   OH245990   4.336   6.367   0.347  0.2677  0.8701 -0.1091
 8192TIP3    H145991   4.276   6.303   0.308 -1.3611  1.3063  1.5422
 8192TIP3    H245992   4.348   6.433   0.278 -1.2004  0.7725 -0.5029
 8193TIP3   OH245993   0.476   5.208  13.805 -0.3731  0.2893 -0.1906
 8193TIP3    H145994   0.395   5.157  13.809 -0.1530 -0.0328  0.4025
 8193TIP3    H245995   0.462   5.271  13.735 -1.5117  0.8635  0.5304
 8194TIP3   OH245996   0.519   1.707  11.653  0.3532  0.0216 -0.1164
 8194TIP3    H145997   0.513   1.803  11.654 -1.9662  0.0051 -1.8424
 8194TIP3    H245998   0.428   1.678  11.645  1.0029 -2.3514  0.3098
 8195TIP3   OH245999   3.860   5.157   1.590 -0.0821 -0.0862  0.1599
 8195TIP3    H146000   3.928   5.187   1.530  0.5530  0.0387  0.9211
 8195TIP3    H246001   3.804   5.100   1.537  0.1548  0.4418 -0.6692
 8196TIP3   OH246002   0.018   5.449  15.527  0.0017 -0.1990  0.8903
 8196TIP3    H146003   0.099   5.453  15.476 -1.0861 -0.4536 -0.9496
 8196TIP3    H246004   0.021   5.363  15.569  1.6897  0.6701  2.6796
 8197TIP3   OH246005   5.237   6.436   2.757 -0.2308  0.1339  0.4620
 8197TIP3    H146006   5.220   6.464   2.847 -1.7442  1.2076 -0.1129
 8197TIP3    H246007   5.234   6.516   2.706  1.6534 -0.3208 -0.4531
 8198TIP3   OH246008   3.625   3.783   1.345 -0.2494  0.0675  0.3978
 8198TIP3    H146009   3.705   3.749   1.305  0.8004  0.9209  1.6692
 8198TIP3    H246010   3.606   3.864   1.297 -0.1764  0.0143  0.2799
 8199TIP3   OH246011   5.673   1.036   0.232 -0.2016  0.0369 -0.2083
 8199TIP3    H146012   5.676   0.965   0.168 -1.5119  1.0068 -1.4045
 8199TIP3    H246013   5.746   1.093   0.209  0.4272 -0.5421  0.3178
 8200TIP3   OH246014   5.474   3.643  11.396 -0.0174 -0.0879 -0.0804
 8200TIP3    H146015   5.460   3.672  11.305  0.2309 -1.6217 -0.6261
 8200TIP3    H246016   5.386   3.620  11.427  0.0340 -0.6266 -0.3185
 8201TIP3   OH246017   5.867   6.647  15.816 -0.1423 -0.0993 -0.3200
 8201TIP3    H146018   5.868   6.670  15.909 -0.9602 -1.4111  0.0503
 8201TIP3    H246019   5.959   6.640  15.792  0.0804  0.4666  0.3354
 8202TIP3   OH246020   4.891   0.623  13.790 -0.2377  0.2300  0.0839
 8202TIP3    H146021   4.826   0.646  13.724 -0.7466  0.7901  0.7734
 8202TIP3    H246022   4.973   0.615  13.741 -0.2114  2.5423 -0.3555
 8203TIP3   OH246023   2.995   4.028   1.399 -0.3869 -0.7217 -0.6901
 8203TIP3    H146024   2.967   4.021   1.307 -0.8728 -2.9771 -0.4132
 8203TIP3    H246025   3.091   4.019   1.395 -0.4323 -1.1283 -0.9562
 8204TIP3   OH246026   1.681   6.460   0.187 -0.4139  0.5746 -0.1289
 8204TIP3    H146027   1.619   6.460   0.114 -0.3513 -0.4977 -0.2039
 8204TIP3    H246028   1.721   6.547   0.185 -0.8565  0.7694 -0.9888
 8205TIP3   OH246029   0.862   1.211   2.489 -0.4167  0.1974 -0.2973
 8205TIP3    H146030   0.816   1.166   2.418  0.4236 -1.2826  0.0495
 8205TIP3    H246031   0.872   1.301   2.458 -0.1626 -0.3818 -2.0291
 8206TIP3   OH246032   1.374   0.325  13.537 -0.4484  0.4837  0.3003
 8206TIP3    H146033   1.420   0.346  13.618 -1.5511  1.1932  0.7622
 8206TIP3    H246034   1.350   0.410  13.500 -0.2928  0.1525 -0.5677
 8207TIP3   OH246035   6.285   0.952   6.330  0.9197  0.0746  0.0696
 8207TIP3    H146036   6.294   0.927   6.422  0.5316  0.6289  0.2621
 8207TIP3    H246037   6.357   1.012   6.314  1.4114 -0.5747 -0.1895
 8208TIP3   OH246038   5.812   0.072  13.112  0.0403 -0.3165 -0.2441
 8208TIP3    H146039   5.895   0.117  13.105 -0.0931  0.1237  0.9475
 8208TIP3    H246040   5.822   0.013  13.187 -0.6251 -0.4694 -0.2679
 8209TIP3   OH246041   5.317   1.250  17.198 -0.1854 -0.3853 -0.2041
 8209TIP3    H146042   5.381   1.295  17.142 -0.0731 -0.5282 -0.1919
 8209TIP3    H246043   5.232   1.284  17.169 -0.0125  1.1642  0.9899
 8210TIP3   OH246044   3.352   1.855  15.619  0.1806  0.6650 -0.4973
 8210TIP3    H146045   3.318   1.822  15.536 -2.4166  1.3684  0.2049
 8210TIP3    H246046   3.438   1.890  15.597 -0.2241  0.3801 -2.7790
 8211TIP3   OH246047   3.894   3.701   1.644 -0.4424 -0.1992  0.0117
 8211TIP3    H146048   3.897   3.708   1.739 -1.4553 -1.2114  0.1298
 8211TIP3    H246049   3.978   3.738   1.615  0.2391 -0.6435  1.3371
 8212TIP3   OH246050   4.490   5.270   3.282  0.2112 -0.0794 -1.0889
 8212TIP3    H146051   4.401   5.275   3.319 -0.3574 -0.1288 -2.3723
 8212TIP3    H246052   4.516   5.362   3.272  0.8625 -0.0574  0.4848
 8213TIP3   OH246053   5.183   1.675   0.513 -0.4523 -0.2661 -0.1664
 8213TIP3    H146054   5.125   1.693   0.439  2.0546  3.4396 -1.5065
 8213TIP3    H246055   5.155   1.736   0.582  1.5169  1.4109 -0.7491
 8214TIP3   OH246056   6.517   1.936   0.830 -0.7656  0.0037 -0.4133
 8214TIP3    H146057   6.507   1.869   0.763 -3.1108  1.6963 -1.8821
 8214TIP3    H246058   6.573   2.003   0.789 -0.5909  0.1629  0.0720
 8215TIP3   OH246059   6.577   3.226  17.211  0.0286  0.9194  0.1401
 8215TIP3    H146060   6.526   3.158  17.254  1.4764  0.9249  1.9563
 8215TIP3    H246061   6.577   3.201  17.118 -0.1867 -1.0663  0.6488
 8216TIP3   OH246062   5.215   5.682   5.084 -0.1302  0.1924 -0.1277
 8216TIP3    H146063   5.305   5.673   5.054  0.2019  0.0967  0.8593
 8216TIP3    H246064   5.190   5.594   5.112  0.0667  0.5436  1.1991
 8217TIP3   OH246065   2.408   5.242  10.874  0.6084  0.1514 -0.2769
 8217TIP3    H146066   2.472   5.209  10.937 -0.3374 -1.2065  0.0138
 8217TIP3    H246067   2.347   5.293  10.927  0.6953  0.3154 -0.3359
 8218TIP3   OH246068   1.061   3.623   6.670 -0.1363 -0.8672  0.8056
 8218TIP3    H146069   0.994   3.656   6.730  0.4818 -0.9545  1.5615
 8218TIP3    H246070   1.143   3.661   6.703  0.1562 -0.5231 -0.2743
 8219TIP3   OH246071   6.745   4.259   0.372  0.1100  0.4577 -0.3496
 8219TIP3    H146072   6.730   4.185   0.431  1.4789 -0.6378 -1.3079
 8219TIP3    H246073   6.657   4.286   0.345 -0.4016 -1.4170 -0.6835
 8220TIP3   OH246074   6.682   4.733   5.321  0.4326  0.2130 -0.7417
 8220TIP3    H146075   6.746   4.671   5.355 -0.0226  0.4577  0.6076
 8220TIP3    H246076   6.727   4.818   5.322  0.4354  0.2129 -0.8103
 8221TIP3   OH246077   5.484   1.875   0.794 -0.4292  0.3718 -0.1317
 8221TIP3    H146078   5.555   1.919   0.840 -0.0868 -0.1436 -0.1529
 8221TIP3    H246079   5.490   1.908   0.704  0.3227 -0.2809 -0.3403
 8222TIP3   OH246080   1.440   5.186  15.624  0.0848  0.1658  0.2372
 8222TIP3    H146081   1.534   5.203  15.617  0.1037 -0.0980 -0.2310
 8222TIP3    H246082   1.410   5.180  15.533 -0.2498 -0.4728  0.3809
 8223TIP3   OH246083   1.351   6.522   6.214 -0.0411 -0.0425 -0.2976
 8223TIP3    H146084   1.407   6.579   6.162 -1.3901 -0.7807 -2.6996
 8223TIP3    H246085   1.277   6.577   6.240 -0.9976 -0.4453 -2.0301
 8224TIP3   OH246086   3.805   0.647  10.652  0.6469 -0.0843 -0.3665
 8224TIP3    H146087   3.754   0.682  10.580  0.2303  0.0401 -0.0137
 8224TIP3    H246088   3.800   0.552  10.641 -0.2467 -0.0996  0.0575
 8225TIP3   OH246089   0.435   1.476   1.974 -0.6018 -0.0783 -0.4911
 8225TIP3    H146090   0.438   1.572   1.974 -4.5193  0.2074 -1.7669
 8225TIP3    H246091   0.353   1.454   2.018 -1.6008 -2.5931 -3.2597
 8226TIP3   OH246092   6.166   4.793   1.723 -0.2931  0.5462  0.5008
 8226TIP3    H146093   6.166   4.877   1.677  3.7784  1.0738  1.0907
 8226TIP3    H246094   6.237   4.801   1.787 -0.6404 -2.9018  1.5251
 8227TIP3   OH246095   6.447   3.011  12.664 -0.8696  0.0855 -0.0929
 8227TIP3    H146096   6.371   2.954  12.673 -1.2941  0.6552 -0.0545
 8227TIP3    H246097   6.411   3.099  12.655 -0.3587  0.1132 -2.9267
 8228TIP3   OH246098   5.848   2.146  17.181  0.9501  0.2197  0.0827
 8228TIP3    H146099   5.880   2.216  17.126  0.7958 -0.1621 -0.5009
 8228TIP3    H246100   5.754   2.140  17.162  0.4944  1.3103  1.7554
 8229TIP3   OH246101   2.625   0.393  16.403 -0.2343 -0.7742 -0.1412
 8229TIP3    H146102   2.574   0.457  16.353 -0.5656 -0.9695 -0.0602
 8229TIP3    H246103   2.716   0.419  16.390 -0.4112  0.4813  0.9498
 8230TIP3   OH246104   1.641   1.115  12.588 -0.1026 -0.2543  0.3115
 8230TIP3    H146105   1.724   1.147  12.623  1.3509 -0.1731 -2.8386
 8230TIP3    H246106   1.633   1.160  12.503 -0.0524 -4.9146 -2.4717
 8231TIP3   OH246107   0.359   3.812   2.557 -0.3534 -0.4147  0.4021
 8231TIP3    H146108   0.330   3.897   2.525 -0.1573  0.9084  3.4435
 8231TIP3    H246109   0.405   3.831   2.639  3.4028 -3.0448 -0.7981
 8232TIP3   OH246110   0.763   1.684   0.576 -0.6651  0.1254  0.1550
 8232TIP3    H146111   0.745   1.621   0.647  0.4137 -1.3357 -0.8106
 8232TIP3    H246112   0.858   1.682   0.566 -0.8430 -0.2392 -1.7915
 8233TIP3   OH246113   4.618   0.283  12.579 -0.3073 -0.0056  0.8388
 8233TIP3    H146114   4.534   0.268  12.535 -0.6138 -0.8328  1.6814
 8233TIP3    H246115   4.682   0.235  12.526 -0.3333  0.6844  0.1547
 8234TIP3   OH246116   3.604   5.361   3.708  0.0085  0.5367 -0.2071
 8234TIP3    H146117   3.615   5.431   3.772  0.8966  0.0844  0.1499
 8234TIP3    H246118   3.512   5.335   3.717  0.5768 -0.9268  2.4103
 8235TIP3   OH246119   6.363   4.459   0.563  0.1582  1.1845 -0.1082
 8235TIP3    H146120   6.453   4.477   0.592  0.0270 -0.9706  1.8825
 8235TIP3    H246121   6.370   4.381   0.509 -0.7191 -0.5342  2.1096
 8236TIP3   OH246122   0.112   2.601   5.141 -0.8780 -0.3439 -0.1472
 8236TIP3    H146123   0.057   2.670   5.103  0.9763  1.9170  1.0190
 8236TIP3    H246124   0.055   2.524   5.144 -3.2616  1.2728 -0.9595
 8237TIP3   OH246125   6.193   3.271   3.369 -0.0101  0.1848 -0.3459
 8237TIP3    H146126   6.278   3.274   3.413 -0.7841 -2.6191  1.5750
 8237TIP3    H246127   6.151   3.354   3.392  0.9013  0.1576  1.5614
 8238TIP3   OH246128   0.109   0.979   3.305 -0.8008  0.0654  0.3116
 8238TIP3    H146129   0.137   1.022   3.225 -0.4117 -2.4149 -0.9896
 8238TIP3    H246130   0.154   1.026   3.375  1.1515  0.5286 -1.1714
 8239TIP3   OH246131   0.730   5.305   3.624 -0.2570  0.2749 -0.4173
 8239TIP3    H146132   0.790   5.325   3.552 -1.0425  1.2025 -0.8334
 8239TIP3    H246133   0.680   5.386   3.637 -1.6861 -0.5762 -0.3499
 8240TIP3   OH246134   5.400   0.991  17.080  0.5704  0.4284 -0.4721
 8240TIP3    H146135   5.430   1.026  16.997 -1.0498  0.1467 -1.2213
 8240TIP3    H246136   5.375   1.069  17.131  0.3397  0.5370 -0.7499
 8241TIP3   OH246137   4.685   2.704  14.220 -0.0135 -0.0027  0.2644
 8241TIP3    H146138   4.766   2.714  14.270  0.1982 -0.6483  0.0555
 8241TIP3    H246139   4.639   2.632  14.263 -1.1195  1.2143  1.2234
 8242TIP3   OH246140   0.953   3.074   0.119  0.4063 -0.0936  0.1059
 8242TIP3    H146141   1.038   3.043   0.087  1.3121  0.6972  1.6546
 8242TIP3    H246142   0.970   3.105   0.208 -1.5492 -0.0829  0.5331
 8243TIP3   OH246143   4.433   1.984  11.920  0.2839  0.3980  0.7177
 8243TIP3    H146144   4.404   2.074  11.906  0.2958  0.2881 -0.0728
 8243TIP3    H246145   4.394   1.959  12.003 -0.5584  0.7948  0.4557
 8244TIP3   OH246146   2.224   0.051  12.971 -0.6310 -0.5273  0.4292
 8244TIP3    H146147   2.308   0.022  13.006  0.3331  2.5010  0.9895
 8244TIP3    H246148   2.168   0.062  13.048 -0.4771  0.4147  0.4242
 8245TIP3   OH246149   0.717   1.406  14.419 -0.2766 -0.3213  0.5715
 8245TIP3    H146150   0.666   1.335  14.380  2.1997 -2.2595  0.6220
 8245TIP3    H246151   0.741   1.462  14.345  1.4341 -2.0384 -0.2560
 8246TIP3   OH246152   5.628   2.717   0.532  0.0164  0.2384 -0.4044
 8246TIP3    H146153   5.670   2.706   0.447  0.3468 -1.5836 -0.0381
 8246TIP3    H246154   5.680   2.664   0.592  0.0631  1.8441  1.0610
 8247TIP3   OH246155   1.672   0.666  11.490  0.0626 -0.7859  0.2500
 8247TIP3    H146156   1.718   0.697  11.411  1.1802 -1.1343  0.7393
 8247TIP3    H246157   1.582   0.651  11.460  1.1833 -4.3623 -1.9656
 8248TIP3   OH246158   4.467   0.429   0.198  0.4686 -0.3125 -0.4651
 8248TIP3    H146159   4.511   0.390   0.123  0.5544 -2.5403  0.6628
 8248TIP3    H246160   4.417   0.357   0.237 -2.4063  1.5848 -0.3596
 8249TIP3   OH246161   5.251   4.663  15.038  0.5806  0.3126  0.3918
 8249TIP3    H146162   5.251   4.759  15.042  0.0605  0.3422 -0.2187
 8249TIP3    H246163   5.262   4.635  15.129  1.7848  0.9511  0.4644
 8250TIP3   OH246164   1.469   1.565   4.812  0.1544 -0.0346 -0.6691
 8250TIP3    H146165   1.501   1.476   4.829  0.6530  0.3021  0.1933
 8250TIP3    H246166   1.536   1.604   4.756 -0.3147 -0.3563 -1.4753
 8251TIP3   OH246167   4.760   4.864  15.382 -0.7528  0.1330 -0.0522
 8251TIP3    H146168   4.732   4.934  15.322  0.7175  0.6686 -0.1398
 8251TIP3    H246169   4.678   4.823  15.410 -1.5654  0.9827 -1.0920
 8252TIP3   OH246170   2.538   0.933   3.640 -0.1678 -0.1780 -0.2592
 8252TIP3    H146171   2.585   0.949   3.722 -1.3636 -0.7441  0.5593
 8252TIP3    H246172   2.553   1.013   3.589  4.1981 -1.4260 -1.3668
 8253TIP3   OH246173   5.721   5.827   0.799 -0.4397  0.0199  0.1183
 8253TIP3    H146174   5.693   5.743   0.835 -1.1193 -0.7680 -2.0469
 8253TIP3    H246175   5.684   5.892   0.858 -2.1042 -1.1623  0.4637
 8254TIP3   OH246176   1.268   4.021   4.026 -0.4698 -0.0621 -0.2889
 8254TIP3    H146177   1.268   4.056   4.115 -0.7011  0.2305 -0.3997
 8254TIP3    H246178   1.360   4.012   4.003 -0.3736 -1.8945  0.6529
 8255TIP3   OH246179   2.606   2.521   2.697  0.3393  0.0026 -0.3115
 8255TIP3    H146180   2.589   2.430   2.720 -1.6175  0.1559 -1.0463
 8255TIP3    H246181   2.578   2.529   2.606  1.3150  1.1466 -0.5391
 8256TIP3   OH246182   4.485   2.133  11.251  0.1000 -0.4093  0.0044
 8256TIP3    H146183   4.505   2.108  11.341  1.6896  3.2647  0.8386
 8256TIP3    H246184   4.427   2.208  11.259  0.2706  0.0043 -2.0257
 8257TIP3   OH246185   4.258   5.683  14.084 -0.3108 -0.3981  0.7286
 8257TIP3    H146186   4.240   5.761  14.138 -0.1357 -0.0287  0.2612
 8257TIP3    H246187   4.347   5.658  14.108 -0.0725  0.0234  0.3102
 8258TIP3   OH246188   6.644   2.249  17.139 -0.6591 -0.0842  0.2560
 8258TIP3    H146189   6.617   2.162  17.109 -0.4437 -0.3342  0.7745
 8258TIP3    H246190   6.736   2.238  17.164 -1.2990 -0.3273  2.6572
 8259TIP3   OH246191   6.716   6.308  14.827 -0.2945  0.5002  0.1617
 8259TIP3    H146192   6.787   6.371  14.834  0.4488 -0.2611 -0.3065
 8259TIP3    H246193   6.648   6.353  14.777  1.5155 -0.1107 -3.1455
 8260TIP3   OH246194   6.530   4.163  13.804 -0.2514  0.0431  0.1696
 8260TIP3    H146195   6.556   4.161  13.897  0.2191  1.2063  0.0832
 8260TIP3    H246196   6.438   4.188  13.806  0.2377  2.0794  0.3040
 8261TIP3   OH246197   0.215   5.875   2.734  0.2397  0.4537 -0.4497
 8261TIP3    H146198   0.180   5.922   2.657  0.5117 -1.8246 -2.0664
 8261TIP3    H246199   0.306   5.856   2.711  0.6299  0.6172  0.9047
 8262TIP3   OH246200   5.627   4.015  16.846 -1.0901  0.0016  0.0081
 8262TIP3    H146201   5.674   3.969  16.916 -0.1499 -1.1655 -1.3243
 8262TIP3    H246202   5.628   4.107  16.872  0.6677 -0.1929  0.7548
 8263TIP3   OH246203   2.382   2.284   1.756  0.3967 -0.5675  0.7785
 8263TIP3    H146204   2.344   2.216   1.700 -0.4411  0.1649  0.4396
 8263TIP3    H246205   2.360   2.366   1.713  1.9734 -0.0775  0.8270
 8264TIP3   OH246206   5.069   1.402  12.395  0.2292 -0.2446 -0.0273
 8264TIP3    H146207   4.999   1.355  12.439 -1.1104  1.2836 -0.4351
 8264TIP3    H246208   5.051   1.391  12.302 -0.8217  1.9627 -0.1514
 8265TIP3   OH246209   4.767   3.337   3.998  0.1001  0.3354 -0.3088
 8265TIP3    H146210   4.783   3.243   4.001  0.9093  0.4648 -0.1286
 8265TIP3    H246211   4.810   3.371   4.077 -0.6348  0.7937 -0.0989
 8266TIP3   OH246212   3.196   6.236  15.688  0.3513  0.5194 -0.4374
 8266TIP3    H146213   3.110   6.271  15.665 -0.7388 -0.8542  1.2646
 8266TIP3    H246214   3.253   6.313  15.690 -1.4950  1.9769  1.2627
 8267TIP3   OH246215   3.326   4.596   2.188 -0.3510  0.3435  0.1117
 8267TIP3    H146216   3.383   4.525   2.158 -1.2036 -0.5387  0.5189
 8267TIP3    H246217   3.372   4.676   2.163  0.4863 -0.3501 -0.6346
 8268TIP3   OH246218   6.344   1.099   6.056 -0.1766  0.2541 -0.0410
 8268TIP3    H146219   6.414   1.049   6.014 -0.6836 -0.0067 -0.5840
 8268TIP3    H246220   6.382   1.126   6.140  0.7582  0.5614 -0.5417
 8269TIP3   OH246221   3.918   4.553   1.986  0.5009  0.0827 -0.6189
 8269TIP3    H146222   3.967   4.605   1.923  2.0159  0.5598  0.8820
 8269TIP3    H246223   3.904   4.613   2.060 -0.5936 -0.6726 -0.1988
 8270TIP3   OH246224   4.575   2.978  15.326 -0.1006  0.3987  0.4193
 8270TIP3    H146225   4.483   3.000  15.343 -0.6784  0.1630 -1.9809
 8270TIP3    H246226   4.571   2.912  15.257  1.8853  0.4051  0.2459
 8271TIP3   OH246227   1.775   1.103   0.829  0.5852  0.9972  0.2354
 8271TIP3    H146228   1.838   1.114   0.899  0.1626 -1.3670  1.0556
 8271TIP3    H246229   1.693   1.079   0.873  0.6919 -2.1476 -1.0372
 8272TIP3   OH246230   2.446   0.447  15.950  0.2545  0.0629  0.4455
 8272TIP3    H146231   2.381   0.390  15.992  1.0702 -1.7902 -0.6824
 8272TIP3    H246232   2.413   0.459  15.861  1.6681 -1.3609 -0.3137
 8273TIP3   OH246233   4.091   4.868   4.438  0.1615 -0.6815  0.2772
 8273TIP3    H146234   4.163   4.885   4.500 -1.4521  1.9267  1.6467
 8273TIP3    H246235   4.012   4.889   4.488 -1.2383  1.9963 -2.6927
 8274TIP3   OH246236   6.309   3.152   3.100 -0.1204  0.6225  0.6148
 8274TIP3    H146237   6.393   3.132   3.141 -0.0827  1.0407  0.7439
 8274TIP3    H246238   6.244   3.128   3.166 -0.1756 -0.9063  0.0500
 8275TIP3   OH246239   4.336   0.889  13.738  0.3234  0.8334 -0.3397
 8275TIP3    H146240   4.318   0.954  13.806  1.5215 -1.5845  2.5340
 8275TIP3    H246241   4.376   0.939  13.667  0.9663  3.2871  1.6003
 8276TIP3   OH246242   4.547   4.654  16.397  0.3630 -0.4841 -0.1355
 8276TIP3    H146243   4.575   4.618  16.481  0.2965  0.7194  0.4203
 8276TIP3    H246244   4.460   4.692  16.414  0.1703 -0.5833 -0.8452
 8277TIP3   OH246245   1.917   3.067   2.621  0.0143 -0.1530  0.7626
 8277TIP3    H146246   1.824   3.085   2.638 -1.0843 -0.7780 -3.4446
 8277TIP3    H246247   1.917   2.979   2.582  1.9375  0.9630 -1.9630
 8278TIP3   OH246248   4.036   0.344  10.855  0.0066  0.2569  0.2480
 8278TIP3    H146249   4.020   0.342  10.761  1.3245  0.1637  0.0087
 8278TIP3    H246250   4.020   0.435  10.880 -0.5844  0.2282 -0.0223
 8279TIP3   OH246251   0.877   1.555  15.271 -0.1372 -0.0565  0.6218
 8279TIP3    H146252   0.890   1.503  15.192  1.3841 -0.1322  0.8852
 8279TIP3    H246253   0.959   1.603  15.282 -1.2834  1.9621  0.7268
 8280TIP3   OH246254   0.696   6.377  12.750  0.1431 -0.7382 -0.6053
 8280TIP3    H146255   0.711   6.434  12.675 -2.8640  1.9445  0.5930
 8280TIP3    H246256   0.616   6.329  12.729 -0.5426 -0.2154  0.6326
 8281TIP3   OH246257   0.608   1.729   3.048  0.0430  0.5409 -0.0749
 8281TIP3    H146258   0.677   1.794   3.060 -0.5059  1.0093  0.6219
 8281TIP3    H246259   0.543   1.771   2.993  0.3549  0.0588 -0.8242
 8282TIP3   OH246260   4.302   0.960   4.423 -0.4859  0.0983  0.1029
 8282TIP3    H146261   4.291   1.029   4.489  0.4411 -0.0229  0.3920
 8282TIP3    H246262   4.280   1.003   4.340  0.7815  0.9627  0.1915
 8283TIP3   OH246263   5.477   0.561   4.633  0.1005 -0.0708  0.3053
 8283TIP3    H146264   5.455   0.644   4.591 -0.1818  0.2769  1.1094
 8283TIP3    H246265   5.556   0.580   4.685 -0.0748 -0.2493  0.6435
 8284TIP3   OH246266   3.216   2.019  11.019 -0.8796  0.1757 -0.3910
 8284TIP3    H146267   3.213   2.081  10.945  0.6619  0.8495  0.0731
 8284TIP3    H246268   3.154   1.950  10.994  0.0559  0.0389 -2.6419
 8285TIP3   OH246269   2.908   6.687  15.618 -0.2362  0.5831 -0.5687
 8285TIP3    H146270   2.952   6.769  15.638 -2.0233  1.2502  0.9185
 8285TIP3    H246271   2.817   6.712  15.602 -0.5417 -0.9699 -1.5125
 8286TIP3   OH246272   5.417   2.019  12.763 -0.3107  0.3810 -0.3137
 8286TIP3    H146273   5.379   1.945  12.715 -0.1611 -2.2457  3.2614
 8286TIP3    H246274   5.511   1.999  12.767 -0.2938  0.6373  0.8392
 8287TIP3   OH246275   5.529   6.582   6.182 -0.3193 -0.0521 -0.5921
 8287TIP3    H146276   5.510   6.504   6.234  0.3156 -0.6477 -1.2443
 8287TIP3    H246277   5.552   6.549   6.095 -0.6346  0.8929 -1.0486
 8288TIP3   OH246278   3.734   0.039  13.334 -0.1547 -0.5327  0.0238
 8288TIP3    H146279   3.799   0.047  13.264  0.1619 -0.7856  0.2864
 8288TIP3    H246280   3.777   0.078  13.411 -0.2247 -0.9030  0.2532
 8289TIP3   OH246281   2.146   1.328  14.793 -0.4008 -0.1465 -0.4081
 8289TIP3    H146282   2.180   1.379  14.719  1.9513  0.5760  1.0691
 8289TIP3    H246283   2.161   1.383  14.869  0.5991 -2.2568  1.0410
 8290TIP3   OH246284   0.480   2.275  16.708  0.2496 -0.1351  0.2939
 8290TIP3    H146285   0.395   2.311  16.681 -0.3591 -1.8979 -0.2982
 8290TIP3    H246286   0.461   2.224  16.787  1.2317  1.4181  1.5764
 8291TIP3   OH246287   4.787   6.566  11.781  0.5032  0.0065 -0.4728
 8291TIP3    H146288   4.868   6.530  11.745 -0.3056 -1.3940 -0.9976
 8291TIP3    H246289   4.771   6.645  11.729  0.9515 -0.3325 -1.1469
 8292TIP3   OH246290   5.555   1.546  12.676 -0.0252  0.1129 -0.5399
 8292TIP3    H146291   5.598   1.492  12.742  0.0361 -0.0620 -0.7189
 8292TIP3    H246292   5.627   1.584  12.625 -0.0618 -1.5337 -1.9247
 8293TIP3   OH246293   2.101   5.765   2.837  0.1823  0.8166  0.2498
 8293TIP3    H146294   2.185   5.809   2.830 -0.4458  2.0905  0.3897
 8293TIP3    H246295   2.039   5.825   2.796 -0.8405  0.4838  1.2410
 8294TIP3   OH246296   0.650   3.435   2.993 -0.1187 -0.0801  0.5412
 8294TIP3    H146297   0.700   3.372   2.940  0.9872 -0.4132  1.9053
 8294TIP3    H246298   0.681   3.520   2.963  1.8354 -0.2859  1.7886
 8295TIP3   OH246299   5.230   5.148  14.306 -0.0801 -0.3929 -0.0936
 8295TIP3    H146300   5.232   5.071  14.364  3.4138 -1.1738 -1.0020
 8295TIP3    H246301   5.191   5.116  14.225  1.3107 -1.3172 -0.4511
 8296TIP3   OH246302   3.898   4.071   2.717 -0.1854  0.6074  0.4493
 8296TIP3    H146303   3.916   4.161   2.746  0.5242  0.3345  0.8629
 8296TIP3    H246304   3.969   4.019   2.754  0.2092  0.0823 -0.9759
 8297TIP3   OH246305   4.708   1.266   1.594 -0.1232 -0.3014 -0.1139
 8297TIP3    H146306   4.664   1.220   1.665  1.3511 -1.0925  0.3222
 8297TIP3    H246307   4.727   1.353   1.629 -1.6076  0.1747 -0.4315
 8298TIP3   OH246308   1.678   6.027   5.193 -0.2176 -0.5224  0.1629
 8298TIP3    H146309   1.626   6.097   5.233 -0.7030  0.0486 -1.4033
 8298TIP3    H246310   1.629   6.003   5.114  0.8045 -1.4753 -0.2061
 8299TIP3   OH246311   5.316   4.698   5.539 -0.4690 -0.9068  0.0828
 8299TIP3    H146312   5.249   4.763   5.563 -0.0513 -0.7274  0.7951
 8299TIP3    H246313   5.276   4.614   5.559 -0.7390 -0.8401 -0.1583
 8300TIP3   OH246314   4.682   1.845  14.933 -0.0686 -0.2301 -0.2922
 8300TIP3    H146315   4.682   1.752  14.909 -0.0388 -0.4769  0.6301
 8300TIP3    H246316   4.769   1.877  14.907  0.7201 -0.9816  1.2760
 8301TIP3   OH246317   5.654   6.300   5.484 -0.0500  0.3449 -0.2474
 8301TIP3    H146318   5.656   6.288   5.389 -0.0922  1.4954 -0.4138
 8301TIP3    H246319   5.601   6.379   5.497  0.3937  0.5054  0.6956
 8302TIP3   OH246320   0.895   2.795   1.685 -0.3660  0.7954 -0.2693
 8302TIP3    H146321   0.854   2.773   1.769  0.4257  1.1667  0.2312
 8302TIP3    H246322   0.916   2.888   1.693  1.3362  0.4494 -0.1452
 8303TIP3   OH246323   4.702   6.324  17.131 -0.3750  0.1586  0.7904
 8303TIP3    H146324   4.782   6.351  17.086  0.3856  0.6314  2.3534
 8303TIP3    H246325   4.646   6.290  17.062  1.3944 -0.7165 -0.2996
 8304TIP3   OH246326   5.783   0.663   0.872  0.4269 -0.3024 -0.1563
 8304TIP3    H146327   5.693   0.647   0.842  0.3135  0.2209 -0.1045
 8304TIP3    H246328   5.800   0.592   0.934 -1.1260  1.3129  2.3331
 8305TIP3   OH246329   3.980   5.233   1.834  0.0462  0.2871  0.1888
 8305TIP3    H146330   3.975   5.328   1.831  1.3946  0.3538 -0.8765
 8305TIP3    H246331   3.960   5.204   1.745 -0.4231 -0.4445  0.5164
 8306TIP3   OH246332   4.924   2.867  17.130 -0.1693 -0.2011 -0.2210
 8306TIP3    H146333   4.992   2.811  17.093  0.4642  0.7123 -0.4627
 8306TIP3    H246334   4.877   2.902  17.054  0.5793  0.9894 -0.1569
 8307TIP3   OH246335   0.067   2.958   1.277 -0.0828  0.1428  0.1931
 8307TIP3    H146336   0.012   3.012   1.333 -0.3136 -1.0232  1.1383
 8307TIP3    H246337   0.007   2.917   1.215 -0.0801  0.0706  0.2369
 8308TIP3   OH246338   6.329   1.666  11.468 -0.0876 -0.0968  0.5115
 8308TIP3    H146339   6.289   1.726  11.531 -0.1070 -0.4684  0.8574
 8308TIP3    H246340   6.256   1.615  11.434 -0.1276  0.3640 -0.1004
 8309TIP3   OH246341   1.979   3.224   3.833 -0.0858  0.4662 -0.4230
 8309TIP3    H146342   1.964   3.212   3.927  0.5449 -1.1413 -0.4956
 8309TIP3    H246343   1.906   3.180   3.791  0.2619  0.1399 -0.6905
 8310TIP3   OH246344   0.106   6.073  13.983  0.9619 -0.0789  0.5692
 8310TIP3    H146345   0.195   6.041  13.965  0.5042  0.0082 -2.3123
 8310TIP3    H246346   0.060   5.995  14.016  1.9342 -0.2492  1.6097
 8311TIP3   OH246347   5.439   1.576   1.911 -0.2307  0.0812  0.0097
 8311TIP3    H146348   5.418   1.567   2.004  0.6136 -1.6942  0.0697
 8311TIP3    H246349   5.423   1.489   1.874  0.2367  0.5421 -1.3487
 8312TIP3   OH246350   4.388   2.819   3.674  0.1407  0.0620  0.2192
 8312TIP3    H146351   4.312   2.771   3.640 -0.0554  0.3691  0.2228
 8312TIP3    H246352   4.442   2.751   3.714 -1.0959  0.0666  2.0355
 8313TIP3   OH246353   6.159   2.029  14.779 -0.7036  0.4251 -0.2539
 8313TIP3    H146354   6.167   2.028  14.684  4.1560 -0.3807 -0.1168
 8313TIP3    H246355   6.070   2.058  14.796 -2.2465 -0.7175 -5.0080
 8314TIP3   OH246356   1.647   0.483   3.848  0.2704  0.1022 -0.1153
 8314TIP3    H146357   1.730   0.435   3.851 -0.0070 -0.3245  1.1431
 8314TIP3    H246358   1.651   0.532   3.766  1.6831 -0.0612 -0.1704
 8315TIP3   OH246359   5.756   1.399  14.912 -0.5226 -0.0011 -0.0261
 8315TIP3    H146360   5.755   1.469  14.848 -1.8050  0.9072  0.9510
 8315TIP3    H246361   5.837   1.351  14.893  2.2339  3.6289  1.3061
 8316TIP3   OH246362   0.299   0.104   3.624 -0.5102  0.4893 -0.1305
 8316TIP3    H146363   0.368   0.141   3.679  0.2357 -1.2779  0.1658
 8316TIP3    H246364   0.327   0.124   3.535  0.5555 -0.4294 -0.0270
 8317TIP3   OH246365   4.549   5.066  15.972 -0.4336  0.2572  0.0164
 8317TIP3    H146366   4.636   5.029  15.954 -0.2256  0.9883 -0.5281
 8317TIP3    H246367   4.523   5.026  16.055 -0.8310 -2.1887 -1.1633
 8318TIP3   OH246368   5.329   5.846   3.946  0.0824  0.0674  0.2283
 8318TIP3    H146369   5.270   5.771   3.944  0.8443 -0.5556 -2.5389
 8318TIP3    H246370   5.280   5.916   3.902  0.2305  0.5185  0.7709
 8319TIP3   OH246371   0.983   0.916  15.972  0.0307  0.8214 -0.2635
 8319TIP3    H146372   0.935   0.855  16.027 -0.3255 -1.2173 -2.6674
 8319TIP3    H246373   0.970   1.001  16.014 -2.6228 -0.1815  1.1604
 8320TIP3   OH246374   4.636   5.980  12.227 -0.1990 -0.3040 -0.3933
 8320TIP3    H146375   4.636   6.065  12.270 -0.6494 -1.1926  1.4517
 8320TIP3    H246376   4.729   5.956  12.221  0.0817  1.0157 -2.5129
 8321TIP3   OH246377   5.936   6.440   1.649 -0.3590 -0.0344  0.0285
 8321TIP3    H146378   5.907   6.385   1.721  0.2132 -3.7517 -2.2920
 8321TIP3    H246379   5.858   6.453   1.595 -0.0047 -0.8657 -0.7256
 8322TIP3   OH246380   2.631   2.509  15.025  0.2933  0.1568 -0.2240
 8322TIP3    H146381   2.579   2.583  14.993 -0.0170  0.2903  0.5509
 8322TIP3    H246382   2.692   2.490  14.954 -0.4191  0.3829 -0.9165
 8323TIP3   OH246383   5.703   5.059   5.187 -0.2202  0.5244  0.0808
 8323TIP3    H146384   5.701   5.139   5.134  0.2146 -0.0359 -0.7969
 8323TIP3    H246385   5.783   5.066   5.238 -0.0174  0.4976 -0.2335
 8324TIP3   OH246386   0.240   1.160   3.454  0.1778 -0.0879 -0.2455
 8324TIP3    H146387   0.194   1.243   3.458  1.2629  0.5817 -1.1133
 8324TIP3    H246388   0.276   1.147   3.542 -1.7246 -0.6929  0.4819
 8325TIP3   OH246389   0.948   1.152  12.384 -0.2373  0.0466 -0.2042
 8325TIP3    H146390   1.030   1.186  12.347 -0.1900  0.3018  0.1364
 8325TIP3    H246391   0.903   1.229  12.417  0.6589 -0.3673  2.1565
 8326TIP3   OH246392   3.785   3.035  15.183 -0.3177 -0.7669 -0.1346
 8326TIP3    H146393   3.775   3.011  15.091  0.0974 -0.6527 -0.2107
 8326TIP3    H246394   3.770   3.129  15.186  0.6118 -0.6051 -0.2385
 8327TIP3   OH246395   2.460   1.107  11.817  0.0755  0.2230  0.2028
 8327TIP3    H146396   2.402   1.078  11.888 -2.0635  1.4807 -0.9546
 8327TIP3    H246397   2.441   1.047  11.745  0.7150  0.2497  0.0084
 8328TIP3   OH246398   2.661   3.028   0.188  0.2731  0.0814  0.0950
 8328TIP3    H146399   2.626   3.052   0.103 -0.1448  0.9637  0.4987
 8328TIP3    H246400   2.584   3.026   0.246  0.3926 -1.5772  0.2331
 8329TIP3   OH246401   6.040   5.267   1.355  0.2796  0.1563  0.2839
 8329TIP3    H146402   6.009   5.330   1.421 -0.1208 -0.0713  0.3141
 8329TIP3    H246403   6.111   5.313   1.310  2.4294 -0.6332  2.6528
 8330TIP3   OH246404   3.733   6.545   0.250  0.5686  0.5528 -0.4571
 8330TIP3    H146405   3.647   6.587   0.248 -0.0006 -0.5960 -1.4564
 8330TIP3    H246406   3.758   6.546   0.342 -0.5378  0.8536 -0.1424
 8331TIP3   OH246407   0.250   4.374  12.789 -0.3820  0.2726 -0.2154
 8331TIP3    H146408   0.280   4.285  12.809  0.3325  0.4905 -0.2746
 8331TIP3    H246409   0.300   4.430  12.849  0.3789  0.7674 -1.2653
 8332TIP3   OH246410   4.508   2.312   0.371  0.5441  0.1449 -0.1987
 8332TIP3    H146411   4.575   2.287   0.435 -1.7008 -2.6334  1.2855
 8332TIP3    H246412   4.497   2.235   0.317 -0.3374  1.1224 -1.4607
 8333TIP3   OH246413   3.726   0.232  13.821 -0.4088 -0.0788  0.0806
 8333TIP3    H146414   3.813   0.231  13.780 -0.1160  0.3885  0.6552
 8333TIP3    H246415   3.674   0.170  13.771  0.3160 -0.5003 -0.1647
 8334TIP3   OH246416   6.165   4.519  17.058 -0.2942  1.1084  0.0046
 8334TIP3    H146417   6.175   4.591  16.995  1.1227  0.6501 -0.3512
 8334TIP3    H246418   6.227   4.453  17.027 -2.6942 -0.9791 -0.6305
 8335TIP3   OH246419   5.692   6.002   4.731 -0.1122  0.3601 -0.3539
 8335TIP3    H146420   5.687   6.062   4.805  4.2073  0.6641 -0.0647
 8335TIP3    H246421   5.667   5.917   4.767  0.1667  0.8177  0.9772
 8336TIP3   OH246422   2.961   4.288  14.763 -0.1943 -0.1885 -0.1395
 8336TIP3    H146423   2.895   4.226  14.733  0.8486 -2.4021  1.8337
 8336TIP3    H246424   2.919   4.337  14.833 -0.2032 -0.5250  0.0889
 8337TIP3   OH246425   6.141   3.933  15.593  0.2852  0.0081  0.1755
 8337TIP3    H146426   6.069   3.881  15.630  1.1427 -1.8439 -0.6135
 8337TIP3    H246427   6.108   4.023  15.593 -1.5018 -0.5935  1.0810
 8338TIP3   OH246428   6.081   4.033   0.938 -0.0893  0.1025 -0.3858
 8338TIP3    H146429   6.150   4.075   0.887 -0.4596  1.3247  0.0779
 8338TIP3    H246430   6.102   4.054   1.029 -0.5166 -0.3773 -0.1709
 8339TIP3   OH246431   1.421   3.867  12.359  0.0138  0.1681 -0.0728
 8339TIP3    H146432   1.394   3.910  12.278 -0.3817 -1.1880 -0.7033
 8339TIP3    H246433   1.433   3.775  12.334 -1.0049 -0.4786  1.5814
 8340TIP3   OH246434   1.323   2.553  15.662 -0.0782 -0.4240  0.0523
 8340TIP3    H146435   1.364   2.597  15.737  0.1960  1.0142 -0.9016
 8340TIP3    H246436   1.340   2.460  15.677  1.1807 -0.0616  1.0689
 8341TIP3   OH246437   5.196   3.112  13.312 -0.2671  0.4505 -0.2632
 8341TIP3    H146438   5.272   3.111  13.254 -0.3161  0.0283 -0.3172
 8341TIP3    H246439   5.201   3.197  13.356 -0.1032  0.6791 -0.7133
 8342TIP3   OH246440   5.660   4.672  13.238  0.1244  0.6728 -0.3999
 8342TIP3    H146441   5.684   4.759  13.271  2.0550 -0.0510  0.2688
 8342TIP3    H246442   5.744   4.626  13.229 -0.9352 -1.7329  1.0261
 8343TIP3   OH246443   1.073   1.297  11.608 -0.3331 -0.7182  0.6926
 8343TIP3    H146444   1.076   1.368  11.673 -0.0301  0.1729 -0.2768
 8343TIP3    H246445   1.018   1.331  11.538  1.3781 -0.6754 -0.6699
 8344TIP3   OH246446   3.972   5.943  17.240  0.4485 -0.8315  0.0415
 8344TIP3    H146447   3.977   5.986  17.155 -0.0253 -0.8533  0.0004
 8344TIP3    H246448   3.880   5.917  17.248  0.1963  0.2581  1.0797
 8345TIP3   OH246449   4.210   1.117  14.658 -0.0407  0.1924 -0.0228
 8345TIP3    H146450   4.213   1.125  14.563 -0.6248 -1.0049 -0.1736
 8345TIP3    H246451   4.130   1.163  14.684  0.5139  1.1630 -0.0215
 8346TIP3   OH246452   4.935   0.147  11.031  0.1186  0.4721 -0.1686
 8346TIP3    H146453   4.872   0.218  11.035 -0.1471  0.3496 -1.5664
 8346TIP3    H246454   4.882   0.068  11.028  0.3230  0.3551 -1.0516
 8347TIP3   OH246455   1.155   2.659  12.795 -0.6500 -0.3281 -0.1530
 8347TIP3    H146456   1.222   2.708  12.747  1.8206 -0.4409  2.9039
 8347TIP3    H246457   1.091   2.726  12.822  0.3230  0.4905  0.1826
 8348TIP3   OH246458   5.500   2.971   0.313  0.1712 -0.3051 -0.3677
 8348TIP3    H146459   5.427   2.911   0.299  1.3418 -2.0096  0.5678
 8348TIP3    H246460   5.538   2.983   0.226 -0.2364 -0.7231 -0.6072
 8349TIP3   OH246461   4.699   1.896   0.419  0.3058  0.1720  0.6944
 8349TIP3    H146462   4.791   1.904   0.391  0.5948  1.4293  1.8628
 8349TIP3    H246463   4.676   1.806   0.399  1.4024  0.1615 -0.7680
 8350TIP3   OH246464   5.074   3.362  12.710  0.0653  0.0786  0.9183
 8350TIP3    H146465   5.090   3.306  12.786  1.2361  1.2756  1.5973
 8350TIP3    H246466   4.986   3.337  12.680  0.5915 -2.1882  1.0819
 8351TIP3   OH246467   3.711   0.684  14.850  0.2070 -0.4352 -0.4066
 8351TIP3    H146468   3.758   0.601  14.844 -1.1648 -1.3142  0.5626
 8351TIP3    H246469   3.623   0.665  14.818  0.0756  0.8383 -0.8733
 8352TIP3   OH246470   5.559   0.179   3.716  0.0776 -0.2176  0.1907
 8352TIP3    H146471   5.604   0.258   3.746  1.7891 -1.2046  0.3634
 8352TIP3    H246472   5.531   0.135   3.796 -2.8571  1.2180  0.0724
 8353TIP3   OH246473   5.816   6.357   4.747 -0.1883 -0.2806 -0.5448
 8353TIP3    H146474   5.875   6.310   4.688  0.8269  1.9572 -1.4043
 8353TIP3    H246475   5.866   6.367   4.828 -0.0239  0.1708 -0.7017
 8354TIP3   OH246476   6.029   1.531   3.296 -0.3301  0.0014 -0.4547
 8354TIP3    H146477   6.090   1.538   3.370 -1.2392 -0.7660  0.3883
 8354TIP3    H246478   6.069   1.585   3.227  0.5391  0.7233  0.5797
 8355TIP3   OH246479   2.207   3.556   0.800 -0.5455  0.4006 -0.3477
 8355TIP3    H146480   2.268   3.482   0.806  0.6366  1.3441 -0.4414
 8355TIP3    H246481   2.217   3.603   0.882 -2.1480 -0.1477  0.2008
 8356TIP3   OH246482   6.375   5.988  16.330 -0.2325  0.0429  0.5475
 8356TIP3    H146483   6.460   6.000  16.373  0.0662 -0.8448  0.2189
 8356TIP3    H246484   6.392   6.000  16.237 -0.6209  0.6428  0.5523
 8357TIP3   OH246485   3.092   3.154   1.222  0.0185 -0.3464 -0.1406
 8357TIP3    H146486   3.103   3.145   1.128 -2.5766 -1.9521 -0.4069
 8357TIP3    H246487   3.136   3.078   1.259 -1.5031 -1.3995 -0.3823
 8358TIP3   OH246488   2.890   5.926  15.131 -0.3012  0.3522  0.0008
 8358TIP3    H146489   2.821   5.983  15.098  0.9300  1.5983 -0.4971
 8358TIP3    H246490   2.847   5.841  15.144 -2.2278  1.4441  1.0138
 8359TIP3   OH246491   1.515   1.506  17.302  0.6521 -0.3445  0.3579
 8359TIP3    H146492   1.427   1.509  17.265  1.7144  0.1584 -2.3647
 8359TIP3    H246493   1.547   1.596  17.294  2.1992 -0.9641 -0.8133
 8360TIP3   OH246494   4.277   4.520  10.240 -0.2457 -0.1517 -0.3255
 8360TIP3    H146495   4.274   4.599  10.294 -1.0821 -1.0024  0.9220
 8360TIP3    H246496   4.186   4.499  10.222 -0.0712 -1.2969  0.0635
 8361TIP3   OH246497   2.966   3.020   0.682  0.1140  0.3080 -0.4866
 8361TIP3    H146498   2.969   3.114   0.665 -0.5432  0.4007 -0.1111
 8361TIP3    H246499   3.040   2.985   0.631  1.1510  1.1745  0.3694
 8362TIP3   OH246500   3.796   6.013   3.807 -0.2876 -0.1253 -0.1709
 8362TIP3    H146501   3.776   5.919   3.802  1.9659 -0.7176  0.7002
 8362TIP3    H246502   3.753   6.042   3.887 -0.8992 -0.4232 -0.3813
 8363TIP3   OH246503   5.031   5.713   3.851  0.0718 -0.5638  0.3321
 8363TIP3    H146504   5.088   5.646   3.814 -0.5384 -2.0964  2.0336
 8363TIP3    H246505   4.948   5.669   3.866 -0.8671  1.0215  0.0141
 8364TIP3   OH246506   5.986   3.040   4.186  0.6607 -0.1676  0.0909
 8364TIP3    H146507   5.906   3.079   4.223 -0.2031 -2.3948  0.7280
 8364TIP3    H246508   6.013   3.102   4.119 -0.6526  1.4826  0.9762
 8365TIP3   OH246509   6.480   4.397  17.167  0.3555 -0.6343 -0.3198
 8365TIP3    H146510   6.521   4.401  17.081 -0.1182 -0.7949 -0.5602
 8365TIP3    H246511   6.468   4.488  17.193  2.6372 -0.5480  0.6372
 8366TIP3   OH246512   1.645   4.204   2.144  0.4258  0.0713 -0.1952
 8366TIP3    H146513   1.709   4.213   2.215  0.1328  0.3794  0.0343
 8366TIP3    H246514   1.686   4.143   2.082  0.3992 -0.7424  0.5614
 8367TIP3   OH246515   3.895   4.380  15.423 -0.1429  0.3495 -0.2016
 8367TIP3    H146516   3.971   4.367  15.366  0.0378 -1.3055  0.3609
 8367TIP3    H246517   3.841   4.302  15.409 -0.7233  0.5371  0.9234
 8368TIP3   OH246518   4.718   5.702   2.278 -0.0073 -0.8879 -0.5555
 8368TIP3    H146519   4.806   5.729   2.249  0.1366 -1.1904 -0.4018
 8368TIP3    H246520   4.684   5.779   2.324  0.6383 -1.1568  0.4048
 8369TIP3   OH246521   6.585   1.592   2.008  0.0155  0.5332  0.4049
 8369TIP3    H146522   6.568   1.685   1.997  0.8436  0.7919  1.1835
 8369TIP3    H246523   6.636   1.568   1.930 -1.4100  0.3785 -0.5201
 8370TIP3   OH246524   4.636   4.265   4.899 -0.2862 -0.2087 -0.6099
 8370TIP3    H146525   4.629   4.359   4.917  1.7063  0.3167 -2.1978
 8370TIP3    H246526   4.558   4.227   4.939 -1.5254  2.2083 -0.5522
 8371TIP3   OH246527   5.428   6.667  16.883  0.2125 -0.0884 -0.0201
 8371TIP3    H146528   5.509   6.634  16.921  0.2828  0.3158  0.1898
 8371TIP3    H246529   5.392   6.593  16.835  0.5848 -0.3401  0.0838
 8372TIP3   OH246530   0.742   6.483  13.605  0.2714 -0.0878  0.6799
 8372TIP3    H146531   0.778   6.410  13.655 -1.3335 -0.9942  0.5740
 8372TIP3    H246532   0.789   6.481  13.522  0.1339 -1.1196  0.6153
 8373TIP3   OH246533   4.666   5.642   5.538  0.5280  0.3201  0.7529
 8373TIP3    H146534   4.601   5.687   5.484  1.3471 -0.4902 -0.9760
 8373TIP3    H246535   4.630   5.555   5.552  0.6677  0.2787  0.8533
 8374TIP3   OH246536   6.522   6.741   4.488  0.1669 -0.1803 -0.1398
 8374TIP3    H146537   6.441   6.774   4.528  0.0161  1.2252 -1.5245
 8374TIP3    H246538   6.571   6.705   4.562 -1.8777 -1.4824  0.6894
 8375TIP3   OH246539   4.124   4.874  17.372  0.4444  0.5582  0.0181
 8375TIP3    H146540   4.179   4.807  17.333  0.1624 -1.3141  2.5583
 8375TIP3    H246541   4.175   4.906  17.447 -1.3985 -0.4949  1.8297
 8376TIP3   OH246542   2.190   0.943   3.743  0.7606 -0.6550 -0.5383
 8376TIP3    H146543   2.121   0.882   3.716 -0.5718  0.3731  0.3831
 8376TIP3    H246544   2.268   0.889   3.750  0.0004 -1.9191 -1.3693
 8377TIP3   OH246545   0.527   5.422   0.841 -0.2872 -0.0291 -0.2718
 8377TIP3    H146546   0.483   5.361   0.781  0.8966  0.1876 -1.4064
 8377TIP3    H246547   0.495   5.508   0.815  0.3191  0.0750 -0.6992
 8378TIP3   OH246548   2.632   1.357   5.332 -0.5145 -0.5283 -0.4505
 8378TIP3    H146549   2.580   1.284   5.299  0.3943 -0.7920 -1.3609
 8378TIP3    H246550   2.703   1.315   5.382 -0.7770 -0.2043  0.2083
 8379TIP3   OH246551   5.660   3.438  16.762  0.6052  0.3591 -0.3098
 8379TIP3    H146552   5.755   3.447  16.752  0.7395  1.2299  1.3376
 8379TIP3    H246553   5.646   3.442  16.857 -1.1714  1.4154 -0.5740
 8380TIP3   OH246554   1.351   6.190   1.310 -0.0466  0.1128 -0.2017
 8380TIP3    H146555   1.412   6.216   1.241  1.4652 -0.8901  0.6944
 8380TIP3    H246556   1.402   6.132   1.367 -0.9013  1.6523  2.3339
 8381TIP3   OH246557   1.851   0.471  17.126  0.3142  0.1328  0.5707
 8381TIP3    H146558   1.805   0.555  17.130  2.3030  1.4985 -2.3036
 8381TIP3    H246559   1.887   0.459  17.213 -0.8296  1.7504  1.3129
 8382TIP3   OH246560   2.480   0.117   0.624 -0.4058 -0.0011  0.3923
 8382TIP3    H146561   2.401   0.140   0.673 -0.7474  1.2852 -0.7019
 8382TIP3    H246562   2.467   0.026   0.599 -2.1415  0.5121 -0.7899
 8383TIP3   OH246563   1.341   4.993  15.826 -0.0640 -0.1810 -0.2912
 8383TIP3    H146564   1.429   4.972  15.858  0.3526 -0.1179 -1.3426
 8383TIP3    H246565   1.355   5.062  15.761 -1.0544  0.9174  0.5886
 8384TIP3   OH246566   3.921   0.600  10.913  1.1405  0.7225 -0.0777
 8384TIP3    H146567   3.911   0.650  10.832  1.8170 -0.4304 -0.8892
 8384TIP3    H246568   3.943   0.667  10.979  2.3668  1.4787 -1.2016
 8385TIP3   OH246569   0.822   0.607   3.970 -0.6178  0.4427 -0.2175
 8385TIP3    H146570   0.896   0.554   3.939 -0.1616 -0.3502  2.0375
 8385TIP3    H246571   0.745   0.563   3.935 -0.1260 -0.0534 -0.7098
 8386TIP3   OH246572   1.664   0.920  16.353  0.2890 -0.1450  0.2431
 8386TIP3    H146573   1.735   0.914  16.289  0.9262  1.8376  0.7022
 8386TIP3    H246574   1.707   0.943  16.435 -0.8730  1.3823  0.4797
 8387TIP3   OH246575   0.478   3.567  12.654  0.0019 -0.2462 -0.0064
 8387TIP3    H146576   0.461   3.559  12.561 -0.4713 -0.1904  0.0740
 8387TIP3    H246577   0.495   3.477  12.684  0.2502 -0.2511 -0.1623
 8388TIP3   OH246578   1.465   3.411  11.228 -0.0736  0.5635 -0.2141
 8388TIP3    H146579   1.424   3.325  11.217  0.6514  0.1854 -0.0170
 8388TIP3    H246580   1.535   3.413  11.162 -1.0210  1.6097 -1.2460
 8389TIP3   OH246581   2.148   5.022  11.362 -0.0462 -0.5814 -0.4299
 8389TIP3    H146582   2.178   4.947  11.311  2.3321 -0.3842  0.5537
 8389TIP3    H246583   2.215   5.089  11.349 -0.8350  0.4735  0.6993
 8390TIP3   OH246584   1.204   1.752  17.195  0.4652  0.0270 -0.1772
 8390TIP3    H146585   1.292   1.783  17.218 -0.0358  1.4084 -0.0322
 8390TIP3    H246586   1.202   1.661  17.226  1.1119  0.6364  1.8408
 8391TIP3   OH246587   6.361   0.044   5.042  0.2306 -0.3776  0.1055
 8391TIP3    H146588   6.322   0.097   5.111 -0.1448 -0.3880 -0.0952
 8391TIP3    H246589   6.427   0.101   5.002 -1.0161  0.4196 -0.9309
 8392TIP3   OH246590   5.803   2.152  16.880 -0.1757 -0.1965  0.0158
 8392TIP3    H146591   5.898   2.153  16.870 -0.1989  0.9952 -0.2952
 8392TIP3    H246592   5.770   2.131  16.793 -0.2110  0.5981 -0.1680
 8393TIP3   OH246593   4.505   6.144   0.867 -0.1153  0.0986  0.5406
 8393TIP3    H146594   4.580   6.194   0.897  0.6292 -0.4486 -0.3693
 8393TIP3    H246595   4.455   6.206   0.813  1.2150 -0.2965 -1.2410
 8394TIP3   OH246596   3.404   2.901   0.379 -0.3650 -0.0769 -0.2188
 8394TIP3    H146597   3.471   2.952   0.426 -0.0607  0.0407 -0.7733
 8394TIP3    H246598   3.418   2.923   0.287 -1.8539  0.7750 -0.2768
 8395TIP3   OH246599   5.455   5.150  14.692 -0.4465 -0.1340  0.3526
 8395TIP3    H146600   5.386   5.168  14.756  0.4084 -2.0514  1.8946
 8395TIP3    H246601   5.535   5.178  14.734  0.1236 -1.3425  0.1155
 8396TIP3   OH246602   2.445   2.920  15.392  0.7310  0.5055 -0.0508
 8396TIP3    H146603   2.537   2.897  15.379  0.5666 -0.6186  0.5574
 8396TIP3    H246604   2.398   2.870  15.325  0.5416  0.8289 -0.1606
 8397TIP3   OH246605   1.875   0.983  16.532  0.8252  0.7198  0.1075
 8397TIP3    H146606   1.942   1.039  16.494  2.5113  0.3021  2.2247
 8397TIP3    H246607   1.835   1.036  16.601 -0.5074  0.6841 -0.6063
 8398TIP3   OH246608   0.741   4.271  14.926 -0.1875  0.2338  0.2753
 8398TIP3    H146609   0.744   4.340  14.860  1.0080 -1.7075 -1.8244
 8398TIP3    H246610   0.654   4.278  14.964 -0.9718  1.3509 -1.6000
 8399TIP3   OH246611   5.812   4.408   3.510  0.1578  0.6737  0.0211
 8399TIP3    H146612   5.740   4.361   3.469  0.8708 -0.2691 -0.1727
 8399TIP3    H246613   5.784   4.500   3.510 -0.5309  0.4748 -1.1088
 8400TIP3   OH246614   5.389   3.935   3.751  0.2109 -0.3622  0.0305
 8400TIP3    H146615   5.383   4.026   3.779  0.0580 -0.1967 -0.5104
 8400TIP3    H246616   5.300   3.902   3.758  0.5031 -0.8999  1.5685
 8401TIP3   OH246617   2.105   5.710  13.030  0.2919  0.6424 -0.2820
 8401TIP3    H146618   2.061   5.748  13.106 -2.7808 -1.8845 -0.6038
 8401TIP3    H246619   2.055   5.740  12.955  1.3275  0.5279 -1.0478
 8402TIP3   OH246620   1.167   1.723   0.577  0.1260  0.0572 -0.6147
 8402TIP3    H146621   1.222   1.673   0.516  0.2465 -0.2646 -0.2511
 8402TIP3    H246622   1.221   1.734   0.654  0.4834  1.6813 -1.0690
 8403TIP3   OH246623   6.319   2.959  15.214 -0.1530 -0.8455  0.1619
 8403TIP3    H146624   6.257   3.031  15.209 -1.2305 -1.5339  2.1690
 8403TIP3    H246625   6.277   2.888  15.166 -1.2883 -1.4863  1.9820
 8404TIP3   OH246626   2.243   4.098  16.975 -0.0993 -0.1235  0.4832
 8404TIP3    H146627   2.180   4.052  17.031  1.2009 -1.3445  1.0122
 8404TIP3    H246628   2.236   4.053  16.890 -0.3124  0.1022  0.3788
 8405TIP3   OH246629   3.656   6.390   1.477  0.5536 -0.4156  0.3666
 8405TIP3    H146630   3.731   6.423   1.428  0.6423 -1.9846 -0.6280
 8405TIP3    H246631   3.618   6.468   1.517  0.8998  0.8565 -1.6207
 8406TIP3   OH246632   5.460   0.231  14.773  0.6735  0.0108 -0.0791
 8406TIP3    H146633   5.435   0.178  14.697 -0.4138  1.6589 -0.9367
 8406TIP3    H246634   5.419   0.188  14.847  0.9402 -1.0892 -0.5586
 8407TIP3   OH246635   0.177   4.649  14.415  0.0797  0.2360  0.2020
 8407TIP3    H146636   0.185   4.713  14.485 -1.1345 -0.5683  1.1260
 8407TIP3    H246637   0.149   4.568  14.460  1.5013 -0.9301 -0.9161
 8408TIP3   OH246638   0.366   2.128   0.474  0.2021  0.1247  0.8597
 8408TIP3    H146639   0.356   2.042   0.432 -0.9708  0.7611 -0.2404
 8408TIP3    H246640   0.451   2.159   0.442 -0.4361  0.3681 -0.6741
 8409TIP3   OH246641   5.252   0.455   2.669 -0.4045  0.5949 -0.1794
 8409TIP3    H146642   5.202   0.503   2.603 -1.3507 -1.1559 -0.7991
 8409TIP3    H246643   5.251   0.512   2.746 -2.6725  0.9816 -0.4366
 8410TIP3   OH246644   1.823   1.801   1.819  0.3738 -0.4214 -0.5603
 8410TIP3    H146645   1.776   1.718   1.821 -1.8028  0.7531  0.6015
 8410TIP3    H246646   1.904   1.785   1.867  0.1189 -1.9106 -0.5953
 8411TIP3   OH246647   4.943   1.139  10.598  0.0027 -0.3828  0.2093
 8411TIP3    H146648   4.882   1.188  10.652 -1.7139 -0.5487 -1.4737
 8411TIP3    H246649   4.888   1.094  10.534  1.9229  0.1725 -1.9943
 8412TIP3   OH246650   4.431   3.812   0.159 -0.0438  0.3530  0.0604
 8412TIP3    H146651   4.361   3.876   0.147  1.7270  2.3591 -0.1427
 8412TIP3    H246652   4.429   3.791   0.252 -0.5472  0.8082  0.1520
 8413TIP3   OH246653   1.761   4.806  12.842 -0.3538  0.0751  0.0789
 8413TIP3    H146654   1.774   4.730  12.898 -0.5213  1.0614  1.4942
 8413TIP3    H246655   1.846   4.849  12.839 -0.5370  0.4567  0.2383
 8414TIP3   OH246656   2.161   5.403   4.110 -0.6647  0.3459 -0.4386
 8414TIP3    H146657   2.174   5.343   4.184 -1.8092 -1.2487 -1.4557
 8414TIP3    H246658   2.227   5.471   4.122 -1.1154  0.4176  2.3013
 8415TIP3   OH246659   0.694   3.142  15.321  0.1086  0.1033  0.2047
 8415TIP3    H146660   0.756   3.198  15.275 -0.7848  0.4235 -0.6531
 8415TIP3    H246661   0.727   3.053  15.306 -0.1772  0.1981 -1.1223
 8416TIP3   OH246662   6.363   5.327   4.398  0.0715 -0.4576 -0.2173
 8416TIP3    H146663   6.438   5.311   4.454 -0.3057 -0.5128  0.2801
 8416TIP3    H246664   6.287   5.304   4.452 -0.6373  3.7419  0.9113
 8417TIP3   OH246665   4.990   2.899  14.216 -0.2378  0.8993 -0.0008
 8417TIP3    H146666   4.965   2.810  14.241 -0.4361  0.9224 -0.1136
 8417TIP3    H246667   5.068   2.918  14.268  1.6526 -0.4547 -2.1572
 8418TIP3   OH246668   1.021   6.397   5.290 -0.0193 -0.0817 -0.5721
 8418TIP3    H146669   1.078   6.330   5.253  0.3127 -1.4386  2.1711
 8418TIP3    H246670   0.959   6.417   5.220  0.8642 -2.0636 -2.0050
 8419TIP3   OH246671   5.830   0.211   2.151  0.2977 -0.4066 -0.4001
 8419TIP3    H146672   5.872   0.212   2.065  1.7820 -1.8039  0.2538
 8419TIP3    H246673   5.818   0.118   2.171 -0.8180 -0.0824  0.5328
 8420TIP3   OH246674   3.009   1.177  14.263 -0.0461  0.1580  0.0708
 8420TIP3    H146675   3.077   1.133  14.315  0.5835  0.7893 -0.2072
 8420TIP3    H246676   3.011   1.132  14.179 -0.0454  0.1125  0.0946
 8421TIP3   OH246677   6.477   4.932  15.743  0.1894 -0.0570 -0.6135
 8421TIP3    H146678   6.433   4.859  15.788 -0.8802  0.7772 -0.2535
 8421TIP3    H246679   6.442   4.930  15.654 -0.1520  0.2655 -0.4868
 8422TIP3   OH246680   2.008   3.887   0.644 -0.0321  0.2347 -0.2152
 8422TIP3    H146681   1.942   3.919   0.706 -0.3384  0.3402 -0.5890
 8422TIP3    H246682   2.010   3.953   0.576  1.3568  0.8472  0.4016
 8423TIP3   OH246683   2.904   3.069   5.510  0.6238  0.4303 -0.1181
 8423TIP3    H146684   2.854   3.145   5.481  0.4592 -0.1671 -1.4360
 8423TIP3    H246685   2.940   3.031   5.430  2.1163  0.0888  0.6777
 8424TIP3   OH246686   3.976   0.646  15.697 -0.3103  0.3014 -0.2826
 8424TIP3    H146687   4.044   0.579  15.692  0.0750  0.6359  0.2921
 8424TIP3    H246688   4.006   0.715  15.637 -0.1281  0.4560 -0.0173
 8425TIP3   OH246689   3.033   0.404  15.734  0.1364 -0.3863 -0.0218
 8425TIP3    H146690   3.005   0.342  15.802  0.6874  0.1878  0.7490
 8425TIP3    H246691   3.001   0.489  15.765  2.7962  0.3420  0.9978
 8426TIP3   OH246692   5.900   6.173   3.431 -0.1020  0.1421  0.0247
 8426TIP3    H146693   5.892   6.202   3.340 -1.6220  0.4160  0.2202
 8426TIP3    H246694   5.810   6.150   3.457  0.6996 -2.7544  0.5528
 8427TIP3   OH246695   6.112   6.103   3.865  0.3279  0.7700  0.4660
 8427TIP3    H146696   6.146   6.102   3.955 -1.6240  0.8662  1.2545
 8427TIP3    H246697   6.172   6.047   3.816  0.1365 -1.2110  2.3535
 8428TIP3   OH246698   3.966   5.653   3.122 -0.1096 -0.2909 -0.0050
 8428TIP3    H146699   3.973   5.574   3.069 -0.3352 -0.0397 -0.4078
 8428TIP3    H246700   3.887   5.639   3.176  0.2606 -0.6527  0.4485
 8429TIP3   OH246701   6.435   1.978  17.342 -0.4225 -0.1192 -0.9194
 8429TIP3    H146702   6.408   2.064  17.376  0.1027 -0.8174  1.4318
 8429TIP3    H246703   6.530   1.984  17.334 -0.0679 -1.2182  1.6969
 8430TIP3   OH246704   5.021   6.408   3.912 -0.6840  0.2121 -0.2303
 8430TIP3    H146705   5.049   6.380   3.999 -1.7285 -0.5999 -0.1302
 8430TIP3    H246706   4.936   6.365   3.899  0.1650 -1.0340 -2.2969
 8431TIP3   OH246707   6.105   6.711   3.400 -0.3641 -0.0775 -0.0042
 8431TIP3    H146708   6.038   6.675   3.457  1.4579 -0.1374  2.2187
 8431TIP3    H246709   6.098   6.806   3.411  1.2250 -0.1164  1.9773
 8432TIP3   OH246710   2.951   5.991   2.078 -0.0454  0.1486 -0.3253
 8432TIP3    H146711   2.863   5.991   2.115 -0.6645 -2.0557 -1.6096
 8432TIP3    H246712   3.008   6.010   2.153 -1.4183 -1.4247  1.2127
 8433TIP3   OH246713   2.106   1.938   3.571 -0.3239  0.1374  0.2444
 8433TIP3    H146714   2.141   2.020   3.604 -1.7359  0.4020  1.1410
 8433TIP3    H246715   2.099   1.882   3.649 -0.7818 -0.3125 -0.1156
 8434TIP3   OH246716   3.683   3.978   3.917 -0.2010 -0.0207  0.2773
 8434TIP3    H146717   3.638   3.921   3.855 -2.1820 -0.0823  1.7062
 8434TIP3    H246718   3.713   3.920   3.986  0.8491  0.2281  0.0522
 8435TIP3   OH246719   1.535   0.779   0.419  0.4923  0.0692 -0.1675
 8435TIP3    H146720   1.506   0.832   0.493 -1.5743  0.6457 -1.3108
 8435TIP3    H246721   1.576   0.841   0.359 -1.0241  0.2525 -1.0556
 8436TIP3   OH246722   5.407   5.698   2.507  0.1479 -0.8871  0.6276
 8436TIP3    H146723   5.404   5.678   2.601  0.5706 -1.3702  0.5449
 8436TIP3    H246724   5.319   5.729   2.486 -0.1262 -1.3712  1.0528
 8437TIP3   OH246725   1.218   0.254   4.378 -0.6744  0.3970 -0.2678
 8437TIP3    H146726   1.136   0.248   4.328 -0.6951  1.0935 -0.3235
 8437TIP3    H246727   1.286   0.262   4.311 -0.6143  0.3902 -0.2073
 8438TIP3   OH246728   0.684   5.823  13.772 -0.6689 -0.0760  0.1945
 8438TIP3    H146729   0.722   5.738  13.752  1.5530  0.7471  0.6537
 8438TIP3    H246730   0.592   5.804  13.792 -0.5767 -2.1546 -1.0602
 8439TIP3   OH246731   3.755   6.682  11.044 -0.4635 -0.9284  0.1744
 8439TIP3    H146732   3.790   6.627  11.113  1.6503 -0.8648 -0.7796
 8439TIP3    H246733   3.747   6.624  10.969  0.1887 -0.3314 -0.3667
 8440TIP3   OH246734   4.535   0.160  13.640 -0.2259  0.1373 -0.5295
 8440TIP3    H146735   4.560   0.166  13.547  0.1991 -0.2757 -0.4473
 8440TIP3    H246736   4.601   0.102  13.678 -0.0673  0.7572  0.1486
 8441TIP3   OH246737   5.609   6.220   3.461 -0.5101 -0.2912  0.5327
 8441TIP3    H146738   5.513   6.217   3.460 -0.4762 -1.5403 -0.0573
 8441TIP3    H246739   5.633   6.194   3.550 -0.7097  0.1465  0.7201
 8442TIP3   OH246740   6.092   3.440   2.353 -0.1542 -0.8868  0.1359
 8442TIP3    H146741   6.104   3.505   2.284  0.7815 -0.0187  1.0676
 8442TIP3    H246742   6.003   3.455   2.386  0.9699  2.0038  2.2977
 8443TIP3   OH246743   3.195   5.829  14.674 -0.1084 -0.5683  0.1560
 8443TIP3    H146744   3.263   5.895  14.689 -1.4964  1.3731 -1.4655
 8443TIP3    H246745   3.189   5.782  14.757 -0.5056  2.7970  2.2555
 8444TIP3   OH246746   4.793   5.906  16.858 -0.8058 -0.0163 -0.0909
 8444TIP3    H146747   4.793   5.962  16.780  0.0633 -0.7593 -0.6415
 8444TIP3    H246748   4.845   5.955  16.922 -1.3142  0.4838 -0.0537
 8445TIP3   OH246749   4.966   3.041   0.647 -0.6348 -0.3593 -0.1074
 8445TIP3    H146750   4.981   3.132   0.673 -0.5448 -0.9633  2.1785
 8445TIP3    H246751   5.052   3.000   0.653 -0.1703 -0.1746 -3.4423
 8446TIP3   OH246752   3.602   2.433   6.206  0.0388  0.1806  0.8695
 8446TIP3    H146753   3.506   2.433   6.203  0.0319  0.4543  1.0847
 8446TIP3    H246754   3.624   2.503   6.267  0.3795  0.1697  0.7591
 8447TIP3   OH246755   3.501   4.983   4.819  0.6872 -0.2326 -0.3986
 8447TIP3    H146756   3.480   4.916   4.753  0.3865  0.7641 -1.3416
 8447TIP3    H246757   3.596   4.990   4.816  0.6249  0.3177 -1.2489
 8448TIP3   OH246758   6.108   0.799   6.231  0.7186  0.1146  0.2555
 8448TIP3    H146759   6.163   0.873   6.258 -1.2987  1.7451  0.1885
 8448TIP3    H246760   6.169   0.728   6.213  2.9071  2.2606 -1.3477
 8449TIP3   OH246761   3.573   1.983   1.587 -0.5466  0.0356  0.2753
 8449TIP3    H146762   3.577   2.000   1.493  0.8028 -1.1756  0.0842
 8449TIP3    H246763   3.546   2.066   1.626 -0.0980  0.8365 -1.0873
 8450TIP3   OH246764   1.488   5.882  17.414  0.3089 -0.1221  0.4171
 8450TIP3    H146765   1.569   5.932  17.423  1.9143 -1.3771 -4.0606
 8450TIP3    H246766   1.425   5.926  17.470  3.2550  2.8783  1.6774
 8451TIP3   OH246767   6.285   2.047   4.623 -0.7861  0.2307  0.2712
 8451TIP3    H146768   6.329   1.965   4.600  0.3425  0.6372  0.8672
 8451TIP3    H246769   6.357   2.109   4.637 -1.4898  0.6652  2.2935
 8452TIP3   OH246770   0.371   5.598  13.874  0.2593  0.5190  0.1512
 8452TIP3    H146771   0.344   5.540  13.803  1.9596  2.2175 -2.0000
 8452TIP3    H246772   0.290   5.641  13.901 -0.7981 -1.7809  0.8813
 8453TIP3   OH246773   3.031   0.941   4.627  0.2951 -0.0820 -0.0793
 8453TIP3    H146774   3.071   0.980   4.705 -1.5723  2.0114 -0.0632
 8453TIP3    H246775   3.085   0.973   4.555 -1.0510  2.5793 -0.0432
 8454TIP3   OH246776   2.951   0.618  13.418 -1.0820 -0.1412 -0.0273
 8454TIP3    H146777   3.026   0.560  13.432 -0.9577  0.3707  1.6389
 8454TIP3    H246778   2.918   0.594  13.332  0.3280 -1.1335 -0.3249
 8455TIP3   OH246779   4.706   5.346  17.266  0.6043  0.0541  0.0952
 8455TIP3    H146780   4.781   5.386  17.310 -0.5053  1.1312  1.1022
 8455TIP3    H246781   4.732   5.255  17.252  1.7680  0.1898  1.2157
 8456TIP3   OH246782   6.527   3.571   4.041  0.1488 -0.1879  0.8163
 8456TIP3    H146783   6.545   3.491   4.092  0.4114 -1.7461 -1.5833
 8456TIP3    H246784   6.432   3.578   4.040  0.1118 -0.6574  0.7835
 8457TIP3   OH246785   0.866   2.782   3.405  0.0311  0.5608  0.1015
 8457TIP3    H146786   0.913   2.740   3.478  0.6529  0.7364 -0.1906
 8457TIP3    H246787   0.893   2.733   3.328  0.1498  1.0041 -0.1427
 8458TIP3   OH246788   2.425   4.036  11.645  0.1736  0.1540  0.0018
 8458TIP3    H146789   2.449   4.026  11.553 -0.7918 -0.9574 -0.1556
 8458TIP3    H246790   2.508   4.031  11.693  0.7717  1.5271 -0.8458
 8459TIP3   OH246791   5.839   5.584   1.332  0.3226 -0.1797 -0.2529
 8459TIP3    H146792   5.755   5.570   1.290 -0.9255  1.0821  1.6537
 8459TIP3    H246793   5.828   5.666   1.381  2.7135  0.1017 -0.0735
 8460TIP3   OH246794   1.710   3.190  11.161  0.0139 -1.5031  0.0861
 8460TIP3    H146795   1.682   3.269  11.114  0.8405 -1.2993 -0.0897
 8460TIP3    H246796   1.770   3.147  11.100  1.2906 -1.1134  1.0171
 8461TIP3   OH246797   4.164   3.032  14.030 -0.3891  0.3870 -0.3352
 8461TIP3    H146798   4.171   2.937  14.022 -0.2799  0.1861  1.5929
 8461TIP3    H246799   4.237   3.066  13.980 -0.3393 -0.5487 -0.9257
 8462TIP3   OH246800   1.914   1.432   1.011 -0.3151 -0.9397 -0.3728
 8462TIP3    H146801   1.827   1.397   1.028 -0.3147  0.3032  2.6955
 8462TIP3    H246802   1.973   1.359   1.031 -0.5258 -1.9380 -2.9030
 8463TIP3   OH246803   3.651   2.647   6.361 -0.2014  0.3029 -0.4069
 8463TIP3    H146804   3.582   2.703   6.324 -3.4786  0.0789  4.4732
 8463TIP3    H246805   3.714   2.709   6.399 -0.8362  0.6534  0.0990
 8464TIP3   OH246806   5.822   0.536  17.305 -0.2279 -0.7574 -0.6051
 8464TIP3    H146807   5.817   0.482  17.384 -1.0161 -0.2283 -0.2741
 8464TIP3    H246808   5.777   0.485  17.238 -0.9973 -0.5159 -0.2863
 8465TIP3   OH246809   1.455   6.177   5.317 -0.3258 -0.3964  0.2260
 8465TIP3    H146810   1.421   6.100   5.361  2.1407 -0.6390  1.9037
 8465TIP3    H246811   1.480   6.236   5.388  1.9708  0.0318 -0.8419
 8466TIP3   OH246812   0.511   4.469  13.027 -0.2628  0.5398 -0.2081
 8466TIP3    H146813   0.435   4.458  13.085 -0.9498  0.8382 -1.0271
 8466TIP3    H246814   0.586   4.451  13.083 -0.9803 -0.8780  0.3663
 8467TIP3   OH246815   5.512   3.481  10.389  0.9232 -0.2896  0.0561
 8467TIP3    H146816   5.554   3.400  10.362  0.3402 -0.4188 -0.4733
 8467TIP3    H246817   5.424   3.477  10.352  0.7841  0.4479  0.2782
 8468TIP3   OH246818   0.954   4.769  13.115 -0.1490 -0.6525 -0.0336
 8468TIP3    H146819   0.943   4.759  13.020  1.7072 -2.3866 -0.1313
 8468TIP3    H246820   1.016   4.841  13.124 -1.2306  0.3065 -0.0514
 8469TIP3   OH246821   5.893   4.860  14.906  0.1450 -0.0321 -0.5372
 8469TIP3    H146822   5.898   4.879  14.813 -0.6189 -1.0243 -0.8013
 8469TIP3    H246823   5.841   4.931  14.943 -0.2852 -0.0973 -1.0139
 8470TIP3   OH246824   5.434   2.206  14.803  0.4504 -0.3886  0.3486
 8470TIP3    H146825   5.514   2.247  14.769  0.8386 -0.6989  0.8646
 8470TIP3    H246826   5.466   2.134  14.857 -0.1737 -0.3322  0.8015
 8471TIP3   OH246827   6.719   0.765   2.305 -0.4101 -0.3197 -0.1288
 8471TIP3    H146828   6.754   0.824   2.237  0.3044 -0.3694  0.1837
 8471TIP3    H246829   6.651   0.715   2.261 -0.8661  0.5810 -0.4630
 8472TIP3   OH246830   3.653   0.991   5.820 -0.2956  0.3183 -0.2611
 8472TIP3    H146831   3.592   1.039   5.876  0.6126  0.3368  0.7536
 8472TIP3    H246832   3.728   1.049   5.812  0.4202 -0.5255  0.1820
 8473TIP3   OH246833   0.818   0.863   5.457 -0.5697  0.2066 -0.1579
 8473TIP3    H146834   0.888   0.816   5.502 -0.4670  1.0776  0.6282
 8473TIP3    H246835   0.740   0.809   5.471 -1.1385  1.6086  3.4072
 8474TIP3   OH246836   2.826   4.377  15.321 -0.8167  0.2404  0.0412
 8474TIP3    H146837   2.755   4.373  15.386 -1.1865 -1.7483 -0.4369
 8474TIP3    H246838   2.891   4.315  15.353 -0.1140  0.6857 -0.5037
 8475TIP3   OH246839   4.992   6.444   6.098 -0.2356 -1.0065  0.4934
 8475TIP3    H146840   5.028   6.437   6.186 -1.8645  0.8151  1.3767
 8475TIP3    H246841   4.955   6.532   6.094 -0.0411 -0.9724 -2.0940
 8476TIP3   OH246842   6.274   0.402   1.328 -0.1933 -0.2385  0.5942
 8476TIP3    H146843   6.333   0.326   1.337  1.7780  1.3031  1.3926
 8476TIP3    H246844   6.257   0.406   1.234  0.7016 -0.9543  0.3743
 8477TIP3   OH246845   3.555   2.051   2.630  0.0603 -0.9955  0.1104
 8477TIP3    H146846   3.581   2.013   2.714 -0.6667 -2.0585 -0.1414
 8477TIP3    H246847   3.551   1.977   2.570  1.0684 -0.1806 -1.0141
 8478TIP3   OH246848   4.730   0.716  15.158 -0.1296 -0.4661 -0.8321
 8478TIP3    H146849   4.707   0.792  15.212  0.0223 -2.2617  1.9248
 8478TIP3    H246850   4.781   0.753  15.086  0.5474  1.9824  0.7850
 8479TIP3   OH246851   0.632   4.189   4.571 -0.1843 -0.0730  0.0203
 8479TIP3    H146852   0.556   4.218   4.520  0.4288 -0.3903 -1.1209
 8479TIP3    H246853   0.650   4.261   4.631 -0.2939  0.7721 -0.9437
 8480TIP3   OH246854   2.291   3.093   4.352  0.5847  0.8471  0.3617
 8480TIP3    H146855   2.254   3.095   4.264  0.5487  0.5461  0.3704
 8480TIP3    H246856   2.376   3.051   4.341  0.2458  0.0891  0.5959
 8481TIP3   OH246857   0.082   0.899  16.994 -0.2092  0.0506 -0.4299
 8481TIP3    H146858   0.167   0.920  16.957 -0.3313  0.7610 -0.3145
 8481TIP3    H246859   0.044   0.983  17.019 -1.1094 -0.2192 -0.8310
 8482TIP3   OH246860   6.090   0.945   2.014  0.0113  0.1646  0.2234
 8482TIP3    H146861   6.047   0.966   2.097 -0.1639 -0.1794  0.2224
 8482TIP3    H246862   6.018   0.940   1.951 -0.0710 -1.2478  0.3831
 8483TIP3   OH246863   5.560   1.348  10.966 -0.5008  0.1784 -0.0520
 8483TIP3    H146864   5.626   1.297  10.919 -0.2834 -0.4176  0.8798
 8483TIP3    H246865   5.601   1.371  11.049 -1.2598  0.2781  0.3076
 8484TIP3   OH246866   1.220   5.351  11.174 -0.5479  0.3050 -0.0032
 8484TIP3    H146867   1.213   5.444  11.152 -2.1074  0.1761 -0.1226
 8484TIP3    H246868   1.272   5.313  11.102 -0.8469  0.8911 -0.5364
 8485TIP3   OH246869   1.717   3.638   5.034  0.9497 -0.1745  0.9620
 8485TIP3    H146870   1.787   3.698   5.010 -0.0538 -0.1352 -2.4846
 8485TIP3    H246871   1.752   3.551   5.017  1.2184 -0.3812  2.4735
 8486TIP3   OH246872   2.313   1.819  12.548  0.0046  0.0100 -0.2156
 8486TIP3    H146873   2.225   1.783  12.559 -1.0349  2.6153  0.7429
 8486TIP3    H246874   2.365   1.777  12.617 -1.0997  0.2051  0.7627
 8487TIP3   OH246875   5.243   3.496   0.994  0.0606  0.7833 -0.8719
 8487TIP3    H146876   5.221   3.576   1.042 -0.0850  1.9488 -2.7703
 8487TIP3    H246877   5.335   3.507   0.970  0.2389  0.0413 -0.5592
 8488TIP3   OH246878   0.254   1.536  15.452 -0.0505  0.2430 -0.1519
 8488TIP3    H146879   0.224   1.466  15.394  0.5771 -1.0989  1.0618
 8488TIP3    H246880   0.188   1.539  15.522  0.3987  0.2133  0.2821
 8489TIP3   OH246881   6.589   3.849  16.318 -0.1355 -0.1347 -0.2184
 8489TIP3    H146882   6.516   3.830  16.376  0.2495  0.1408  0.3680
 8489TIP3    H246883   6.551   3.853  16.231 -0.8946  0.4709  0.1323
 8490TIP3   OH246884   0.255   0.196  13.711 -0.0760 -0.4941  0.4181
 8490TIP3    H146885   0.300   0.277  13.689 -1.5603  0.4351  0.6633
 8490TIP3    H246886   0.323   0.129  13.708  1.0962  0.6849 -0.2067
 8491TIP3   OH246887   1.537   0.888   6.392 -0.0497  0.0611 -0.1466
 8491TIP3    H146888   1.500   0.802   6.415  0.0359  0.0647  0.0045
 8491TIP3    H246889   1.629   0.882   6.416  0.3058 -0.3175 -1.5195
 8492TIP3   OH246890   4.300   2.941  15.970  0.0593 -0.0443  0.2991
 8492TIP3    H146891   4.315   2.944  16.065 -0.3456  1.9513  0.3553
 8492TIP3    H246892   4.205   2.952  15.961  0.2976  1.8987 -0.3384
 8493TIP3   OH246893   6.357   3.150   1.147 -0.1297 -0.0106  0.0796
 8493TIP3    H146894   6.306   3.120   1.072  1.3331 -0.3747 -0.8136
 8493TIP3    H246895   6.313   3.229   1.176 -1.3416 -0.4583 -0.4859
 8494TIP3   OH246896   5.313   1.865  14.215  0.7950  0.1412  0.0008
 8494TIP3    H146897   5.318   1.871  14.120  1.2859  2.2288  0.1098
 8494TIP3    H246898   5.391   1.816  14.241  0.6840 -0.3928 -0.6545
 8495TIP3   OH246899   0.638   4.541   5.777 -0.0502 -0.1594 -0.2525
 8495TIP3    H146900   0.714   4.577   5.823 -2.2044  0.0087  3.6324
 8495TIP3    H246901   0.579   4.616   5.766 -0.8694 -0.8204 -0.4619
 8496TIP3   OH246902   0.306   0.168   2.712 -0.0907  0.0021 -0.0669
 8496TIP3    H146903   0.319   0.187   2.805 -0.1316 -1.3617  0.2293
 8496TIP3    H246904   0.220   0.204   2.692  0.2762  1.0629  0.2000
 8497TIP3   OH246905   5.338   1.074   0.829 -0.0904  0.7470 -0.3695
 8497TIP3    H146906   5.309   1.106   0.915  0.8263  1.8886 -0.4544
 8497TIP3    H246907   5.433   1.084   0.831  0.0099  0.1115 -1.2715
 8498TIP3   OH246908   0.813   5.902  16.793  0.0769  0.1393 -0.4630
 8498TIP3    H146909   0.861   5.821  16.810 -0.6142 -0.0485  0.7187
 8498TIP3    H246910   0.748   5.877  16.727 -0.6095 -0.4783  0.4198
 8499TIP3   OH246911   2.038   6.013   4.134  0.3969  0.7112  0.2271
 8499TIP3    H146912   2.032   6.012   4.230  1.3137 -0.6142  0.3076
 8499TIP3    H246913   2.009   5.926   4.108 -1.3339  1.5643 -0.8515
 8500TIP3   OH246914   3.495   4.061   5.564  0.1837  0.1250  0.4234
 8500TIP3    H146915   3.547   4.136   5.594  0.5913 -0.9443  2.5880
 8500TIP3    H246916   3.521   3.990   5.622 -1.7420 -1.1477 -0.1967
 8501TIP3   OH246917   0.159   2.617  12.992  0.2870  0.1762  0.3499
 8501TIP3    H146918   0.171   2.675  12.917  2.8668 -0.4854  0.1572
 8501TIP3    H246919   0.074   2.576  12.977 -1.0039  2.8184 -0.2049
 8502TIP3   OH246920   3.608   3.480  16.128  0.6151 -0.2263  0.2198
 8502TIP3    H146921   3.623   3.549  16.064 -2.7241  1.5496  1.1324
 8502TIP3    H246922   3.595   3.401  16.075 -2.1372  1.1959 -1.4748
 8503TIP3   OH246923   2.454   2.479  15.252  0.5062 -0.1249  0.6702
 8503TIP3    H146924   2.532   2.533  15.236 -0.8210  1.8611  0.5443
 8503TIP3    H246925   2.459   2.411  15.185  1.8895  0.2286  0.3731
 8504TIP3   OH246926   3.344   0.010  15.899  0.2704  0.2723 -0.3293
 8504TIP3    H146927   3.339  -0.083  15.921 -1.6630  0.0003 -1.5771
 8504TIP3    H246928   3.405   0.014  15.825 -1.1526 -0.3782 -1.6153
 8505TIP3   OH246929   5.091   4.110   1.460  0.5394  0.6911  0.5163
 8505TIP3    H146930   5.024   4.055   1.420 -0.3149  0.9607  1.5381
 8505TIP3    H246931   5.137   4.149   1.385  0.7353 -0.8573 -0.2152
 8506TIP3   OH246932   2.414   3.969  15.361 -0.5982 -0.4995  0.7121
 8506TIP3    H146933   2.367   3.886  15.348 -1.1595 -0.2130  0.8956
 8506TIP3    H246934   2.507   3.944  15.359 -0.5626 -0.6533 -2.9623
 8507TIP3   OH246935   1.648   4.397  14.230 -0.1752 -0.3383  0.0045
 8507TIP3    H146936   1.739   4.371  14.215 -0.1868 -0.1656 -0.3951
 8507TIP3    H246937   1.647   4.491  14.211 -0.4354 -0.3384  0.0159
 8508TIP3   OH246938   0.873   5.343  16.059  0.0249 -0.1712  0.7076
 8508TIP3    H146939   0.865   5.320  16.152  0.9145 -0.9661  0.5935
 8508TIP3    H246940   0.784   5.336  16.025 -0.1383 -0.8889  1.2692
 8509TIP3   OH246941   4.170   0.151   2.002 -0.2550 -0.3224  0.0141
 8509TIP3    H146942   4.161   0.064   1.963  1.1660 -0.4131 -0.1652
 8509TIP3    H246943   4.248   0.145   2.057 -0.6704  0.5837  0.7312
 8510TIP3   OH246944   5.764   4.607  14.931  0.2069  0.4135  0.1472
 8510TIP3    H146945   5.685   4.594  14.984  1.7063 -1.6681  2.0915
 8510TIP3    H246946   5.794   4.694  14.956 -0.0081  0.1190  1.5571
 8511TIP3   OH246947   6.707   3.432  13.171  0.0289 -0.1532  0.2263
 8511TIP3    H146948   6.633   3.439  13.110 -0.9805 -0.9237  1.3272
 8511TIP3    H246949   6.777   3.483  13.129 -1.3753  1.3317 -0.4480
 8512TIP3   OH246950   6.446   5.299  15.704 -0.0908  0.9105 -0.2302
 8512TIP3    H146951   6.510   5.233  15.731 -2.0144 -1.3426 -0.8455
 8512TIP3    H246952   6.435   5.285  15.610 -1.7381  1.0014 -0.0773
 8513TIP3   OH246953   5.294   5.328   6.353  0.2368  0.8722 -0.6339
 8513TIP3    H146954   5.206   5.343   6.387  0.9916  4.1984  0.2261
 8513TIP3    H246955   5.280   5.283   6.270 -2.0210 -1.6726  0.9435
 8514TIP3   OH246956   1.980   0.077  15.589  0.2812 -0.4166  0.4581
 8514TIP3    H146957   2.055   0.043  15.541 -0.1983  1.0062 -1.4127
 8514TIP3    H246958   1.904   0.037  15.547 -0.2371  1.9968 -1.1280
 8515TIP3   OH246959   6.502   4.254  14.618 -0.5585  0.3790 -0.1427
 8515TIP3    H146960   6.423   4.205  14.643 -1.2112  0.2299 -2.2874
 8515TIP3    H246961   6.473   4.311  14.546  1.8298 -1.9853 -3.2911
 8516TIP3   OH246962   5.251   6.274  12.547 -0.3489 -0.2781  1.0943
 8516TIP3    H146963   5.326   6.251  12.493 -1.7040  0.4079 -1.1977
 8516TIP3    H246964   5.276   6.246  12.636  3.5373  2.0262  0.9451
 8517TIP3   OH246965   3.059   0.391  10.714 -0.2373  0.4001 -0.1234
 8517TIP3    H146966   3.127   0.388  10.782  0.0535  0.2701 -0.4169
 8517TIP3    H246967   3.101   0.354  10.637 -0.6761  0.2299 -0.2840
 8518TIP3   OH246968   4.802   4.431  13.279 -0.4767 -0.2235 -0.4584
 8518TIP3    H146969   4.885   4.424  13.231  0.1318 -0.3914  0.5879
 8518TIP3    H246970   4.786   4.525  13.285 -0.0425 -0.1615 -0.1579
 8519TIP3   OH246971   6.447   6.484  13.168 -0.1800 -0.5090 -0.1932
 8519TIP3    H146972   6.468   6.576  13.187  2.1276 -0.8722 -0.7319
 8519TIP3    H246973   6.468   6.474  13.076  2.2462 -2.2181  0.4740
 8520TIP3   OH246974   6.537   5.087   5.279 -0.1254 -0.4078 -0.4461
 8520TIP3    H146975   6.452   5.100   5.323  1.2154  0.5471  2.0422
 8520TIP3    H246976   6.571   5.006   5.315  2.3402  1.8468  2.9327
 8521TIP3   OH246977   2.910   3.758   2.998  0.3162  0.1433 -0.3331
 8521TIP3    H146978   2.962   3.719   2.928 -0.1030 -1.2335  0.0888
 8521TIP3    H246979   2.902   3.850   2.974  4.2358  0.8246  0.3835
 8522TIP3   OH246980   0.042   2.580   1.860  0.0352  0.1245  0.1156
 8522TIP3    H146981  -0.018   2.506   1.849  0.0530  0.1362 -0.0583
 8522TIP3    H246982   0.114   2.561   1.800 -1.2048  1.5909 -1.9834
 8523TIP3   OH246983   1.516   6.751  13.285  0.1161  0.0797 -0.0381
 8523TIP3    H146984   1.548   6.701  13.210  1.9678 -1.9612  1.9791
 8523TIP3    H246985   1.460   6.689  13.333 -0.9295  1.3021  0.3932
 8524TIP3   OH246986   3.408   4.195  16.305 -0.0995 -0.0949  0.1978
 8524TIP3    H146987   3.479   4.133  16.288 -0.4846 -0.3336 -0.5763
 8524TIP3    H246988   3.345   4.144  16.356 -0.3991 -0.3379 -0.4056
 8525TIP3   OH246989   3.440   6.629   2.051 -0.3030  0.1927 -0.2296
 8525TIP3    H146990   3.437   6.711   2.100 -1.3879 -0.8907  1.6470
 8525TIP3    H246991   3.388   6.568   2.103  1.8560 -2.1681 -0.6389
 8526TIP3   OH246992   1.825   2.057   2.152 -0.2222 -0.6511  0.8357
 8526TIP3    H146993   1.743   2.083   2.108  0.2285 -1.0799 -0.2942
 8526TIP3    H246994   1.835   1.964   2.130  0.7318 -0.5208  0.6924
 8527TIP3   OH246995   2.411   2.166   1.066 -0.5336 -0.0562 -0.5088
 8527TIP3    H146996   2.343   2.099   1.074  0.8205 -1.7739 -2.2989
 8527TIP3    H246997   2.491   2.125   1.099  0.5924  0.1408 -2.7563
 8528TIP3   OH246998   3.426   1.945   0.253  0.8412 -0.0306  0.3127
 8528TIP3    H146999   3.335   1.971   0.239  1.2133  2.2255  1.5841
 8528TIP3    H247000   3.421   1.851   0.275 -1.2812  0.2237  1.2070
 8529TIP3   OH247001   2.335   3.404   4.101 -0.0517 -0.0624  0.1634
 8529TIP3    H147002   2.310   3.478   4.156  0.6375  0.6775 -0.4904
 8529TIP3    H247003   2.282   3.414   4.022  1.1364  0.6440 -0.5811
 8530TIP3   OH247004   3.852   2.817  13.851 -0.6229 -0.1023  0.5132
 8530TIP3    H147005   3.936   2.773  13.840 -1.0608 -0.8918  0.2600
 8530TIP3    H247006   3.863   2.871  13.929 -0.4152 -1.4819  1.4625
 8531TIP3   OH247007   4.989   3.780  11.901 -0.3380  0.0808  0.2669
 8531TIP3    H147008   5.000   3.783  11.997  0.0920  1.7154  0.1987
 8531TIP3    H247009   4.894   3.771  11.888 -0.5555  1.2301  0.8734
 8532TIP3   OH247010   2.278   0.121   1.856 -0.4079 -0.0967 -0.1946
 8532TIP3    H147011   2.283   0.189   1.923 -1.5976 -0.1131 -0.0651
 8532TIP3    H247012   2.239   0.164   1.780  1.3152  0.0250 -1.0423
 8533TIP3   OH247013   4.872   6.651   3.941  0.4818  0.3121 -0.2333
 8533TIP3    H147014   4.806   6.614   3.882 -0.7392  2.5619 -0.3459
 8533TIP3    H247015   4.946   6.671   3.883 -0.1028  1.0499 -0.7363
 8534TIP3   OH247016   5.874   4.015  12.823 -0.6170 -0.6016  0.2210
 8534TIP3    H147017   5.827   3.999  12.905  0.4425 -0.7852  0.8129
 8534TIP3    H247018   5.948   4.071  12.848  0.9435 -2.3833 -0.2044
 8535TIP3   OH247019   1.537   6.158  11.229 -0.1268  0.2625  0.6081
 8535TIP3    H147020   1.535   6.217  11.154  0.9141 -0.4449 -0.0124
 8535TIP3    H247021   1.615   6.184  11.279  0.0424 -0.2409  0.6151
 8536TIP3   OH247022   5.728   2.226   1.168 -0.5015  0.3434 -0.1998
 8536TIP3    H147023   5.682   2.202   1.249  0.8559 -2.5551 -0.1465
 8536TIP3    H247024   5.815   2.253   1.197 -0.6730  1.3392 -0.5856
 8537TIP3   OH247025   2.985   4.848  14.309 -0.3252  0.0680 -0.1150
 8537TIP3    H147026   3.050   4.898  14.260  1.3360  0.0562  1.9195
 8537TIP3    H247027   2.933   4.915  14.354 -0.4178  0.0232 -0.1545
 8538TIP3   OH247028   6.063   2.205  15.616 -0.4451  0.4314  0.4318
 8538TIP3    H147029   5.989   2.263  15.599 -0.3393  0.3816 -0.2336
 8538TIP3    H247030   6.052   2.134  15.552  0.1136  0.3698  0.4030
 8539TIP3   OH247031   6.264   6.114   0.228 -0.4627 -0.0104 -0.4110
 8539TIP3    H147032   6.177   6.074   0.221 -0.2882 -0.3128 -0.9570
 8539TIP3    H247033   6.270   6.144   0.318 -2.2017  2.4728 -1.0098
 8540TIP3   OH247034   4.887   6.339   6.701  0.0812  0.3859  0.0812
 8540TIP3    H147035   4.956   6.400   6.725 -0.0010  1.3437 -1.9077
 8540TIP3    H247036   4.912   6.256   6.743  0.6851  1.5092  2.0462
 8541TIP3   OH247037   2.005   3.427  15.695 -0.0988  0.1722  0.6300
 8541TIP3    H147038   2.092   3.388  15.706 -0.2690 -0.8435 -1.2768
 8541TIP3    H247039   1.944   3.360  15.725 -0.4187 -1.4676 -3.1149
 8542TIP3   OH247040   2.817   0.806   6.079 -0.0677  0.2094 -0.0499
 8542TIP3    H147041   2.754   0.798   6.150  1.2959 -0.7286  1.1221
 8542TIP3    H247042   2.838   0.900   6.076  1.0191  0.0860  1.9011
 8543TIP3   OH247043   5.517   2.889   1.213  0.0664 -0.1479  0.3286
 8543TIP3    H147044   5.478   2.931   1.290 -0.5065  1.4127 -0.7646
 8543TIP3    H247045   5.479   2.801   1.212 -0.0238 -0.1568  1.7219
 8544TIP3   OH247046   0.661   5.343   0.331 -0.0929 -0.1225  0.1293
 8544TIP3    H147047   0.668   5.281   0.259  0.1961  0.3635 -0.2721
 8544TIP3    H247048   0.733   5.405   0.316 -0.0729  0.0245  0.7962
 8545TIP3   OH247049   4.914   3.577   3.018 -0.0975  0.7019 -0.2276
 8545TIP3    H147050   4.974   3.518   2.972 -0.4131  0.6301 -0.5487
 8545TIP3    H247051   4.942   3.665   2.992 -0.1527  0.6671 -0.4090
 8546TIP3   OH247052   3.729   3.488  15.389  0.1536 -0.3058  0.4384
 8546TIP3    H147053   3.788   3.464  15.459 -1.1389 -0.8839  1.3742
 8546TIP3    H247054   3.670   3.553  15.428  0.4681  0.6522 -0.6116
 8547TIP3   OH247055   4.281   3.859  16.847 -0.2805  0.3737 -0.7696
 8547TIP3    H147056   4.252   3.808  16.923  0.2510 -1.4433 -1.7356
 8547TIP3    H247057   4.243   3.946  16.861 -1.3103 -0.2922  0.8877
 8548TIP3   OH247058   2.483   4.946   5.260  0.6860  0.0250  0.0160
 8548TIP3    H147059   2.551   4.895   5.304  0.7586  0.8243  0.8504
 8548TIP3    H247060   2.522   5.032   5.247  1.3605 -0.6177 -3.3042
 8549TIP3   OH247061   1.840   3.022   1.393  0.0654 -0.3749 -0.3169
 8549TIP3    H147062   1.784   3.099   1.390  0.7543  0.2548  1.7070
 8549TIP3    H247063   1.781   2.951   1.418 -0.3793 -0.3584 -1.2467
 8550TIP3   OH247064   5.993   3.616   3.824  0.5182  0.1083  0.0697
 8550TIP3    H147065   6.061   3.666   3.869 -0.1614  2.4821 -1.3612
 8550TIP3    H247066   5.917   3.674   3.823 -0.4352 -1.0884 -1.4004
 8551TIP3   OH247067   5.680   4.205   6.306 -0.0438  0.6308  0.2198
 8551TIP3    H147068   5.698   4.117   6.274  4.0485  1.4189 -0.2369
 8551TIP3    H247069   5.650   4.253   6.229 -0.1511  0.1379 -0.0483
 8552TIP3   OH247070   5.051   0.898   5.837  0.1421 -0.3618  0.1178
 8552TIP3    H147071   5.081   0.968   5.779 -0.5897 -1.3297 -1.5038
 8552TIP3    H247072   4.966   0.929   5.868  0.2444 -0.1129  0.1505
 8553TIP3   OH247073   3.657   5.356   1.853 -0.2892  0.3065 -0.6188
 8553TIP3    H147074   3.649   5.392   1.764 -0.9333  1.7383 -0.0064
 8553TIP3    H247075   3.690   5.267   1.839  2.2708  1.3726 -2.1785
 8554TIP3   OH247076   6.217   2.062  16.009 -0.3313 -0.7508  0.0810
 8554TIP3    H147077   6.195   2.142  15.961  0.3304  0.6203  1.9185
 8554TIP3    H247078   6.312   2.060  16.012 -0.0592 -3.8907 -3.3909
 8555TIP3   OH247079   2.865   2.221   0.650 -0.4175 -0.0974 -0.7523
 8555TIP3    H147080   2.847   2.132   0.680  0.1703 -0.3143 -1.0082
 8555TIP3    H247081   2.782   2.267   0.657 -1.1013 -1.0783 -2.0143
 8556TIP3   OH247082   3.529   0.974  11.403  0.1681 -0.7632 -0.6202
 8556TIP3    H147083   3.519   1.023  11.485 -1.2223 -0.0671 -1.1928
 8556TIP3    H247084   3.573   1.034  11.344  0.9032 -1.1653 -0.5002
 8557TIP3   OH247085   2.425   4.225   5.524 -0.7182  0.2269 -0.6597
 8557TIP3    H147086   2.385   4.139   5.519 -0.3132  0.0575 -1.0380
 8557TIP3    H247087   2.518   4.208   5.541 -0.4402  0.5416 -1.7591
 8558TIP3   OH247088   2.886   1.280  15.182  0.2536  0.1366  0.0214
 8558TIP3    H147089   2.902   1.223  15.257  0.5850  1.9561  1.3814
 8558TIP3    H247090   2.970   1.320  15.162  0.0104  0.2492 -0.8655
 8559TIP3   OH247091   2.809   4.340  14.138 -0.2720 -0.1586 -0.3008
 8559TIP3    H147092   2.761   4.331  14.221 -0.8613  1.1244 -0.4825
 8559TIP3    H247093   2.834   4.433  14.135  2.0530 -0.7388 -0.3201
 8560TIP3   OH247094   0.783   0.068   0.362 -0.2112  0.1157 -0.5306
 8560TIP3    H147095   0.775  -0.009   0.419 -1.2846  0.1721 -0.5965
 8560TIP3    H247096   0.844   0.040   0.293 -1.8189 -1.2561 -1.4739
 8561TIP3   OH247097   0.146   0.328   1.296  0.3051 -0.1007 -0.2015
 8561TIP3    H147098   0.104   0.361   1.216 -0.1908 -1.2640 -0.4447
 8561TIP3    H247099   0.100   0.373   1.367  1.7069  2.0502 -0.5537
 8562TIP3   OH247100   3.356   5.259   6.438  0.2649  0.7645  0.4888
 8562TIP3    H147101   3.437   5.301   6.409  0.9072 -1.2339 -0.8388
 8562TIP3    H247102   3.307   5.245   6.357 -1.0250  1.1464  1.1858
 8563TIP3   OH247103   1.155   1.864   6.020 -0.4399 -0.1051 -0.1513
 8563TIP3    H147104   1.101   1.880   6.098 -0.5655 -0.3342 -0.1903
 8563TIP3    H247105   1.238   1.907   6.039  0.3853 -2.1265  1.1097
 8564TIP3   OH247106   5.545   0.842   0.949  0.3109 -0.3487  0.2818
 8564TIP3    H147107   5.550   0.811   0.858 -2.0562 -1.6566  0.5042
 8564TIP3    H247108   5.574   0.933   0.945  1.3221 -0.7002 -1.5758
 8565TIP3   OH247109   1.029   3.672  13.295  0.2281  0.4186 -0.0217
 8565TIP3    H147110   0.979   3.688  13.216  1.3411 -1.2135 -1.1219
 8565TIP3    H247111   0.982   3.602  13.340 -1.4445  2.5588  1.8202
 8566TIP3   OH247112   4.108   6.646  17.221 -0.2050 -0.5973 -0.1113
 8566TIP3    H147113   4.144   6.715  17.277  0.8611  0.1800 -1.6524
 8566TIP3    H247114   4.014   6.659  17.224 -0.0982  0.0706  0.6985
 8567TIP3   OH247115   5.370   4.137  12.133  0.1348  0.7679 -0.4880
 8567TIP3    H147116   5.276   4.125  12.121  0.2699 -0.4441 -0.5102
 8567TIP3    H247117   5.388   4.101  12.220  0.6897  0.2661 -0.8044
 8568TIP3   OH247118   3.626   2.297  10.463  0.6054 -0.3173 -0.2481
 8568TIP3    H147119   3.641   2.382  10.503 -0.0976 -0.3154  0.0185
 8568TIP3    H247120   3.568   2.251  10.523  0.4652 -0.7487 -0.7011
 8569TIP3   OH247121   4.757   0.292  16.944  0.0865  0.2796 -0.2329
 8569TIP3    H147122   4.814   0.224  16.908  1.2888  0.9075  0.4237
 8569TIP3    H247123   4.799   0.318  17.026 -2.4634 -0.9834  1.6349
 8570TIP3   OH247124   4.113   3.762  15.906  0.1544  0.1138 -0.2488
 8570TIP3    H147125   4.183   3.699  15.921 -0.6063 -1.1794 -1.8405
 8570TIP3    H247126   4.045   3.712  15.862 -1.7954  1.3197  1.2109
 8571TIP3   OH247127   0.107   1.274  12.492 -0.0117 -0.2097  0.0334
 8571TIP3    H147128   0.029   1.318  12.458 -1.7656 -1.8762  1.6854
 8571TIP3    H247129   0.074   1.214  12.559  2.6897 -1.1157  0.6805
 8572TIP3   OH247130   6.178   1.058  11.331  0.3574 -0.4532  0.3156
 8572TIP3    H147131   6.249   0.998  11.309  0.4953 -0.8031  1.6702
 8572TIP3    H247132   6.195   1.085  11.420 -0.0654  1.1261 -0.0557
 8573TIP3   OH247133   5.477   4.127   5.007  0.3240  0.5229  1.1355
 8573TIP3    H147134   5.423   4.090   5.077 -0.9399  1.0180  0.4631
 8573TIP3    H247135   5.467   4.222   5.017 -0.2074  0.5964  0.0632
 8574TIP3   OH247136   5.660   1.516  15.153 -0.3493 -0.0196 -0.1150
 8574TIP3    H147137   5.686   1.458  15.081  4.2518  0.4930  0.8179
 8574TIP3    H247138   5.647   1.457  15.228  1.0788 -0.1630  0.0480
 8575TIP3   OH247139   4.428   0.145   0.490  0.2721  0.2290 -0.5917
 8575TIP3    H147140   4.392   0.057   0.481  1.1846 -0.1893 -0.3580
 8575TIP3    H247141   4.395   0.193   0.415 -0.2459 -0.3097 -0.7176
 8576TIP3   OH247142   2.361   3.663   2.164 -0.3900  0.1737  0.2722
 8576TIP3    H147143   2.386   3.633   2.251  0.5492 -1.7898 -0.6109
 8576TIP3    H247144   2.443   3.664   2.115 -0.7062  2.4490 -0.3070
 8577TIP3   OH247145   0.473   6.348  13.687  0.8319 -0.3071 -0.0983
 8577TIP3    H147146   0.551   6.402  13.697  0.6993 -0.2860  0.8696
 8577TIP3    H247147   0.437   6.340  13.775  1.0391 -2.2922 -0.1488
 8578TIP3   OH247148   4.220   5.582   5.324  0.4256  0.0843 -0.1121
 8578TIP3    H147149   4.125   5.584   5.331  0.2513  0.6483 -1.9463
 8578TIP3    H247150   4.243   5.490   5.337 -0.2288  0.1151  1.4558
 8579TIP3   OH247151   1.818   1.023   4.991  0.0150  0.2744 -0.0463
 8579TIP3    H147152   1.853   1.107   5.021  0.5688 -0.3448  1.1209
 8579TIP3    H247153   1.769   0.990   5.066  1.5515 -1.3979  0.2750
 8580TIP3   OH247154   4.344   4.389   2.809  0.1304  0.6666 -0.0186
 8580TIP3    H147155   4.374   4.480   2.811 -0.7046  0.9810 -1.1813
 8580TIP3    H247156   4.400   4.346   2.744 -0.9171  0.8934 -1.0891
 8581TIP3   OH247157   2.129   3.738  13.559  0.3615 -0.6592  0.4487
 8581TIP3    H147158   2.110   3.709  13.470  0.4883  1.0411 -0.1674
 8581TIP3    H247159   2.046   3.772  13.592 -0.0221 -2.4883  1.5152
 8582TIP3   OH247160   1.721   4.812  11.269  0.2943 -0.0786 -0.0960
 8582TIP3    H147161   1.635   4.855  11.268  0.1954  0.6699  5.6705
 8582TIP3    H247162   1.781   4.881  11.241 -0.6351  0.7580 -0.1226
 8583TIP3   OH247163   1.620   1.718   0.360 -0.0700 -0.3084  0.1289
 8583TIP3    H147164   1.711   1.731   0.333  0.4473  1.3673  2.3374
 8583TIP3    H247165   1.580   1.805   0.352 -0.8729 -0.5618  1.1424
 8584TIP3   OH247166   5.169   2.150  13.471 -0.3965  0.2600  0.3943
 8584TIP3    H147167   5.157   2.086  13.401 -0.8895 -1.9986  2.4250
 8584TIP3    H247168   5.206   2.100  13.543  0.6877  2.6281  1.5886
 8585TIP3   OH247169   5.095   6.686   1.705  0.4577  0.0497  0.3400
 8585TIP3    H147170   5.156   6.709   1.635 -0.3188 -0.5964 -0.5688
 8585TIP3    H247171   5.045   6.767   1.721 -0.9494 -0.3768 -1.5076
 8586TIP3   OH247172   6.087   6.297   0.456  0.0795  0.6187 -0.0914
 8586TIP3    H147173   5.995   6.278   0.470 -0.1370  2.2873  1.0648
 8586TIP3    H247174   6.089   6.356   0.381  0.1055  1.2546  0.3983
 8587TIP3   OH247175   5.482   4.310   4.273 -0.1155 -0.7286  0.5432
 8587TIP3    H147176   5.452   4.221   4.253 -0.3788 -0.5099 -0.0525
 8587TIP3    H247177   5.573   4.299   4.303 -0.0719 -1.1730  0.2495
 8588TIP3   OH247178   5.598   4.403   6.121  0.1947  0.4983  0.2652
 8588TIP3    H147179   5.548   4.429   6.198  2.1263  1.3672  1.2868
 8588TIP3    H247180   5.664   4.472   6.111  2.2895 -1.4597  0.0262
 8589TIP3   OH247181   0.582   5.919  11.372  0.0314  0.4513 -0.5847
 8589TIP3    H147182   0.595   5.844  11.314 -0.5119  0.7038 -1.0350
 8589TIP3    H247183   0.654   5.978  11.352  0.1681  0.2802 -0.5968
 8590TIP3   OH247184   3.320   3.328   0.570  0.4142  0.1235  0.0315
 8590TIP3    H147185   3.405   3.329   0.526  0.5733  1.5941  0.3345
 8590TIP3    H247186   3.284   3.415   0.556 -0.9830 -0.4233  0.0587
 8591TIP3   OH247187   6.071   2.786  17.078 -0.4354 -0.2225  0.4062
 8591TIP3    H147188   6.010   2.782  17.151 -0.1320  0.0159  0.6787
 8591TIP3    H247189   6.021   2.824  17.006 -0.5702  0.0865  0.6631
 8592TIP3   OH247190   1.330   4.220   0.472 -0.5366 -0.4025  0.3170
 8592TIP3    H147191   1.398   4.273   0.429 -1.2706  0.4040  0.1218
 8592TIP3    H247192   1.255   4.279   0.480 -0.8053 -0.8841  1.6857
 8593TIP3   OH247193   4.760   3.720   5.663  0.1271  1.0312  0.3626
 8593TIP3    H147194   4.796   3.634   5.642  0.2935  1.7211 -2.6044
 8593TIP3    H247195   4.711   3.706   5.744  0.8103 -1.6678  0.4007
 8594TIP3   OH247196   3.058   1.422  13.324  0.1191 -0.3634 -0.4525
 8594TIP3    H147197   3.067   1.422  13.419 -0.5385 -1.1422 -0.3780
 8594TIP3    H247198   3.128   1.365  13.294 -0.9460 -1.8069 -0.2750
 8595TIP3   OH247199   6.587   5.167  16.971 -0.1683  0.1636 -0.0100
 8595TIP3    H147200   6.608   5.232  16.905  1.3188  0.4757  0.7123
 8595TIP3    H247201   6.541   5.215  17.040  0.5536  0.3869  0.3283
 8596TIP3   OH247202   6.689   3.794   3.382  0.2828  0.6870 -0.1288
 8596TIP3    H147203   6.627   3.786   3.310  1.1772  0.6621 -0.9177
 8596TIP3    H247204   6.687   3.886   3.405  0.3441  0.7831 -0.5053
 8597TIP3   OH247205   6.734   5.207   3.836 -0.6200  0.2251 -0.0824
 8597TIP3    H147206   6.750   5.177   3.746  0.9005 -0.7651  0.4667
 8597TIP3    H247207   6.654   5.162   3.862 -2.0757  1.8926 -1.5004
 8598TIP3   OH247208   6.399   3.273  15.174 -0.3648  0.8039 -0.3020
 8598TIP3    H147209   6.365   3.361  15.186 -1.0331  0.4111  0.7563
 8598TIP3    H247210   6.463   3.262  15.245 -0.6987  0.2356 -0.0882
 8599TIP3   OH247211   0.517   6.232   4.096 -0.3306  0.4995 -0.2261
 8599TIP3    H147212   0.424   6.255   4.102 -1.1202 -2.4076  0.1987
 8599TIP3    H247213   0.517   6.142   4.061  2.2730  0.0654  0.6791
 8600TIP3   OH247214   2.248   2.678  13.885  0.3583 -0.4961  0.2565
 8600TIP3    H147215   2.178   2.728  13.926  0.9586 -0.0591  0.7549
 8600TIP3    H247216   2.253   2.598  13.937  0.4946 -0.3564  0.4549
 8601TIP3   OH247217   5.743   3.979  12.422 -0.2083 -0.7223 -0.0290
 8601TIP3    H147218   5.741   4.039  12.497 -1.7914 -0.8808  0.0882
 8601TIP3    H247219   5.824   3.930  12.433  0.5584  0.6055  0.4944
 8602TIP3   OH247220   2.763   4.512   3.836 -0.0270 -0.1792 -0.9026
 8602TIP3    H147221   2.801   4.577   3.896 -0.8232 -2.1276  1.9402
 8602TIP3    H247222   2.675   4.545   3.819  0.2626  0.4869 -1.1325
 8603TIP3   OH247223   5.116   0.865   1.227  1.0396 -0.4491  0.3877
 8603TIP3    H147224   5.140   0.956   1.245  2.2497 -0.4416 -1.0796
 8603TIP3    H247225   5.136   0.852   1.135  1.0642 -2.2669  0.6067
 8604TIP3   OH247226   4.642   4.121   6.362 -0.1707 -0.0820  0.3197
 8604TIP3    H147227   4.623   4.201   6.314  0.4142  1.2066  2.1486
 8604TIP3    H247228   4.556   4.083   6.380 -0.4424  0.0058 -0.7116
 8605TIP3   OH247229   3.405   1.562   4.200  0.1322  0.8193  0.5676
 8605TIP3    H147230   3.320   1.541   4.163 -0.5924  0.7323  2.2026
 8605TIP3    H247231   3.409   1.658   4.201  0.7672  0.8383 -1.0059
 8606TIP3   OH247232   1.160   6.206   2.205 -0.1759 -0.4022  0.2385
 8606TIP3    H147233   1.139   6.181   2.295 -1.3689  0.1770  0.1271
 8606TIP3    H247234   1.196   6.126   2.166  1.4487 -0.3692  1.5315
 8607TIP3   OH247235   5.946   0.994  16.316  0.0172 -0.1594 -0.5005
 8607TIP3    H147236   6.033   0.955  16.326 -0.2512 -1.0624 -1.4731
 8607TIP3    H247237   5.958   1.086  16.337  1.3395 -0.1600 -1.1778
 8608TIP3   OH247238   4.063   5.733   4.844 -0.1896 -0.9186 -0.7226
 8608TIP3    H147239   3.968   5.743   4.833 -0.3439 -2.8482 -1.6477
 8608TIP3    H247240   4.075   5.723   4.938 -1.1321 -2.1073 -0.6972
 8609TIP3   OH247241   0.138   3.346   0.096  0.5725 -0.2810 -0.5855
 8609TIP3    H147242   0.154   3.265   0.047 -1.4983 -0.0132 -1.8689
 8609TIP3    H247243   0.181   3.414   0.044  0.3617 -0.2961 -0.7863
 8610TIP3   OH247244   1.335   1.938  12.446  0.2401  0.2059  0.0221
 8610TIP3    H147245   1.321   1.939  12.351  2.7956 -1.3516 -0.4698
 8610TIP3    H247246   1.291   1.859  12.476  0.0175  0.3365  0.0472
 8611TIP3   OH247247   4.827   4.601  11.635  0.0332  0.7679 -0.0962
 8611TIP3    H147248   4.820   4.514  11.594  2.4858  0.5536 -0.2448
 8611TIP3    H247249   4.835   4.661  11.561 -0.9490  1.0629  0.0232
 8612TIP3   OH247250   1.438   0.532   2.147  0.4331  0.3878  0.5009
 8612TIP3    H147251   1.479   0.457   2.190 -1.5053  0.7382  3.2375
 8612TIP3    H247252   1.348   0.504   2.130  0.8042  0.6954 -2.4590
 8613TIP3   OH247253   2.066   4.521  16.691 -0.3872 -0.5771 -0.0278
 8613TIP3    H147254   2.160   4.539  16.686 -0.6511  1.2645  0.8207
 8613TIP3    H247255   2.033   4.545  16.605 -0.4261  1.2852  0.4680
 8614TIP3   OH247256   1.604   3.689   0.642 -0.0128  0.2032 -0.1071
 8614TIP3    H147257   1.655   3.612   0.619  1.6384  1.2231 -0.0461
 8614TIP3    H247258   1.546   3.660   0.713  2.4346 -0.3987  1.7768
 8615TIP3   OH247259   3.752   5.940  12.319 -0.0486  0.3824 -0.3967
 8615TIP3    H147260   3.669   5.917  12.276  0.4504 -0.7141 -0.8215
 8615TIP3    H247261   3.726   5.972  12.405 -0.8869 -0.6326 -0.2453
 8616TIP3   OH247262   4.811   3.294  15.009 -0.3089 -0.2306  0.4501
 8616TIP3    H147263   4.725   3.317  14.975 -0.8544 -0.1706  1.8298
 8616TIP3    H247264   4.810   3.323  15.100  1.2105 -0.1296  0.4685
 8617TIP3   OH247265   2.030   2.350   3.616  0.0113  0.2080  0.1843
 8617TIP3    H147266   1.993   2.359   3.528 -0.8847  0.1387  0.5425
 8617TIP3    H247267   2.120   2.320   3.601 -0.1482  0.1420 -0.7053
 8618TIP3   OH247268   2.563   3.315  15.414  0.5359  0.6429 -0.3198
 8618TIP3    H147269   2.555   3.256  15.339  1.2692 -0.2685  0.3069
 8618TIP3    H247270   2.476   3.354  15.423  0.2199  0.1536 -1.1368
 8619TIP3   OH247271   1.806   2.312  14.911  0.1570 -0.3535  0.2641
 8619TIP3    H147272   1.741   2.244  14.926 -0.0840 -0.3312 -0.6061
 8619TIP3    H247273   1.876   2.269  14.862 -1.1321  0.5217 -2.5616
 8620TIP3   OH247274   5.856   2.142  11.125  0.3192  0.3287  0.0604
 8620TIP3    H147275   5.922   2.089  11.081 -0.7984 -2.7081  1.7126
 8620TIP3    H247276   5.774   2.124  11.078 -0.2589 -0.2880  1.2435
 8621TIP3   OH247277   4.919   2.820   2.181 -0.0062  0.1047  0.2300
 8621TIP3    H147278   4.980   2.870   2.128  0.8115 -1.7460 -0.6871
 8621TIP3    H247279   4.832   2.850   2.154  0.4502  0.6544 -0.6462
 8622TIP3   OH247280   1.653   3.063   0.572  0.2794  0.3180 -0.2523
 8622TIP3    H147281   1.685   3.103   0.653  3.0378 -0.5371 -0.7890
 8622TIP3    H247282   1.713   3.096   0.505 -0.8308 -0.3987 -1.6457
 8623TIP3   OH247283   6.442   4.205  17.430  0.7722 -0.1646 -0.0383
 8623TIP3    H147284   6.494   4.205  17.350  3.5427  0.9658  1.5980
 8623TIP3    H247285   6.394   4.288  17.428 -2.0677 -1.6980 -2.0841
 8624TIP3   OH247286   2.536   2.165   0.413 -0.0244 -0.6726 -0.4117
 8624TIP3    H147287   2.525   2.099   0.482 -0.3344 -0.5187 -0.3097
 8624TIP3    H247288   2.513   2.248   0.455 -0.8753 -0.6620 -0.8739
 8625TIP3   OH247289   6.307   4.745  13.554 -0.6497  0.2607 -0.3850
 8625TIP3    H147290   6.261   4.814  13.506 -1.9925  0.6782  1.3921
 8625TIP3    H247291   6.350   4.694  13.486 -0.7980  1.9934 -1.8673
 8626TIP3   OH247292   0.484   5.137   3.277  0.5442  0.0614  0.6412
 8626TIP3    H147293   0.574   5.169   3.272  0.0719  1.3922  0.2592
 8626TIP3    H247294   0.459   5.148   3.369  0.8887 -0.6768  0.8296
 8627TIP3   OH247295   4.141   4.799  16.337 -0.2731 -0.0210  0.0489
 8627TIP3    H147296   4.152   4.732  16.404  0.8114 -1.7864 -1.7791
 8627TIP3    H247297   4.048   4.794  16.312 -0.4116 -0.1611  0.5925
 8628TIP3   OH247298   1.105   4.031  15.901 -0.1164 -0.4520 -0.1670
 8628TIP3    H147299   1.156   4.095  15.850  0.4351 -2.0398 -1.7439
 8628TIP3    H247300   1.171   3.974  15.940 -0.5484  0.5734  2.2237
 8629TIP3   OH247301   4.754   1.185  13.951  0.0870  0.7518  0.1459
 8629TIP3    H147302   4.815   1.115  13.976  0.6939  0.7407 -1.2680
 8629TIP3    H247303   4.801   1.266  13.972 -0.7538  0.7837  2.1089
 8630TIP3   OH247304   1.845   2.545  12.026 -0.2879  0.2378  0.2498
 8630TIP3    H147305   1.856   2.610  12.095  0.9198 -0.0821  0.3776
 8630TIP3    H247306   1.832   2.596  11.946 -0.1126  0.6244  0.4647
 8631TIP3   OH247307   3.566   3.681  11.822 -0.2521  0.3630 -0.8200
 8631TIP3    H147308   3.611   3.645  11.746  0.2596  1.8482 -1.2566
 8631TIP3    H247309   3.476   3.652  11.813  0.2623 -1.3719 -0.7566
 8632TIP3   OH247310   5.305   1.181  12.818 -0.1741 -0.0612 -0.1086
 8632TIP3    H147311   5.227   1.237  12.807 -2.2750 -2.7925 -0.2765
 8632TIP3    H247312   5.316   1.175  12.913 -0.0274  0.5008 -0.0861
 8633TIP3   OH247313   2.691   2.762   1.071  0.1260  0.1871 -0.1461
 8633TIP3    H147314   2.732   2.848   1.083  0.9955  0.0655 -1.8782
 8633TIP3    H247315   2.713   2.738   0.981 -2.2859 -0.7171 -0.5623
 8634TIP3   OH247316   3.494   4.288   0.898 -0.4606  0.1773  0.1311
 8634TIP3    H147317   3.455   4.229   0.963  0.5904 -0.2499  0.3899
 8634TIP3    H247318   3.498   4.373   0.942 -0.4522  0.0610  0.3588
 8635TIP3   OH247319   1.048   5.936   4.893  0.0542 -0.2704  0.2869
 8635TIP3    H147320   1.128   5.946   4.841 -0.1977  0.3271  0.0137
 8635TIP3    H247321   1.016   5.849   4.870 -0.3982  0.2277 -1.0477
 8636TIP3   OH247322   2.346   6.218   3.628 -0.3191 -0.1117  0.7411
 8636TIP3    H147323   2.356   6.124   3.616 -0.2950 -0.3856  2.6463
 8636TIP3    H247324   2.418   6.243   3.686  1.0241  1.5217 -1.4734
 8637TIP3   OH247325   4.399   3.864   5.186  0.3300  0.0423  0.6415
 8637TIP3    H147326   4.445   3.903   5.261  1.0128 -0.0013  0.2524
 8637TIP3    H247327   4.307   3.865   5.212  0.4304  1.0516  1.0349
 8638TIP3   OH247328   5.107   5.953   3.409  0.0565 -0.3543  0.0706
 8638TIP3    H147329   5.116   5.858   3.415  0.9486 -0.3901 -1.3342
 8638TIP3    H247330   5.196   5.986   3.422  0.1113  0.1452 -1.3649
 8639TIP3   OH247331   0.642   3.998   6.427 -0.6650 -0.2183  0.0054
 8639TIP3    H147332   0.615   3.907   6.436  0.4546 -0.5700 -0.0316
 8639TIP3    H247333   0.685   4.019   6.510 -0.2490  0.0403 -0.2714
 8640TIP3   OH247334   3.380   1.204  15.160  0.1228  0.7613  0.0156
 8640TIP3    H147335   3.456   1.163  15.201  0.3442  1.0822 -0.0713
 8640TIP3    H247336   3.379   1.293  15.196  0.1048  0.9289 -0.3949
 8641TIP3   OH247337   4.045   5.646   2.104 -0.3416 -0.4081  0.2608
 8641TIP3    H147338   4.110   5.579   2.125  0.0164  0.3681  1.8089
 8641TIP3    H247339   3.975   5.599   2.059  0.9545 -1.3775 -0.8228
 8642TIP3   OH247340   4.703   2.711  17.227 -0.0923 -0.5509  0.5767
 8642TIP3    H147341   4.640   2.743  17.293 -0.1801  1.1111 -0.2619
 8642TIP3    H247342   4.766   2.783  17.217 -1.1042  0.0607 -2.4457
 8643TIP3   OH247343   6.558   2.966  15.056  0.6366  0.2193  0.3062
 8643TIP3    H147344   6.623   2.913  15.103  0.5733  0.1355  0.3006
 8643TIP3    H247345   6.485   2.974  15.118 -0.0853 -1.1769 -0.3289
 8644TIP3   OH247346   5.624   4.038  14.798  0.8355  0.4397 -0.3457
 8644TIP3    H147347   5.560   4.071  14.861 -1.8439  2.3519 -3.7193
 8644TIP3    H247348   5.704   4.087  14.817  0.2839  0.5887  1.8073
 8645TIP3   OH247349   0.376   6.576  12.736  0.2797  0.5438 -0.6101
 8645TIP3    H147350   0.397   6.484  12.753 -0.6856 -0.1672 -2.9177
 8645TIP3    H247351   0.461   6.619  12.727  0.7862 -0.6414 -1.8959
 8646TIP3   OH247352   2.959   4.079  16.415  0.4504  0.4325  0.3043
 8646TIP3    H147353   3.030   4.025  16.380  0.8485  0.5129  0.9674
 8646TIP3    H247354   2.948   4.048  16.505 -0.0472  0.7367  0.3484
 8647TIP3   OH247355   1.193   5.282  13.525  0.5896 -0.2466 -0.3249
 8647TIP3    H147356   1.125   5.341  13.555 -0.3809 -1.0088 -0.9683
 8647TIP3    H247357   1.274   5.317  13.563  0.1760  1.9384 -1.3451
 8648TIP3   OH247358   5.914   6.254  12.288 -0.1175 -0.0036  0.7345
 8648TIP3    H147359   5.993   6.281  12.242  0.2907 -1.8465  0.3111
 8648TIP3    H247360   5.860   6.333  12.290  0.5940  0.5859 -1.3288
 8649TIP3   OH247361   3.973   3.040  16.549  0.2515 -0.9086  0.0086
 8649TIP3    H147362   3.957   3.134  16.540 -0.6570 -0.6458  3.2007
 8649TIP3    H247363   4.064   3.034  16.578  0.3360 -1.0316 -0.2781
 8650TIP3   OH247364   6.356   3.680  13.633 -0.4033 -0.0289  0.4621
 8650TIP3    H147365   6.325   3.700  13.545 -2.0424 -0.5228  0.8950
 8650TIP3    H247366   6.413   3.754  13.656 -0.2977  0.3179 -0.8233
 8651TIP3   OH247367   3.876   6.619   2.339 -0.3123  0.2553 -0.7570
 8651TIP3    H147368   3.915   6.703   2.362  1.0792  0.3653 -3.1412
 8651TIP3    H247369   3.865   6.573   2.422  1.8965  1.5218  0.3107
 8652TIP3   OH247370   3.262   6.079  14.075  0.0555  0.2423  0.0822
 8652TIP3    H147371   3.320   6.019  14.122 -1.0172 -1.5102 -0.6951
 8652TIP3    H247372   3.245   6.151  14.136  1.3499 -0.2710  1.0795
 8653TIP3   OH247373   2.873   2.934   2.822 -0.0123 -0.3055  0.1823
 8653TIP3    H147374   2.915   2.902   2.902 -1.4342 -0.9617  0.6971
 8653TIP3    H247375   2.787   2.965   2.850 -0.0617  0.6084 -0.9093
 8654TIP3   OH247376   0.413   6.278  12.697  0.2906  0.1561  0.6044
 8654TIP3    H147377   0.381   6.253  12.610  0.2701  2.1955 -0.0127
 8654TIP3    H247378   0.334   6.298  12.747  0.3834  0.7627  0.5127
 8655TIP3   OH247379   3.706   0.751   3.953  0.0435 -0.5286 -0.5194
 8655TIP3    H147380   3.784   0.751   4.007  1.3398 -2.9406 -2.2175
 8655TIP3    H247381   3.656   0.675   3.981 -0.4151 -0.4833 -1.1835
 8656TIP3   OH247382   3.703   3.779  14.212  0.5669  0.3442  0.0794
 8656TIP3    H147383   3.618   3.775  14.256  1.0477  2.7813  1.3690
 8656TIP3    H247384   3.689   3.834  14.136  0.9890  0.8160  0.3353
 8657TIP3   OH247385   6.226   3.709  13.873 -0.8148 -0.1400  0.3581
 8657TIP3    H147386   6.293   3.668  13.818  0.2780  0.6937  1.0185
 8657TIP3    H247387   6.219   3.799  13.840 -1.7407 -0.2739  0.1834
 8658TIP3   OH247388   1.108   6.067  14.101 -0.0284 -0.3676  0.8797
 8658TIP3    H147389   1.079   6.082  14.011 -0.2675 -0.1230  0.9938
 8658TIP3    H247390   1.170   5.995  14.095 -0.2045 -0.4916  0.5465
 8659TIP3   OH247391   0.348   3.764  17.346  0.0130  0.1185  0.8223
 8659TIP3    H147392   0.344   3.710  17.268 -0.4961  1.5818 -0.2096
 8659TIP3    H247393   0.270   3.739  17.396 -0.2715 -0.0391  0.3111
 8660TIP3   OH247394   6.449   0.578  14.031  0.0510  0.3579 -0.0070
 8660TIP3    H147395   6.475   0.577  14.124 -0.8378 -0.3487  0.2563
 8660TIP3    H247396   6.519   0.531  13.986  0.8047  1.2641  0.2128
 8661TIP3   OH247397   0.529   1.714  16.758 -0.4776 -0.1492  0.1040
 8661TIP3    H147398   0.483   1.695  16.676 -1.4253 -0.6798  0.7390
 8661TIP3    H247399   0.589   1.786  16.735 -1.1852  0.1524 -0.9003
 8662TIP3   OH247400   5.271   5.008   4.188  0.0450  0.3102 -0.3180
 8662TIP3    H147401   5.287   4.973   4.276  0.9228 -0.0635 -0.6153
 8662TIP3    H247402   5.180   4.986   4.169  0.1634 -0.5322  0.0740
 8663TIP3   OH247403   5.495   6.542   5.653  0.7662 -0.6368 -0.6434
 8663TIP3    H147404   5.563   6.575   5.594 -0.4649 -0.6932 -2.1485
 8663TIP3    H247405   5.420   6.525   5.596 -0.1974 -1.5094  0.8284
 8664TIP3   OH247406   5.109   4.003  14.621 -0.3078  0.0034 -0.2446
 8664TIP3    H147407   5.129   4.011  14.714  1.9012  2.1581 -0.8150
 8664TIP3    H247408   5.014   4.016  14.616 -0.4902 -0.2432  1.6728
 8665TIP3   OH247409   5.978   0.872  12.837 -0.1733  0.1695  0.8296
 8665TIP3    H147410   5.918   0.946  12.837  1.2104  1.3724 -0.8272
 8665TIP3    H247411   6.011   0.867  12.747  0.0453 -2.2702  0.9618
 8666TIP3   OH247412   4.164   2.026  11.744 -0.1196  0.0289  0.0554
 8666TIP3    H147413   4.221   2.092  11.784  1.2417  0.0509 -1.8017
 8666TIP3    H247414   4.076   2.050  11.774  0.8023 -0.3116  3.4210
 8667TIP3   OH247415   6.676   6.745   2.418 -0.2065  0.3747 -0.3073
 8667TIP3    H147416   6.725   6.718   2.497  0.8016  1.6160 -0.4650
 8667TIP3    H247417   6.597   6.787   2.452  0.2221  0.9004  0.0735
 8668TIP3   OH247418   3.815   6.352  16.515 -0.0201  0.7238 -0.6070
 8668TIP3    H147419   3.907   6.358  16.543  0.8971 -4.0297 -1.7971
 8668TIP3    H247420   3.766   6.339  16.596  0.6796  0.9458 -0.1366
 8669TIP3   OH247421   4.321   6.400  11.628  0.2246 -0.3226  0.1604
 8669TIP3    H147422   4.339   6.446  11.546  1.8287 -2.1506 -0.5956
 8669TIP3    H247423   4.407   6.383  11.665 -0.4234  2.0638  3.2998
 8670TIP3   OH247424   2.543   0.488  13.021  0.0084  0.0014  0.2487
 8670TIP3    H147425   2.585   0.570  12.996 -0.6792  0.3353  0.1692
 8670TIP3    H247426   2.461   0.514  13.062 -0.0004 -0.6314  0.6476
 8671TIP3   OH247427   3.714   3.451   2.725  0.1781  0.1156 -0.0513
 8671TIP3    H147428   3.730   3.452   2.630 -0.4881  1.2257 -0.1653
 8671TIP3    H247429   3.689   3.361   2.744 -0.2659  0.0173 -1.0390
 8672TIP3   OH247430   6.509   4.874  12.818 -0.0708  0.9926  0.3017
 8672TIP3    H147431   6.524   4.886  12.911  0.2137  0.9465  0.2633
 8672TIP3    H247432   6.484   4.961  12.786  0.0132  1.0482  0.3875
 8673TIP3   OH247433   6.433   5.133  12.809  0.4347 -0.6031 -0.2963
 8673TIP3    H147434   6.360   5.147  12.749 -0.1449 -1.7172  0.1186
 8673TIP3    H247435   6.394   5.141  12.896  1.0820  0.0901 -0.0646
 8674TIP3   OH247436   5.617   1.109   0.885 -0.4020  0.9055 -0.0123
 8674TIP3    H147437   5.687   1.090   0.823 -0.4094  0.0873  0.2222
 8674TIP3    H247438   5.649   1.183   0.936  0.4272  0.3584  0.2839
 8675TIP3   OH247439   4.928   0.977  12.607 -0.1605  0.1619 -0.0690
 8675TIP3    H147440   4.949   0.916  12.678 -0.6546  0.6495  0.5073
 8675TIP3    H247441   4.982   0.947  12.533 -1.8147 -2.2015 -0.4498
 8676TIP3   OH247442   1.813   4.218   2.376 -0.2931 -0.1853 -0.1602
 8676TIP3    H147443   1.889   4.163   2.393  0.1637  0.1475 -1.0669
 8676TIP3    H247444   1.745   4.184   2.435  0.8916  0.2973  1.5547
 8677TIP3   OH247445   5.614   4.406  16.389 -0.2981  0.4586  0.6054
 8677TIP3    H147446   5.705   4.414  16.363 -0.1548  2.4510  1.5291
 8677TIP3    H247447   5.577   4.494  16.378 -1.7066  0.0404  1.6269
 8678TIP3   OH247448   2.095   3.263  12.258  0.0349  0.0712  0.1716
 8678TIP3    H147449   2.151   3.294  12.330  3.1057 -0.6064 -1.7186
 8678TIP3    H247450   2.072   3.342  12.210  0.2424  0.2726  0.3985
 8679TIP3   OH247451   1.837   4.276   5.173  0.2244 -0.0165 -0.0283
 8679TIP3    H147452   1.883   4.225   5.107 -0.6658 -0.1788 -0.5415
 8679TIP3    H247453   1.817   4.214   5.243 -0.5261 -0.3047 -0.4835
 8680TIP3   OH247454   6.409   5.246  14.618  0.0587  0.6144  0.4927
 8680TIP3    H147455   6.498   5.216  14.600  0.2694  1.4034  0.2124
 8680TIP3    H247456   6.412   5.341  14.609 -0.6706  0.7125  1.0988
 8681TIP3   OH247457   2.424   5.318   4.925  0.3119  0.1286 -0.0569
 8681TIP3    H147458   2.398   5.244   4.981 -1.0807  3.0102  3.5074
 8681TIP3    H247459   2.343   5.367   4.912  1.4680  1.9121 -0.8933
 8682TIP3   OH247460   0.131   3.659  12.505 -0.4642 -0.4280  0.1161
 8682TIP3    H147461   0.087   3.582  12.467  0.3183 -0.0824 -1.6201
 8682TIP3    H247462   0.204   3.676  12.445 -0.5993  1.6569  0.4767
 8683TIP3   OH247463   0.327   5.466   3.695  0.3884 -0.0536  0.0067
 8683TIP3    H147464   0.268   5.517   3.750 -0.2187  0.6519 -1.2578
 8683TIP3    H247465   0.348   5.524   3.622  2.8023 -0.2125  0.4809
 8684TIP3   OH247466   5.447   1.445  12.928 -0.3680  0.3895  0.3590
 8684TIP3    H147467   5.358   1.463  12.959  0.1460 -0.2302  2.3388
 8684TIP3    H247468   5.454   1.494  12.846 -3.0181 -0.7366 -0.6540
 8685TIP3   OH247469   4.470   5.591   0.514  0.0292 -0.2670  0.2049
 8685TIP3    H147470   4.470   5.589   0.418  0.6854  0.2929  0.1816
 8685TIP3    H247471   4.401   5.653   0.537  0.4904  0.3134  0.0578
 8686TIP3   OH247472   5.942   2.084  13.484 -0.3679 -0.1807 -0.2988
 8686TIP3    H147473   5.968   2.136  13.559  3.2758 -0.7517 -1.0007
 8686TIP3    H247474   5.945   2.145  13.410 -1.7549 -0.1494 -0.3688
 8687TIP3   OH247475   3.354   3.271  16.136  0.2775 -0.5601  0.5164
 8687TIP3    H147476   3.373   3.363  16.157  0.2142 -0.5520  0.5393
 8687TIP3    H247477   3.411   3.221  16.194 -1.3284 -0.5719  2.1745
 8688TIP3   OH247478   5.892   6.141   2.936 -0.6929  0.4993 -0.3236
 8688TIP3    H147479   5.940   6.111   2.858  1.3604  0.5252  0.8361
 8688TIP3    H247480   5.800   6.129   2.914 -0.1664  0.0372 -2.5565
 8689TIP3   OH247481   3.877   1.522  13.304 -0.1080  0.3101  0.5494
 8689TIP3    H147482   3.815   1.466  13.257  0.1051 -0.4412  1.1476
 8689TIP3    H247483   3.840   1.610  13.297 -0.2727  0.1636 -0.6959
 8690TIP3   OH247484   4.694   3.990  12.264 -0.2454  0.6188 -0.1211
 8690TIP3    H147485   4.723   4.073  12.225  0.9571  1.3245  2.1105
 8690TIP3    H247486   4.775   3.950  12.297 -1.2253  0.4309  2.2246
 8691TIP3   OH247487   3.719   4.789  12.778 -0.0342 -0.2912  0.0401
 8691TIP3    H147488   3.719   4.868  12.831 -1.6193 -0.5737  0.5320
 8691TIP3    H247489   3.783   4.805  12.709  0.6850  0.8424  0.9479
 8692TIP3   OH247490   1.916   2.228  13.886 -0.1007 -0.3192 -0.1018
 8692TIP3    H147491   1.874   2.291  13.944 -0.0767 -0.2060 -0.2062
 8692TIP3    H247492   1.876   2.244  13.800 -0.1752 -0.5209 -0.1065
 8693TIP3   OH247493   4.400   4.945   1.030  0.6729  0.0042  0.0393
 8693TIP3    H147494   4.494   4.954   1.045  0.8050  0.9770 -1.2691
 8693TIP3    H247495   4.365   4.920   1.116  2.0918 -0.2097  0.5811
 8694TIP3   OH247496   1.509   0.866  15.139  0.2454  0.1353 -0.2460
 8694TIP3    H147497   1.501   0.773  15.158 -0.6207 -0.0596 -1.4766
 8694TIP3    H247498   1.595   0.890  15.174  0.6667 -1.2185 -0.3087
 8695TIP3   OH247499   4.140   4.864  13.525 -0.2828 -0.2217 -0.0140
 8695TIP3    H147500   4.199   4.914  13.581  0.1960  0.8591 -1.4227
 8695TIP3    H247501   4.053   4.899  13.546 -0.1889 -0.2999  0.5274
 8696TIP3   OH247502   1.033   2.148  15.701  0.2885 -0.2081  0.5239
 8696TIP3    H147503   1.011   2.170  15.792  2.2695  2.8367  0.4087
 8696TIP3    H247504   0.999   2.221  15.650  1.5387 -0.5592 -0.8581
 8697TIP3   OH247505   6.423   1.680  12.912 -0.1858  0.3183  0.3616
 8697TIP3    H147506   6.503   1.647  12.953 -1.0414 -0.4790  1.4518
 8697TIP3    H247507   6.395   1.752  12.969  0.8057  1.9259 -1.1223
 8698TIP3   OH247508   0.716   6.508  17.312  0.2920 -0.4570  0.5554
 8698TIP3    H147509   0.689   6.600  17.313 -1.0798 -0.8330  0.3981
 8698TIP3    H247510   0.659   6.467  17.247  1.3971 -1.2776  0.0931
 8699TIP3   OH247511   4.283   2.331  11.251 -0.4456 -0.2596 -0.0131
 8699TIP3    H147512   4.314   2.401  11.309 -0.5182 -0.2427  0.0064
 8699TIP3    H247513   4.189   2.325  11.271 -0.4343 -0.3800  0.0038
 8700TIP3   OH247514   1.805   6.049   3.592 -0.1553  0.3416  0.4747
 8700TIP3    H147515   1.714   6.075   3.581 -0.0217  1.4413  1.7038
 8700TIP3    H247516   1.855   6.111   3.539 -0.0700  0.2756  0.4765
 8701TIP3   OH247517   1.409   4.145  13.918 -0.3713 -0.1892  0.4357
 8701TIP3    H147518   1.475   4.213  13.929  1.4435 -1.9818  1.1852
 8701TIP3    H247519   1.366   4.166  13.835  1.9119  0.4217 -0.6613
 8702TIP3   OH247520   2.466   2.405  13.955  0.2619 -0.1778 -0.2293
 8702TIP3    H147521   2.503   2.332  14.003  0.5825 -0.1094 -0.3718
 8702TIP3    H247522   2.442   2.369  13.870 -3.9810 -1.3193  1.2171
 8703TIP3   OH247523   2.790   0.235   5.446  0.1120  0.5293  0.3177
 8703TIP3    H147524   2.778   0.140   5.438 -0.1150  0.6770 -1.4842
 8703TIP3    H247525   2.877   0.246   5.483  1.7433 -0.3888 -2.9122
 8704TIP3   OH247526   0.414   3.983  16.363  0.2224 -0.1581 -0.6473
 8704TIP3    H147527   0.380   3.932  16.290  1.1881 -0.7813 -0.6778
 8704TIP3    H247528   0.345   4.047  16.382 -1.1169 -1.5778 -0.4911
 8705TIP3   OH247529   0.356   5.130  15.451  0.4855  0.7730 -0.4229
 8705TIP3    H147530   0.441   5.089  15.436  0.7703  1.2805 -0.2187
 8705TIP3    H247531   0.292   5.062  15.428  0.9425  0.4152 -0.6495
 8706TIP3   OH247532   3.539   1.321   1.743 -0.4199 -0.3274  0.3414
 8706TIP3    H147533   3.580   1.376   1.810  0.5136 -0.4419 -0.1201
 8706TIP3    H247534   3.472   1.271   1.791  0.3433 -0.5377  1.2280
 8707TIP3   OH247535   1.441   1.538   1.390  0.0648  0.8150 -0.0319
 8707TIP3    H147536   1.491   1.619   1.398  0.2912  0.6475  0.2695
 8707TIP3    H247537   1.415   1.534   1.298 -1.3451  2.0489  0.2822
 8708TIP3   OH247538   2.572   6.541  13.047  0.4318 -0.8275  0.2344
 8708TIP3    H147539   2.590   6.631  13.019  0.2430 -0.3079  1.7219
 8708TIP3    H247540   2.616   6.533  13.131 -1.7244 -1.2711  1.3800
 8709TIP3   OH247541   0.799   2.728   5.778 -0.7268 -0.2819 -0.3883
 8709TIP3    H147542   0.819   2.786   5.852 -2.9915  0.4648 -0.2958
 8709TIP3    H247543   0.831   2.776   5.702  0.7682 -0.6339 -0.0288
 8710TIP3   OH247544   5.559   0.160  15.525 -0.4011  0.0304 -0.1737
 8710TIP3    H147545   5.594   0.173  15.437 -1.2437 -0.9456 -0.6780
 8710TIP3    H247546   5.586   0.071  15.550 -0.2335  0.2679  0.5188
 8711TIP3   OH247547   4.087   0.278  11.333  0.0346 -0.8794  0.1652
 8711TIP3    H147548   4.050   0.365  11.315  1.7376 -0.5926 -2.4500
 8711TIP3    H247549   4.011   0.222  11.348 -1.2625  0.4859 -1.0479
 8712TIP3   OH247550   5.245   0.049   5.672  0.0428  0.1843 -0.8278
 8712TIP3    H147551   5.217   0.130   5.713  1.7313  0.0189  0.7607
 8712TIP3    H247552   5.307   0.076   5.604 -1.3263  0.3309 -2.0816
 8713TIP3   OH247553   0.962   4.495  13.208 -0.4585  0.2256 -0.3260
 8713TIP3    H147554   0.917   4.421  13.166  1.1934 -1.0673  0.0877
 8713TIP3    H247555   0.940   4.570  13.153  0.3265 -1.1229 -2.6412
 8714TIP3   OH247556   5.955   6.159  10.449  0.1768  0.1644  0.1180
 8714TIP3    H147557   6.032   6.106  10.470 -0.4317 -0.6642  0.2857
 8714TIP3    H247558   5.884   6.121  10.501 -0.5068  0.4871 -0.5565
 8715TIP3   OH247559   1.334   4.524   4.179 -0.4662  0.2886 -0.1109
 8715TIP3    H147560   1.271   4.454   4.163 -0.3728  0.8453 -3.5890
 8715TIP3    H247561   1.419   4.483   4.161 -0.2627  0.8293 -0.3860
 8716TIP3   OH247562   5.877   5.583  15.303 -0.1237 -0.2423 -0.6008
 8716TIP3    H147563   5.838   5.596  15.216  1.2199 -1.1961 -1.3724
 8716TIP3    H247564   5.907   5.670  15.329 -1.1894  0.1891 -0.7426
 8717TIP3   OH247565   0.497   2.815  10.341 -0.0664 -0.4337  0.1788
 8717TIP3    H147566   0.471   2.891  10.393  0.6036 -0.0154 -0.0881
 8717TIP3    H247567   0.571   2.845  10.290 -0.3068 -1.0300 -0.5429
 8718TIP3   OH247568   5.570   3.723   3.739  0.1973 -0.5382  1.0844
 8718TIP3    H147569   5.490   3.774   3.727 -0.3064 -1.4764  0.2785
 8718TIP3    H247570   5.636   3.787   3.766  0.3282  1.1263 -2.5824
 8719TIP3   OH247571   4.080   0.444   1.110  0.5506  0.2003  0.3975
 8719TIP3    H147572   4.095   0.519   1.168  3.3063  0.0756  0.0033
 8719TIP3    H247573   3.993   0.458   1.075  0.7367  2.9393  0.7669
 8720TIP3   OH247574   6.374   6.662  13.802  0.2034 -0.1216 -0.1121
 8720TIP3    H147575   6.459   6.695  13.771 -0.7490  1.5112 -1.1012
 8720TIP3    H247576   6.382   6.566  13.796  1.6029  0.0329 -1.2130
 8721TIP3   OH247577   3.990   6.321  11.435 -0.2069  0.3562  0.1861
 8721TIP3    H147578   3.963   6.385  11.370 -1.1110  0.4664  0.6567
 8721TIP3    H247579   3.975   6.236  11.394  1.7160  0.4036 -0.7377
 8722TIP3   OH247580   2.464   0.577   5.302 -0.9905 -0.2312 -0.0205
 8722TIP3    H147581   2.379   0.568   5.346  0.2403 -1.7134  2.2485
 8722TIP3    H247582   2.481   0.671   5.303 -2.5093  0.0873 -0.4236
 8723TIP3   OH247583   2.587   5.134  11.067 -0.1829 -0.1536 -0.4104
 8723TIP3    H147584   2.552   5.172  11.148  0.3801  1.3604 -0.8374
 8723TIP3    H247585   2.671   5.096  11.093  0.5261  1.3142 -0.4592
 8724TIP3   OH247586   3.553   6.279  15.454  0.4326 -0.4449 -0.4241
 8724TIP3    H147587   3.575   6.336  15.527 -1.4358  0.2907 -0.3762
 8724TIP3    H247588   3.579   6.328  15.376 -1.3390  0.6136 -0.3920
 8725TIP3   OH247589   0.809   4.183   3.586 -0.9678 -0.1736 -0.0549
 8725TIP3    H147590   0.851   4.225   3.511 -0.6462 -0.3368  0.0310
 8725TIP3    H247591   0.874   4.120   3.618 -0.7063  0.5845  0.9630
 8726TIP3   OH247592   2.744   0.806   4.554 -0.3762  0.2280  0.0916
 8726TIP3    H147593   2.670   0.853   4.515 -0.8609 -1.0534 -0.5918
 8726TIP3    H247594   2.761   0.852   4.636 -1.1575  1.2767 -0.3110
 8727TIP3   OH247595   4.938   4.703  13.622 -0.2492  0.0484  0.3913
 8727TIP3    H147596   4.889   4.683  13.542 -0.0643  1.0513  0.0166
 8727TIP3    H247597   4.872   4.740  13.681 -0.4043 -0.7764  0.7480
 8728TIP3   OH247598   2.616   2.592  14.123 -0.2712 -0.0759 -0.1250
 8728TIP3    H147599   2.585   2.680  14.103  0.6467  0.3828  0.3864
 8728TIP3    H247600   2.554   2.534  14.079 -0.2281  0.8292 -1.4513
 8729TIP3   OH247601   2.237   3.012  17.375  0.0441  0.1844 -0.2570
 8729TIP3    H147602   2.226   2.916  17.377  0.3063  0.1616  0.2283
 8729TIP3    H247603   2.149   3.046  17.391  0.0923  0.0132  0.4387
 8730TIP3   OH247604   0.789   0.717   4.242 -0.5558  0.2394 -0.6126
 8730TIP3    H147605   0.744   0.801   4.245 -2.1924 -0.4966 -2.6285
 8730TIP3    H247606   0.819   0.709   4.152  1.3759 -0.4887  0.0360
 8731TIP3   OH247607   2.872   2.693  13.507  0.2889 -0.5885 -0.6498
 8731TIP3    H147608   2.941   2.657  13.563  0.1103  0.0700  0.0038
 8731TIP3    H247609   2.791   2.671  13.551  0.1822  0.8972 -0.0447
 8732TIP3   OH247610   5.812   6.185   6.325 -0.4135  0.2794 -0.2100
 8732TIP3    H147611   5.836   6.245   6.396 -2.6292 -1.2847  2.0310
 8732TIP3    H247612   5.722   6.207   6.305  0.2982  0.9966 -3.0140
 8733TIP3   OH247613   4.924   1.605  12.122 -0.0272 -0.1886  0.0636
 8733TIP3    H147614   4.901   1.597  12.214 -0.9222  0.0392 -0.1321
 8733TIP3    H247615   4.874   1.536  12.078 -0.1614  0.1648 -0.3451
 8734TIP3   OH247616   0.661   3.465   4.423 -0.3898 -0.1396 -0.2031
 8734TIP3    H147617   0.727   3.453   4.355  0.7565  1.1825  0.6075
 8734TIP3    H247618   0.607   3.387   4.418  1.2504 -1.2962 -0.8985
 8735TIP3   OH247619   6.407   6.103   4.005 -0.6463 -0.0440  0.3222
 8735TIP3    H147620   6.351   6.091   4.082 -1.1231 -1.2938 -0.1886
 8735TIP3    H247621   6.369   6.046   3.938 -1.4116  2.4089 -1.5092
 8736TIP3   OH247622   1.813   2.090  11.140  0.3286 -0.5365  0.1659
 8736TIP3    H147623   1.724   2.124  11.153  0.3548  0.0100 -0.9507
 8736TIP3    H247624   1.831   2.040  11.219 -0.6880 -0.0263  0.7469
 8737TIP3   OH247625   6.434   3.844   5.638 -0.5690  0.3364  0.3315
 8737TIP3    H147626   6.527   3.844   5.660 -0.5763  0.1314  0.3640
 8737TIP3    H247627   6.389   3.846   5.722 -0.5936  0.1576  0.3249
 8738TIP3   OH247628   1.228   2.874  11.874 -0.3575 -0.4094 -0.1975
 8738TIP3    H147629   1.179   2.940  11.923 -3.5455 -1.9327 -1.0466
 8738TIP3    H247630   1.192   2.878  11.785  1.2433 -1.5182 -0.9513
 8739TIP3   OH247631   0.862   5.314   4.111 -0.0441 -0.1601 -0.1256
 8739TIP3    H147632   0.908   5.249   4.164 -2.2140 -0.6871  1.2427
 8739TIP3    H247633   0.909   5.396   4.129 -0.4598 -0.3917  2.3929
 8740TIP3   OH247634   3.623   2.046   6.407  0.5408 -0.2008  0.6112
 8740TIP3    H147635   3.637   1.968   6.462  1.4525  0.5896  1.5363
 8740TIP3    H247636   3.708   2.088   6.403  0.3029  0.1844 -0.8035
 8741TIP3   OH247637   4.210   0.154  13.123 -0.4851  0.3076  0.0987
 8741TIP3    H147638   4.304   0.161  13.104 -0.5835  0.1052 -0.4714
 8741TIP3    H247639   4.172   0.234  13.086 -0.7559 -0.3476 -1.0867
 8742TIP3   OH247640   5.571   6.077   3.971 -0.3565  0.1104  0.1934
 8742TIP3    H147641   5.661   6.087   4.003 -0.3394 -0.6775  0.4195
 8742TIP3    H247642   5.521   6.050   4.048 -0.5285 -0.7298 -0.1936
 8743TIP3   OH247643   5.978   4.934  12.946  0.4279  0.1867  0.0185
 8743TIP3    H147644   5.928   4.935  13.027 -0.7249 -1.5632 -0.6092
 8743TIP3    H247645   5.923   4.979  12.882 -0.2356 -1.3838 -0.5742
 8744TIP3   OH247646   0.253   5.799  15.779  0.3795 -0.1786  0.6243
 8744TIP3    H147647   0.183   5.814  15.714  0.9197 -3.3916 -0.9083
 8744TIP3    H247648   0.321   5.862  15.755 -1.0135  1.4296  0.6744
 8745TIP3   OH247649   3.402   6.447   3.828 -0.7863  0.7240  0.3966
 8745TIP3    H147650   3.476   6.398   3.791 -0.8501  1.1053 -0.2545
 8745TIP3    H247651   3.378   6.398   3.906  0.5429  0.9267  0.9555
 8746TIP3   OH247652   3.880   5.681  12.091  0.2734  0.0479  0.2413
 8746TIP3    H147653   3.814   5.629  12.046  1.4055 -0.3889 -0.9907
 8746TIP3    H247654   3.844   5.769  12.093 -0.3157 -0.1657 -0.4735
 8747TIP3   OH247655   1.816   5.752   3.118 -0.3342  0.1636 -0.5591
 8747TIP3    H147656   1.820   5.806   3.197 -2.0452 -1.2276  0.5675
 8747TIP3    H247657   1.903   5.713   3.111 -0.6560 -1.1320  1.7595
 8748TIP3   OH247658   0.229   1.174   5.027 -0.2795  0.0313  0.2188
 8748TIP3    H147659   0.186   1.103   4.980  1.7068 -1.2449  0.1913
 8748TIP3    H247660   0.302   1.132   5.072  2.8225  2.3482 -2.1380
 8749TIP3   OH247661   2.393   5.455  16.336  0.0401 -0.5079 -0.0895
 8749TIP3    H147662   2.369   5.491  16.251  0.3880  0.8337  0.3520
 8749TIP3    H247663   2.479   5.493  16.354 -0.9832  1.0819  1.8452
 8750TIP3   OH247664   0.458   3.247  17.402 -0.1017  0.2216  0.3524
 8750TIP3    H147665   0.488   3.327  17.443 -0.8017  0.5534  0.2309
 8750TIP3    H247666   0.453   3.268  17.308  0.2335 -0.1315  0.2514
 8751TIP3   OH247667   0.781   6.522   1.348 -0.2407 -0.0179 -0.1209
 8751TIP3    H147668   0.773   6.492   1.257 -0.2416  1.8166 -0.7681
 8751TIP3    H247669   0.700   6.569   1.365  0.1964  0.5201  0.4920
 8752TIP3   OH247670   2.927   3.967  14.720 -0.1145 -0.1698  0.0439
 8752TIP3    H147671   2.897   4.032  14.656  2.0301  3.0010  1.9696
 8752TIP3    H247672   2.863   3.972  14.790  0.5760  0.6897  0.6358
 8753TIP3   OH247673   3.529   0.841   1.155 -0.2628  0.3324 -0.7587
 8753TIP3    H147674   3.536   0.889   1.072 -2.0214 -0.5393 -1.4571
 8753TIP3    H247675   3.455   0.782   1.143 -1.1919  0.8492  1.7835
 8754TIP3   OH247676   2.568   3.726   5.494 -0.0527  0.2027 -0.0648
 8754TIP3    H147677   2.490   3.776   5.517 -1.1216 -1.6296  0.5132
 8754TIP3    H247678   2.633   3.792   5.468 -1.5563  1.8077  0.1130
 8755TIP3   OH247679   3.499   5.423  12.823  0.5354 -0.3498  0.0540
 8755TIP3    H147680   3.587   5.388  12.806  0.4717 -0.6958  0.4225
 8755TIP3    H247681   3.467   5.373  12.898 -0.2069 -0.6214 -0.4310
 8756TIP3   OH247682   2.207   0.502   5.422  0.4545 -0.2406  0.8759
 8756TIP3    H147683   2.117   0.486   5.392  1.4698 -0.7190 -2.2422
 8756TIP3    H247684   2.225   0.430   5.483 -0.5869 -1.4162 -0.1413
 8757TIP3   OH247685   5.583   4.673  16.367 -0.5200  0.1711  0.1358
 8757TIP3    H147686   5.539   4.731  16.429 -0.7188 -1.3992  1.5404
 8757TIP3    H247687   5.676   4.683  16.386 -0.4179  1.2006 -0.7545
 8758TIP3   OH247688   6.342   6.272  12.481  0.0028  0.2520 -0.6197
 8758TIP3    H147689   6.369   6.203  12.541 -0.7976 -1.8995 -2.6105
 8758TIP3    H247690   6.247   6.273  12.485 -0.0172  0.8996 -0.9999
 8759TIP3   OH247691   0.392   4.354   1.110 -0.4295  0.6856  0.1638
 8759TIP3    H147692   0.364   4.440   1.141  0.5003  1.1527 -0.2589
 8759TIP3    H247693   0.322   4.295   1.139  0.4102  1.0351  3.2686
 8760TIP3   OH247694   0.539   3.066  11.606 -0.8228  0.0018  0.2381
 8760TIP3    H147695   0.511   3.150  11.643  1.5092  0.1610  1.8635
 8760TIP3    H247696   0.556   3.011  11.682 -0.5832 -1.3731 -0.7704
 8761TIP3   OH247697   0.349   0.014   0.293 -0.2360 -0.1075  0.4473
 8761TIP3    H147698   0.369  -0.079   0.292  1.7894  0.2531  1.9654
 8761TIP3    H247699   0.422   0.055   0.248 -0.3090  0.8599  1.1754
 8762TIP3   OH247700   5.571   6.486  15.784  0.0156 -0.1182  0.2783
 8762TIP3    H147701   5.487   6.503  15.827 -0.6438 -3.1332  0.4096
 8762TIP3    H247702   5.633   6.473  15.856  0.9470  2.9099  0.2003
 8763TIP3   OH247703   0.395   1.474   1.186  0.3139 -0.0094  0.0753
 8763TIP3    H147704   0.388   1.520   1.102 -2.5429  3.2136  1.8257
 8763TIP3    H247705   0.308   1.481   1.225  1.5096 -1.2657  3.3688
 8764TIP3   OH247706   4.515   6.388  12.782 -0.3861  0.4053 -0.8328
 8764TIP3    H147707   4.507   6.452  12.712  1.3995 -0.3500 -1.8096
 8764TIP3    H247708   4.609   6.376  12.793 -0.6369 -0.2720  1.0079
 8765TIP3   OH247709   1.457   3.433  15.080 -0.0861 -0.1426  0.3036
 8765TIP3    H147710   1.424   3.490  15.010 -0.9998 -0.1032  0.7395
 8765TIP3    H247711   1.480   3.493  15.151  0.9018 -0.1771  0.0254
 8766TIP3   OH247712   3.587   0.477  13.654  0.6392 -0.1072 -0.2730
 8766TIP3    H147713   3.677   0.482  13.686  0.8412 -0.1118 -0.8422
 8766TIP3    H247714   3.594   0.451  13.562 -0.0206 -1.8662  0.1280
 8767TIP3   OH247715   1.083   3.378  12.237  0.0460  0.1651  0.1328
 8767TIP3    H147716   1.002   3.354  12.282  0.1259 -0.8530 -0.2236
 8767TIP3    H247717   1.102   3.467  12.265 -1.4034  0.5604 -0.0673
 8768TIP3   OH247718   4.140   2.572  12.750 -0.7572 -0.4898 -0.7062
 8768TIP3    H147719   4.128   2.561  12.845  1.2065  1.5562 -0.1304
 8768TIP3    H247720   4.070   2.631  12.724 -0.7033 -0.2359 -0.2989
 8769TIP3   OH247721   1.786   3.335   2.696 -0.4399 -0.0650 -0.0863
 8769TIP3    H147722   1.840   3.336   2.617 -0.1231  1.5191  0.1065
 8769TIP3    H247723   1.847   3.314   2.767 -0.6682 -1.1914 -0.2018
 8770TIP3   OH247724   4.911   4.266  16.273 -0.6448 -0.6976 -0.8388
 8770TIP3    H147725   4.986   4.267  16.332 -1.3146 -2.4095  0.1131
 8770TIP3    H247726   4.858   4.341  16.301  0.8616  0.8293 -1.8336
 8771TIP3   OH247727   2.182   2.014   0.533 -0.2109  0.1274  0.0979
 8771TIP3    H147728   2.173   2.015   0.629  0.1952  0.2009  0.1353
 8771TIP3    H247729   2.220   1.929   0.514 -2.3809 -0.8399 -0.1949
 8772TIP3   OH247730   1.711   6.466   4.227 -0.6159  0.1575 -0.2178
 8772TIP3    H147731   1.646   6.512   4.173  0.0946  2.2158  0.5831
 8772TIP3    H247732   1.752   6.535   4.279 -1.3119 -1.7158  3.0641
 8773TIP3   OH247733   6.658   0.726  11.492  0.5214  0.0981 -0.2867
 8773TIP3    H147734   6.592   0.717  11.423 -0.3662 -0.0058  0.5463
 8773TIP3    H247735   6.673   0.820  11.499  0.4406  0.1238 -0.4631
 8774TIP3   OH247736   1.836   5.018  14.016  0.2175 -0.1120  0.1184
 8774TIP3    H147737   1.859   5.026  14.109  2.3575  1.9348 -0.4991
 8774TIP3    H247738   1.920   5.006  13.971 -0.6882 -0.2529 -1.6268
 8775TIP3   OH247739   1.394   0.479  17.412 -0.5139  0.1681 -0.1844
 8775TIP3    H147740   1.408   0.551  17.473 -0.9374  0.3888 -0.3389
 8775TIP3    H247741   1.332   0.514  17.348  0.7497  0.2907 -1.3676
 8776TIP3   OH247742   6.307   5.765  11.800 -0.7408 -0.0139 -0.1574
 8776TIP3    H147743   6.299   5.679  11.840  1.5757 -0.3621 -0.3580
 8776TIP3    H247744   6.376   5.809  11.849 -0.8829  1.1907 -0.9895
 8777TIP3   OH247745   0.453   0.393  13.690 -0.1428 -0.3115 -0.1672
 8777TIP3    H147746   0.547   0.376  13.697  0.7804  3.4718 -1.3076
 8777TIP3    H247747   0.435   0.460  13.756 -2.1194 -0.9455  0.0225
 8778TIP3   OH247748   0.062   1.724   2.425 -0.4759 -0.1375  0.1121
 8778TIP3    H147749   0.073   1.633   2.454  0.2029  0.1938  0.9564
 8778TIP3    H247750  -0.030   1.731   2.402 -1.0055 -0.5318  1.9345
 8779TIP3   OH247751   2.487   6.573  15.940  0.2007  0.1149 -0.2980
 8779TIP3    H147752   2.433   6.652  15.950  0.7961  0.5991 -0.8223
 8779TIP3    H247753   2.529   6.584  15.854 -0.8034 -1.4465 -1.0234
 8780TIP3   OH247754   3.547   4.760   2.113  0.6159 -0.1006  0.1092
 8780TIP3    H147755   3.570   4.747   2.021 -1.6773 -0.0224 -0.5357
 8780TIP3    H247756   3.592   4.841   2.138  1.5017 -0.2891 -0.8353
 8781TIP3   OH247757   6.201   3.072  12.318  0.0286 -0.0056  0.3726
 8781TIP3    H147758   6.195   3.000  12.255  1.3930 -0.0635  0.2743
 8781TIP3    H247759   6.245   3.142  12.270 -2.0178  1.2486  0.2041
 8782TIP3   OH247760   3.662   0.711   2.286  0.1563 -0.2846  0.2805
 8782TIP3    H147761   3.722   0.785   2.280  0.5285 -0.3443  2.4057
 8782TIP3    H247762   3.589   0.744   2.339  1.1292 -1.8421  2.7725
 8783TIP3   OH247763   6.319   1.066   3.154 -0.5683 -0.1520  0.6678
 8783TIP3    H147764   6.259   1.010   3.105 -0.7360  0.3856  0.2486
 8783TIP3    H247765   6.387   1.007   3.185  0.7690 -0.1903 -2.0953
 8784TIP3   OH247766   0.069   5.704  16.806 -0.2345  0.3866  0.0562
 8784TIP3    H147767  -0.003   5.697  16.743  1.0207  2.3449 -1.7463
 8784TIP3    H247768   0.062   5.794  16.840  0.6844  0.2208  0.7080
 8785TIP3   OH247769   2.742   2.432  15.517 -0.4011  0.0905 -0.4825
 8785TIP3    H147770   2.828   2.446  15.558 -0.4016  0.5444 -0.6267
 8785TIP3    H247771   2.681   2.473  15.579 -0.5518 -0.5525 -0.2010
 8786TIP3   OH247772   1.352   5.732  11.408  0.2171 -0.3146  0.0910
 8786TIP3    H147773   1.351   5.742  11.503  1.9378 -1.4243  0.2714
 8786TIP3    H247774   1.283   5.667  11.391 -0.2933  0.0991  0.5334
 8787TIP3   OH247775   4.757   0.188  15.110  0.5809 -0.4836  0.6219
 8787TIP3    H147776   4.669   0.154  15.096  0.8453 -1.0628  0.3599
 8787TIP3    H247777   4.793   0.135  15.181  0.6161 -0.0513  0.9331
 8788TIP3   OH247778   4.005   0.074   2.801  0.7646 -0.0324 -0.0622
 8788TIP3    H147779   4.004   0.154   2.748 -0.3582 -0.9079 -1.4434
 8788TIP3    H247780   4.092   0.072   2.841  1.4638  0.9319 -1.4621
 8789TIP3   OH247781   2.096   3.639  16.911  0.0195 -0.4401  0.1060
 8789TIP3    H147782   2.190   3.652  16.899  0.2228  0.1471  1.9257
 8789TIP3    H247783   2.074   3.696  16.985 -1.7081 -0.8337 -0.0666
 8790TIP3   OH247784   1.209   1.369   4.045  0.1934  0.2833  0.3268
 8790TIP3    H147785   1.155   1.446   4.028  0.8735  0.5641 -0.6461
 8790TIP3    H247786   1.149   1.305   4.082 -1.3590 -0.1933 -2.6713
 8791TIP3   OH247787   3.403   0.363  14.395 -0.2054 -0.0598 -0.2271
 8791TIP3    H147788   3.380   0.282  14.440  1.2831 -1.9856 -2.6672
 8791TIP3    H247789   3.328   0.421  14.410 -0.9862 -1.5716  2.2477
 8792TIP3   OH247790   2.776   4.082   4.435  0.1589  0.4453 -0.1325
 8792TIP3    H147791   2.851   4.038   4.475 -0.1886 -0.4979 -0.4862
 8792TIP3    H247792   2.720   4.011   4.405 -1.7146  1.0905  1.5961
 8793TIP3   OH247793   0.209   0.315   4.130 -0.1724  0.3727  0.0499
 8793TIP3    H147794   0.188   0.349   4.217  0.0799 -0.0518  0.2766
 8793TIP3    H247795   0.249   0.390   4.084 -0.2154  0.5675  0.3273
 8794TIP3   OH247796   3.797   3.084   2.328 -0.0980 -0.0667  0.0630
 8794TIP3    H147797   3.735   3.148   2.294 -1.7417 -1.2751  0.6567
 8794TIP3    H247798   3.806   3.020   2.258 -0.7399 -0.7032  0.5520
 8795TIP3   OH247799   5.421   2.843  14.756 -0.0702  0.7972 -0.0179
 8795TIP3    H147800   5.434   2.755  14.722  1.0632  1.0011 -0.1648
 8795TIP3    H247801   5.489   2.854  14.822  0.6081  1.9870 -0.8749
 8796TIP3   OH247802   6.751   4.154  14.645  0.2828 -0.5843 -0.2215
 8796TIP3    H147803   6.762   4.066  14.608  1.9094 -1.1521  1.4720
 8796TIP3    H247804   6.658   4.173  14.635 -0.0346 -2.3504 -0.9431
 8797TIP3   OH247805   3.653   2.774   0.927  0.3319  0.4155  0.4900
 8797TIP3    H147806   3.689   2.814   1.006  0.7292  1.1016 -0.0322
 8797TIP3    H247807   3.723   2.717   0.895 -0.7869 -2.1220  2.1459
 8798TIP3   OH247808   2.352   6.215  11.481  0.1407 -0.1537 -0.1364
 8798TIP3    H147809   2.381   6.242  11.568  0.3447 -0.7834 -0.0037
 8798TIP3    H247810   2.299   6.288  11.450 -0.5729 -0.2512  0.8301
 8799TIP3   OH247811   5.839   3.828   0.982  0.5437 -0.1857  0.3964
 8799TIP3    H147812   5.830   3.757   1.045  0.1331  0.4206  1.0383
 8799TIP3    H247813   5.933   3.833   0.964  0.5850 -0.8173  0.4220
 8800TIP3   OH247814   5.878   5.131  11.245 -0.5666  0.5106 -0.3510
 8800TIP3    H147815   5.902   5.087  11.327 -0.5564 -0.5585 -0.9162
 8800TIP3    H247816   5.813   5.073  11.205 -0.4824  0.9687 -1.1612
 8801TIP3   OH247817   1.451   0.177   4.221 -0.7252 -0.0141  0.3707
 8801TIP3    H147818   1.529   0.221   4.188 -0.1771 -1.4389 -0.3089
 8801TIP3    H247819   1.400   0.156   4.142 -1.6253  0.5580  0.7771
 8802TIP3   OH247820   1.287   5.695   2.224  0.3958 -0.2669 -0.3914
 8802TIP3    H147821   1.336   5.637   2.165  0.6815 -0.4269 -0.0047
 8802TIP3    H247822   1.195   5.672   2.209  0.5107 -0.9019 -0.1687
 8803TIP3   OH247823   1.370   1.869   3.580  0.3171 -0.5687  0.1998
 8803TIP3    H147824   1.282   1.833   3.590  0.1783 -0.8247 -1.6691
 8803TIP3    H247825   1.414   1.809   3.519  0.2688  1.9679 -2.5475
 8804TIP3   OH247826   1.977   4.355   6.364  0.2957  0.4916  0.2002
 8804TIP3    H147827   2.064   4.381   6.394  0.6539 -0.1722 -0.2364
 8804TIP3    H247828   1.929   4.437   6.355  0.5497  0.7969  1.4236
 8805TIP3   OH247829   6.427   4.295   0.361  0.5130  0.1303  0.0703
 8805TIP3    H147830   6.374   4.217   0.372  3.4826 -2.4897 -2.2410
 8805TIP3    H247831   6.416   4.319   0.268  1.4304  1.0408  0.1682
 8806TIP3   OH247832   0.427   5.473  12.597  0.1724 -0.0571 -0.5226
 8806TIP3    H147833   0.486   5.517  12.659  1.0438 -0.9369 -0.6870
 8806TIP3    H247834   0.339   5.489  12.631  0.3857  2.4031 -0.9969
 8807TIP3   OH247835   2.235   3.610  10.593 -0.6528 -0.1396 -0.1466
 8807TIP3    H147836   2.208   3.560  10.515 -0.1343 -1.8158  0.7016
 8807TIP3    H247837   2.200   3.561  10.667 -1.0640  1.3886  0.7092
 8808TIP3   OH247838   6.751   4.939   4.531  0.1008  0.0973 -0.1881
 8808TIP3    H147839   6.792   4.879   4.469 -0.2435 -1.2893  0.8935
 8808TIP3    H247840   6.761   4.898   4.616 -1.9322  0.5663  0.3400
 8809TIP3   OH247841   6.264   2.756  13.383  0.0876  0.0415 -0.4806
 8809TIP3    H147842   6.216   2.839  13.389 -0.1666 -0.0705 -0.9110
 8809TIP3    H247843   6.356   2.781  13.377 -0.0290  0.3175 -1.1976
 8810TIP3   OH247844   2.517   1.079   0.077  0.1544  0.3958 -0.4043
 8810TIP3    H147845   2.504   1.172   0.093  0.1314  0.4167 -0.5463
 8810TIP3    H247846   2.493   1.037   0.160  0.4384  0.5385 -0.2466
 8811TIP3   OH247847   3.817   3.066   5.295  0.9482 -0.5552 -0.1318
 8811TIP3    H147848   3.852   3.075   5.383  0.9224  0.5830 -0.2140
 8811TIP3    H247849   3.889   3.092   5.237  1.3416 -2.4020 -0.5230
 8812TIP3   OH247850   0.179   3.333  10.504 -0.0312 -0.6306  0.5545
 8812TIP3    H147851   0.163   3.318  10.597  1.8250  1.8296  1.3859
 8812TIP3    H247852   0.244   3.403  10.502  2.2126 -2.5456 -2.5626
 8813TIP3   OH247853   5.034   2.837  12.074 -0.2242  0.3667 -0.1667
 8813TIP3    H147854   4.990   2.780  12.012  1.9150 -3.9167  1.8098
 8813TIP3    H247855   5.093   2.891  12.021 -1.0964 -0.4855 -2.0757
 8814TIP3   OH247856   5.228   4.966  16.069 -0.1973  0.2827 -0.2775
 8814TIP3    H147857   5.296   4.914  16.112  0.4075  0.1323 -1.3677
 8814TIP3    H247858   5.166   4.986  16.138 -1.1367 -2.9738 -0.0192
 8815TIP3   OH247859   3.106   1.832   5.006  0.2961  0.0683 -0.3391
 8815TIP3    H147860   3.188   1.790   5.031  0.5557 -0.4548 -1.9474
 8815TIP3    H247861   3.116   1.923   5.032  1.0519 -0.1660  0.2151
 8816TIP3   OH247862   3.111   4.050   0.685 -0.5773  0.5882 -0.0576
 8816TIP3    H147863   3.129   4.141   0.665  0.2598  0.5793  0.5842
 8816TIP3    H247864   3.066   4.052   0.770 -0.8748  0.4173 -0.2072
 8817TIP3   OH247865   2.900   2.278   2.188 -0.3387 -0.3830  0.5994
 8817TIP3    H147866   2.947   2.327   2.255 -0.0798 -1.0607  0.9273
 8817TIP3    H247867   2.910   2.186   2.214  0.3447 -0.7138 -0.7307
 8818TIP3   OH247868   3.444   5.804  13.188 -0.2192  0.2382 -0.7631
 8818TIP3    H147869   3.475   5.731  13.133 -0.2718 -0.2304 -0.1818
 8818TIP3    H247870   3.501   5.877  13.165 -1.1028  0.4476 -2.4262
 8819TIP3   OH247871   6.704   3.827   5.577  0.2916 -0.1591  0.0519
 8819TIP3    H147872   6.755   3.907   5.561 -0.4901  0.5005  0.7299
 8819TIP3    H247873   6.659   3.810   5.495 -2.8783  2.5898  0.9971
 8820TIP3   OH247874   2.317   1.324   5.686 -0.0317 -0.7324  0.0656
 8820TIP3    H147875   2.250   1.264   5.719 -0.0093 -0.9569 -0.2901
 8820TIP3    H247876   2.289   1.343   5.596  0.2799 -0.6770 -0.0192
 8821TIP3   OH247877   0.809   5.109  16.500  0.6908  0.1073  1.4242
 8821TIP3    H147878   0.816   5.037  16.437 -0.7663  1.2305 -0.1601
 8821TIP3    H247879   0.741   5.080  16.561 -0.2271  0.2644  0.5226
 8822TIP3   OH247880   1.907   5.062   3.240  0.1710 -0.4375  0.2758
 8822TIP3    H147881   1.847   5.082   3.312 -0.8340 -0.4685 -0.5271
 8822TIP3    H247882   1.957   5.143   3.227 -0.2142 -0.1684  0.4682
 8823TIP3   OH247883   0.851   3.698  15.177  0.4180  0.2276 -0.1495
 8823TIP3    H147884   0.864   3.768  15.242 -0.1894  1.0629 -0.8959
 8823TIP3    H247885   0.760   3.671  15.188 -0.0774  1.2499 -1.4522
 8824TIP3   OH247886   1.501   2.614   0.421  0.0219  0.3455 -1.1917
 8824TIP3    H147887   1.542   2.696   0.394  0.4450  0.7025  0.4554
 8824TIP3    H247888   1.519   2.554   0.349  1.4695  1.1266 -1.5216
 8825TIP3   OH247889   4.360   5.444   1.298 -0.2233 -0.1308  0.1164
 8825TIP3    H147890   4.355   5.537   1.318  0.2068  0.9026 -3.7283
 8825TIP3    H247891   4.454   5.426   1.294 -0.2890 -1.0555  1.7483
 8826TIP3   OH247892   1.776   0.853   1.328 -0.0458  0.4604  0.0190
 8826TIP3    H147893   1.695   0.851   1.277 -1.0726 -1.0150  1.6430
 8826TIP3    H247894   1.796   0.947   1.337 -2.7326  0.9808  1.3331
 8827TIP3   OH247895   5.244   0.479   3.736 -0.0640  0.0184 -0.0901
 8827TIP3    H147896   5.318   0.485   3.676  1.4079  0.4374  1.6840
 8827TIP3    H247897   5.202   0.565   3.732  0.3238  0.2063 -0.1695
 8828TIP3   OH247898   2.539   5.180  13.925 -0.2361  0.3748 -0.0014
 8828TIP3    H147899   2.465   5.130  13.958 -0.0590  0.0611 -0.0739
 8828TIP3    H247900   2.514   5.271  13.937 -0.9130  0.2763 -0.6700
 8829TIP3   OH247901   2.662   5.155  15.064 -0.4966  0.5686  0.1106
 8829TIP3    H147902   2.635   5.106  15.142  1.4666  1.5165  1.4727
 8829TIP3    H247903   2.581   5.169  15.016 -1.4596 -1.9077  0.8658
 8830TIP3   OH247904   6.460   4.366  14.369 -0.0153  0.0623  0.2133
 8830TIP3    H147905   6.426   4.455  14.363 -0.9953 -0.3947 -1.6583
 8830TIP3    H247906   6.542   4.368  14.319  1.2165  0.4312  2.1503
 8831TIP3   OH247907   6.144   0.421   3.672  0.3807 -0.2535  0.6967
 8831TIP3    H147908   6.225   0.469   3.656 -0.1026  1.4438  2.9466
 8831TIP3    H247909   6.074   0.484   3.654 -0.4517 -1.2908  0.0837
 8832TIP3   OH247910   2.975   5.707  16.725  0.3829  0.2236 -0.5045
 8832TIP3    H147911   3.007   5.770  16.789 -1.2111 -0.5055  1.1072
 8832TIP3    H247912   2.940   5.635  16.777 -0.4283 -0.6951 -2.2151
 8833TIP3   OH247913   3.495   3.155  17.137 -0.7430 -0.6989  0.1491
 8833TIP3    H147914   3.548   3.182  17.062 -0.3679 -0.7681  0.3836
 8833TIP3    H247915   3.477   3.237  17.185  0.4947 -0.8521  0.9231
 8834TIP3   OH247916   6.654   4.048  15.600  0.5383 -0.2952  0.3365
 8834TIP3    H147917   6.664   4.049  15.695  1.6122 -2.1365  0.2816
 8834TIP3    H247918   6.562   4.023  15.586  0.9941 -2.4725  0.9308
 8835TIP3   OH247919   4.267   2.312   0.931 -0.7117  0.1268 -0.1987
 8835TIP3    H147920   4.233   2.374   0.866 -0.2621 -1.1286 -1.6645
 8835TIP3    H247921   4.362   2.312   0.918 -0.5189  0.4635  1.0355
 8836TIP3   OH247922   1.173   0.172   3.073  0.0831 -0.7420  0.3328
 8836TIP3    H147923   1.227   0.250   3.089 -0.8156 -0.3788  1.7118
 8836TIP3    H247924   1.237   0.100   3.066  0.8226 -0.1277  0.6386
 8837TIP3   OH247925   2.473   6.210   1.288 -0.1454  0.0482  0.7831
 8837TIP3    H147926   2.560   6.251   1.289  0.4700 -1.2239  1.4401
 8837TIP3    H247927   2.484   6.129   1.337 -1.0694 -1.4610 -1.3895
 8838TIP3   OH247928   5.231   4.210   2.376  0.1020 -0.8071 -0.3682
 8838TIP3    H147929   5.220   4.303   2.399 -2.1214 -0.8390 -1.0598
 8838TIP3    H247930   5.294   4.211   2.304 -1.6301  0.4809 -1.9856
 8839TIP3   OH247931   3.023   6.359   1.615 -0.0220  0.2608 -0.4355
 8839TIP3    H147932   3.111   6.362   1.654 -0.5245 -0.1582  0.7724
 8839TIP3    H247933   3.014   6.270   1.583  0.5020  0.6818 -1.8594
 8840TIP3   OH247934   2.500   3.767   0.914  0.2134  0.5775 -0.0444
 8840TIP3    H147935   2.440   3.713   0.966  0.5026  0.3777  0.0888
 8840TIP3    H247936   2.563   3.704   0.878  0.7187  0.8572  0.3328
 8841TIP3   OH247937   4.731   0.312   2.731 -0.4121  0.2597 -0.5352
 8841TIP3    H147938   4.678   0.242   2.693 -0.1471  0.4801 -1.3354
 8841TIP3    H247939   4.761   0.277   2.815 -0.1580 -0.6438 -0.9941
 8842TIP3   OH247940   3.428   4.922  17.290 -0.0151  0.2346 -0.1868
 8842TIP3    H147941   3.366   4.894  17.357  0.2853 -0.8036 -0.3178
 8842TIP3    H247942   3.489   4.980  17.335 -0.3757  0.3062  0.2107
 8843TIP3   OH247943   2.678   5.214  13.309 -0.1673 -0.9570  0.4263
 8843TIP3    H147944   2.759   5.252  13.276  0.4059 -1.7455  0.8752
 8843TIP3    H247945   2.693   5.119  13.306 -1.0685 -1.1128  0.5234
 8844TIP3   OH247946   1.332   1.495  12.233 -0.4507  0.3242 -0.4065
 8844TIP3    H147947   1.282   1.463  12.308 -0.6070  0.1020 -0.6048
 8844TIP3    H247948   1.266   1.523  12.170 -0.3222  0.3360 -0.5380
 8845TIP3   OH247949   1.522   4.902  12.889  0.1500  0.2833 -0.5234
 8845TIP3    H147950   1.608   4.861  12.876 -0.2590 -0.7245 -0.1679
 8845TIP3    H247951   1.530   4.947  12.973  1.0593  2.2115 -1.5695
 8846TIP3   OH247952   6.716   3.493   3.156 -0.1782  0.0424 -0.0445
 8846TIP3    H147953   6.744   3.538   3.077  0.3016  0.6890  0.4722
 8846TIP3    H247954   6.769   3.414   3.160  1.4842  1.1537  0.8164
 8847TIP3   OH247955   4.310   5.700   1.348 -0.4219 -0.2608 -0.2085
 8847TIP3    H147956   4.220   5.732   1.348 -1.0176 -1.6693  2.4014
 8847TIP3    H247957   4.364   5.779   1.362 -1.3259  0.4039 -0.3865
 8848TIP3   OH247958   1.410   2.093  13.445 -0.4645  0.7693  0.0263
 8848TIP3    H147959   1.388   2.091  13.538  1.0552  0.6772  0.4136
 8848TIP3    H247960   1.418   2.001  13.420 -0.0764  0.7975  0.0266
 8849TIP3   OH247961   2.567   1.641   1.460 -0.1577 -0.4029 -0.8529
 8849TIP3    H147962   2.569   1.623   1.366  1.8078  3.2779 -1.7182
 8849TIP3    H247963   2.659   1.652   1.484 -0.7300  0.6486  1.0497
 8850TIP3   OH247964   1.328   3.925  11.012  0.1573 -0.2722  0.7048
 8850TIP3    H147965   1.302   4.013  10.984 -1.4893 -0.5890  1.1241
 8850TIP3    H247966   1.252   3.870  10.991  0.9950 -1.5206  0.8433
 8851TIP3   OH247967   4.465   1.569  16.003 -0.2743 -0.4030 -0.3684
 8851TIP3    H147968   4.373   1.580  16.025 -0.1333 -0.2867  0.1710
 8851TIP3    H247969   4.464   1.522  15.920 -0.8219 -0.1665 -0.4993
 8852TIP3   OH247970   1.930   1.872   4.727  0.3683 -0.3507 -0.2318
 8852TIP3    H147971   1.974   1.922   4.796 -0.6334 -0.9385  0.8834
 8852TIP3    H247972   1.882   1.937   4.677  0.6760  0.0291 -0.0397
 8853TIP3   OH247973   5.100   1.475   6.392 -0.0178  0.2014  0.1392
 8853TIP3    H147974   5.029   1.537   6.374 -0.3900 -0.1241  0.4684
 8853TIP3    H247975   5.136   1.453   6.306  0.0738  0.8241  0.0165
 8854TIP3   OH247976   6.558   3.524  13.988  0.1807 -0.5816  0.2874
 8854TIP3    H147977   6.488   3.482  14.037  0.1210 -1.1795 -0.2981
 8854TIP3    H247978   6.539   3.505  13.896 -0.0157  0.9868 -0.0397
 8855TIP3   OH247979   3.510   1.586   1.488  0.0611 -0.0916 -0.0826
 8855TIP3    H147980   3.430   1.619   1.529 -0.6847 -2.1869  0.2445
 8855TIP3    H247981   3.580   1.612   1.548 -0.8000 -1.4065  1.5505
 8856TIP3   OH247982   5.448   5.684  16.660  0.1427 -0.0298 -0.6144
 8856TIP3    H147983   5.380   5.749  16.641  0.1885  0.5975  1.1443
 8856TIP3    H247984   5.515   5.734  16.707  0.5863 -1.1839 -0.0087
 8857TIP3   OH247985   0.599   2.786   3.895  0.3511  0.4510  0.1585
 8857TIP3    H147986   0.539   2.792   3.821 -0.1630  1.8627  0.6576
 8857TIP3    H247987   0.577   2.704   3.938  0.5602 -0.3133 -1.1536
 8858TIP3   OH247988   4.121   6.092   5.026  0.4697  0.0610  0.1844
 8858TIP3    H147989   4.168   6.174   5.041  1.2819 -0.4439  0.4602
 8858TIP3    H247990   4.188   6.032   4.993  0.2679 -1.0119  1.6429
 8859TIP3   OH247991   3.947   2.196  12.037 -0.2376  0.5162 -0.5944
 8859TIP3    H147992   3.927   2.111  11.997 -0.9973  0.6900 -0.5915
 8859TIP3    H247993   3.864   2.225  12.074  0.2784  0.7137  0.4427
 8860TIP3   OH247994   1.367   4.783   6.364 -0.3406  0.1308  0.2076
 8860TIP3    H147995   1.450   4.736   6.365 -0.3007  0.0796  3.0743
 8860TIP3    H247996   1.328   4.765   6.450 -2.9547  0.8156 -0.7171
 8861TIP3   OH247997   3.749   6.596   4.730  0.0319  0.1385  0.2256
 8861TIP3    H147998   3.762   6.688   4.755  0.8192  0.4836 -1.3539
 8861TIP3    H247999   3.681   6.600   4.663  0.1557 -0.4223  0.0682
 8862TIP3   OH248000   4.391   1.269  11.978  0.3949  0.2932 -0.2950
 8862TIP3    H148001   4.475   1.271  12.023 -0.0379 -0.9999  0.6250
 8862TIP3    H248002   4.328   1.303  12.041 -0.0375 -0.4346 -0.3146
 8863TIP3   OH248003   0.069   5.102   2.603  0.7315 -0.0602 -0.3968
 8863TIP3    H148004   0.092   5.104   2.696  1.1230 -0.6884 -0.4691
 8863TIP3    H248005  -0.025   5.116   2.601  0.7716  0.3006  0.0718
 8864TIP3   OH248006   2.064   0.414  13.281  0.0028 -0.4288  0.4165
 8864TIP3    H148007   2.107   0.433  13.365  0.7106  1.3882 -0.2973
 8864TIP3    H248008   2.126   0.446  13.215 -1.0714 -0.6899 -0.7485
 8865TIP3   OH248009   5.792   6.242   3.181 -0.1555  0.3514  0.3176
 8865TIP3    H148010   5.834   6.198   3.106  0.2928  1.4397 -0.0881
 8865TIP3    H248011   5.734   6.307   3.141 -2.5121 -1.2785  0.8538
 8866TIP3   OH248012   4.799   2.158  10.832  0.8549  0.3047  0.3099
 8866TIP3    H148013   4.755   2.210  10.765  0.4944  0.4011  0.6133
 8866TIP3    H248014   4.876   2.123  10.789  0.9527  0.8631  0.0187
 8867TIP3   OH248015   4.879   1.776   1.440  0.0561  0.2333  0.1723
 8867TIP3    H148016   4.816   1.828   1.490 -0.1677  0.9347 -0.8043
 8867TIP3    H248017   4.961   1.783   1.490 -0.3067  0.4261  0.7456
 8868TIP3   OH248018   0.841   1.041   0.478  0.1319 -0.1619  0.8102
 8868TIP3    H148019   0.915   1.076   0.526  0.8922  1.7121 -1.5470
 8868TIP3    H248020   0.781   1.009   0.546  0.5868  3.3600  3.0883
 8869TIP3   OH248021   2.226   3.131   4.086 -0.9400  0.3297  0.1437
 8869TIP3    H148022   2.280   3.209   4.095 -0.0595 -0.3647  1.0585
 8869TIP3    H248023   2.137   3.165   4.077 -0.5514  1.4450  0.3353
 8870TIP3   OH248024   2.663   3.502   5.101 -0.3527 -0.5589 -0.6352
 8870TIP3    H148025   2.654   3.442   5.027  1.0457  0.4308 -1.6622
 8870TIP3    H248026   2.627   3.585   5.069 -0.1215 -0.2242 -0.0569
 8871TIP3   OH248027   2.567   3.254   4.689 -0.1916  0.5079 -0.3646
 8871TIP3    H148028   2.574   3.246   4.594  1.6315 -0.8859 -0.1634
 8871TIP3    H248029   2.577   3.348   4.706  0.3536  0.6702 -1.5026
 8872TIP3   OH248030   3.486   3.047  12.034 -0.1794 -0.0025 -0.0712
 8872TIP3    H148031   3.481   3.112  12.104  0.6643  0.7345 -0.6709
 8872TIP3    H248032   3.510   2.966  12.077 -0.2901  0.3049  0.5723
 8873TIP3   OH248033   2.315   2.888  16.209  0.0778  0.1429 -0.1229
 8873TIP3    H148034   2.273   2.914  16.127 -0.0515  0.3365  0.0019
 8873TIP3    H248035   2.276   2.803  16.230  0.0749  0.1160 -0.2349
 8874TIP3   OH248036   5.361   2.725  13.153  0.2025  0.0887 -0.0619
 8874TIP3    H148037   5.426   2.710  13.084  0.2594 -0.3055  0.0769
 8874TIP3    H248038   5.385   2.665  13.223  0.3572  0.7432  0.4547
 8875TIP3   OH248039   4.673   6.692   1.499 -0.4580  0.0960  0.4543
 8875TIP3    H148040   4.721   6.775   1.496 -0.1921 -0.0052  1.4973
 8875TIP3    H248041   4.607   6.700   1.430 -1.4436  1.8145  1.5082
 8876TIP3   OH248042   0.092   0.349  14.574 -0.0501  0.1380  0.2043
 8876TIP3    H148043   0.016   0.407  14.576  0.7355  1.2095 -0.0821
 8876TIP3    H248044   0.143   0.373  14.651 -0.0653 -0.6848  0.4817
 8877TIP3   OH248045   6.336   5.678  14.044  0.7741  0.2911  0.2948
 8877TIP3    H148046   6.256   5.641  14.008  0.0835  3.0622 -1.2704
 8877TIP3    H248047   6.340   5.644  14.134  0.0683 -3.1108 -0.8104
 8878TIP3   OH248048   2.952   1.312  15.950 -0.1996  0.3019 -0.4617
 8878TIP3    H148049   2.947   1.342  16.041 -0.8343  0.2895 -0.4828
 8878TIP3    H248050   2.930   1.219  15.955  1.5897 -0.1553 -0.4170
 8879TIP3   OH248051   3.253   3.810  15.161  0.5247  0.4234 -0.0645
 8879TIP3    H148052   3.319   3.879  15.160  0.4852  0.4656  0.2978
 8879TIP3    H248053   3.219   3.809  15.071  0.5453  0.8526 -0.0801
 8880TIP3   OH248054   3.842   3.683   1.194 -0.2042 -0.2803  0.0373
 8880TIP3    H148055   3.808   3.605   1.149 -0.7213  0.3986 -0.7630
 8880TIP3    H248056   3.876   3.739   1.124  0.7348 -0.0453  0.6600
 8881TIP3   OH248057   6.464   2.717   0.992 -0.2805  0.1232  0.3102
 8881TIP3    H148058   6.400   2.759   1.049 -1.0471  1.4267 -1.4068
 8881TIP3    H248059   6.438   2.743   0.903  0.8995 -1.7359 -0.6545
 8882TIP3   OH248060   3.186   0.940  16.535  0.0913 -0.1250 -0.7969
 8882TIP3    H148061   3.115   1.004  16.536  1.0503  0.9584 -0.6216
 8882TIP3    H248062   3.263   0.989  16.508  0.4971 -1.6166 -2.5410
 8883TIP3   OH248063   6.615   4.230   2.656 -0.0227  0.5808 -0.2932
 8883TIP3    H148064   6.664   4.304   2.621 -0.5988  0.6628 -0.9641
 8883TIP3    H248065   6.571   4.192   2.579 -1.3896  0.8184  0.3333
 8884TIP3   OH248066   1.555   1.531   5.216  0.2245 -0.2430  0.1654
 8884TIP3    H148067   1.630   1.507   5.270  0.5451  0.7887  0.1972
 8884TIP3    H248068   1.499   1.583   5.274  0.1142  0.0754 -0.2233
 8885TIP3   OH248069   1.939   4.466   3.036  0.3174 -0.3263 -0.4017
 8885TIP3    H148070   2.007   4.503   2.981 -0.2066  0.7503 -0.3427
 8885TIP3    H248071   1.986   4.413   3.101  1.3096  2.2358  1.0921
 8886TIP3   OH248072   2.033   1.831   5.631  0.2402 -0.3710  0.3846
 8886TIP3    H148073   2.099   1.888   5.669  0.6829  0.0568 -0.9625
 8886TIP3    H248074   2.081   1.775   5.570 -0.3946 -1.2701  0.6812
 8887TIP3   OH248075   1.962   1.791  14.319  0.0915 -0.4122  0.1931
 8887TIP3    H148076   1.873   1.783  14.354  0.3214 -1.5905  0.5580
 8887TIP3    H248077   1.949   1.819  14.228 -0.5635  1.2959  0.7643
 8888TIP3   OH248078   3.332   4.009  16.501 -0.0712  0.2341  0.1516
 8888TIP3    H148079   3.397   3.947  16.469  0.8152  0.3852  1.5678
 8888TIP3    H248080   3.271   3.956  16.553  0.0385  0.3766  0.4277
 8889TIP3   OH248081   0.098   1.526  12.228 -0.0786  0.2680  0.2779
 8889TIP3    H148082   0.171   1.583  12.252 -0.1263 -0.0647  1.2845
 8889TIP3    H248083   0.056   1.505  12.312  0.3869 -1.8206  0.0510
 8890TIP3   OH248084   3.489   6.607  10.631 -0.4141  0.5302  0.4294
 8890TIP3    H148085   3.491   6.596  10.726  0.5863 -1.0411  0.2552
 8890TIP3    H248086   3.456   6.524  10.598  0.6518  0.5088 -0.6570
 8891TIP3   OH248087   2.204   5.545   0.667  0.1199 -0.0368  0.8155
 8891TIP3    H148088   2.229   5.638   0.666 -1.6322  0.5175  2.3212
 8891TIP3    H248089   2.286   5.498   0.653  0.9985  1.7212 -0.4166
 8892TIP3   OH248090   0.209   2.972   0.268 -0.1329  0.1915  0.6264
 8892TIP3    H148091   0.169   3.023   0.339  0.6026  0.4905  0.8268
 8892TIP3    H248092   0.271   2.914   0.312 -0.0944 -0.0310  0.2821
 8893TIP3   OH248093   6.686   5.457  13.885  0.0727  0.5436 -0.3950
 8893TIP3    H148094   6.729   5.458  13.971 -0.0918 -1.1752 -0.2692
 8893TIP3    H248095   6.593   5.445  13.904  0.1753 -1.1012 -0.8301
 8894TIP3   OH248096   5.030   2.908  13.360 -0.4710  0.1483  0.2271
 8894TIP3    H148097   5.091   2.981  13.345  1.7295 -1.7965 -1.0190
 8894TIP3    H248098   4.982   2.900  13.277 -0.8595  0.2806  0.4354
 8895TIP3   OH248099   6.117   1.053  11.912  0.2582  0.1488  0.4421
 8895TIP3    H148100   6.037   1.061  11.861  0.1219  1.1688  0.7978
 8895TIP3    H248101   6.188   1.072  11.850  0.1376  0.6678  0.4630
 8896TIP3   OH248102   4.166   3.783   1.607 -0.4293 -0.0611  0.6320
 8896TIP3    H148103   4.160   3.878   1.603 -1.4266 -0.1198  0.4652
 8896TIP3    H248104   4.245   3.761   1.558 -0.8672  0.5994 -0.3863
 8897TIP3   OH248105   6.594   3.505   5.255  0.1863  0.4294 -0.1115
 8897TIP3    H148106   6.584   3.414   5.228  0.4040  0.1993  0.5713
 8897TIP3    H248107   6.523   3.519   5.317  1.8862 -0.1732  2.0770
 8898TIP3   OH248108   0.481   3.836   4.472 -0.0221 -0.0182  0.4140
 8898TIP3    H148109   0.431   3.899   4.420 -2.1751 -0.6679  1.5946
 8898TIP3    H248110   0.432   3.754   4.466  2.2904 -1.4471 -0.4330
 8899TIP3   OH248111   5.431   0.680  14.477 -0.4285 -0.0187  0.6456
 8899TIP3    H148112   5.441   0.774  14.459  1.9914 -0.1454  1.0825
 8899TIP3    H248113   5.388   0.645  14.399 -3.2287  1.6968  1.2609
 8900TIP3   OH248114   0.142   3.251  13.309 -0.0136 -0.3090  0.0540
 8900TIP3    H148115   0.086   3.183  13.345 -1.0367  0.1534 -0.6125
 8900TIP3    H248116   0.081   3.318  13.277  0.9311  0.3944 -0.3316
 8901TIP3   OH248117   3.693   0.566   1.584 -0.0877  0.5078  0.6837
 8901TIP3    H148118   3.692   0.472   1.571 -1.2269  0.4343  1.1136
 8901TIP3    H248119   3.730   0.602   1.503  1.9411 -0.3648  1.1766
 8902TIP3   OH248120   6.436   2.283   0.257  0.1491 -0.0739  0.0217
 8902TIP3    H148121   6.367   2.217   0.262 -1.4598  1.4288 -0.9909
 8902TIP3    H248122   6.493   2.252   0.186 -1.0743  0.0239 -1.0402
 8903TIP3   OH248123   1.563   6.647   4.031  0.6883  0.2649  0.4247
 8903TIP3    H148124   1.592   6.731   3.996 -0.0304  1.2469  2.0145
 8903TIP3    H248125   1.474   6.664   4.062 -1.2687 -2.2594 -3.0886
 8904TIP3   OH248126   3.412   2.713   0.820 -0.4083 -0.6475 -0.0581
 8904TIP3    H148127   3.407   2.707   0.725 -0.9150  2.4125 -0.3421
 8904TIP3    H248128   3.496   2.756   0.837 -0.7004 -0.4071  0.8166
 8905TIP3   OH248129   1.207   4.720  15.471  0.0190 -0.2082  0.4380
 8905TIP3    H148130   1.135   4.765  15.516  0.1126  1.0171 -0.5806
 8905TIP3    H248131   1.219   4.639  15.521 -0.1337  0.8987  2.3871
 8906TIP3   OH248132   0.807   2.651   0.512  0.6125  0.1595  0.6641
 8906TIP3    H148133   0.791   2.557   0.518  1.2361  0.1245  3.9638
 8906TIP3    H248134   0.722   2.688   0.486  0.1394 -1.2307  0.1189
 8907TIP3   OH248135   1.696   1.781   5.652  0.1799  1.2222  0.5929
 8907TIP3    H148136   1.789   1.804   5.656  0.5642 -0.0213 -0.4378
 8907TIP3    H248137   1.654   1.857   5.613  1.0712  1.0918 -0.6973
 8908TIP3   OH248138   3.760   3.615   4.369 -0.1738  0.3043 -0.1468
 8908TIP3    H148139   3.702   3.550   4.331 -0.6912  0.4722  0.3332
 8908TIP3    H248140   3.835   3.566   4.402 -0.8375 -0.1334  0.7516
 8909TIP3   OH248141   2.533   0.064   3.826  0.6402  0.0383 -0.2393
 8909TIP3    H148142   2.612   0.080   3.877  0.3064  0.6092  0.1134
 8909TIP3    H248143   2.496  -0.016   3.863 -0.1397  0.9883  1.1175
 8910TIP3   OH248144   4.193   5.276   4.970 -0.1565  0.5671  0.1813
 8910TIP3    H148145   4.263   5.333   4.941  0.9085  1.0439  3.2432
 8910TIP3    H248146   4.238   5.198   5.004 -1.3456 -0.4928 -0.5735
 8911TIP3   OH248147   0.482   2.843   2.399 -0.0849 -0.0278  0.1215
 8911TIP3    H148148   0.419   2.819   2.331  0.0133 -1.1528  0.4126
 8911TIP3    H248149   0.435   2.829   2.481  0.5959 -1.0808  0.3487
 8912TIP3   OH248150   4.482   1.880   3.410 -0.1386 -0.0230  0.1078
 8912TIP3    H148151   4.495   1.938   3.485  1.2244  0.6763 -0.6304
 8912TIP3    H248152   4.423   1.927   3.352 -0.6543 -0.2737  0.4184
 8913TIP3   OH248153   5.311   2.688   1.821 -0.3996 -0.5573  0.1978
 8913TIP3    H148154   5.291   2.731   1.738 -1.0374 -1.1896  0.0186
 8913TIP3    H248155   5.369   2.750   1.867 -1.3704  0.5284 -0.0092
 8914TIP3   OH248156   4.842   3.699  13.923 -0.3312  0.2243  0.8877
 8914TIP3    H148157   4.888   3.622  13.890  0.1706  1.7336 -2.2854
 8914TIP3    H248158   4.909   3.767  13.928 -1.4395  1.4309 -0.0209
 8915TIP3   OH248159   5.779   4.828  11.589 -0.5891  0.1664 -0.3311
 8915TIP3    H148160   5.731   4.889  11.644 -1.1344 -1.3660  0.9793
 8915TIP3    H248161   5.717   4.757  11.572  0.8956 -1.4837  0.7512
 8916TIP3   OH248162   2.480   3.589  13.331 -0.2827  0.0445 -0.0151
 8916TIP3    H148163   2.569   3.563  13.355 -0.2119 -0.9108 -1.2054
 8916TIP3    H248164   2.425   3.516  13.359 -0.4886 -0.0417 -0.6209
 8917TIP3   OH248165   1.189   3.122   0.664 -0.7326 -0.1499 -0.2918
 8917TIP3    H148166   1.268   3.100   0.615  0.5451 -0.1303  1.6213
 8917TIP3    H248167   1.161   3.039   0.703 -2.3436 -0.3736 -1.8388
 8918TIP3   OH248168   0.959   5.760  12.594  0.2068  0.0134  0.0864
 8918TIP3    H148169   0.929   5.741  12.682  2.5554 -1.2137  0.7220
 8918TIP3    H248170   1.002   5.679  12.565  0.7071  0.8364 -1.6306
 8919TIP3   OH248171   4.924   4.987   1.219  0.6821 -0.3705 -0.3608
 8919TIP3    H148172   4.989   4.920   1.239  1.6802  0.5678 -0.3741
 8919TIP3    H248173   4.927   5.046   1.295  1.0287  0.5626 -1.0807
 8920TIP3   OH248174   0.158   4.843   2.523  0.9504 -0.1096 -0.3268
 8920TIP3    H148175   0.188   4.884   2.605 -0.4891  2.1185 -0.8387
 8920TIP3    H248176   0.063   4.837   2.532  0.7515  0.3244 -1.8927
 8921TIP3   OH248177   2.296   5.227  14.410 -0.1443 -0.1340  0.7335
 8921TIP3    H148178   2.202   5.208  14.410  0.0205 -1.0004  0.8957
 8921TIP3    H248179   2.336   5.146  14.440  0.7544 -0.2583 -0.6913
 8922TIP3   OH248180   5.997   1.017  15.642 -0.5428  0.8094  0.3925
 8922TIP3    H148181   6.066   0.960  15.675  1.1070  3.2778  1.5263
 8922TIP3    H248182   5.929   0.958  15.610  0.7776 -1.7266  2.0159
 8923TIP3   OH248183   2.346   3.535  17.023 -0.4242 -0.1440 -0.5747
 8923TIP3    H148184   2.275   3.501  17.078  0.5529 -1.2857  0.0221
 8923TIP3    H248185   2.424   3.526  17.077  0.2089  1.0066 -1.2589
 8924TIP3   OH248186   1.025   2.147   4.406  0.3848 -0.7921  0.1464
 8924TIP3    H148187   1.113   2.183   4.396 -0.5526  1.3930 -0.7470
 8924TIP3    H248188   0.986   2.153   4.319 -0.3733 -2.5967  0.3121
 8925TIP3   OH248189   3.256   4.424   1.253  0.2696  0.3549 -0.3021
 8925TIP3    H148190   3.204   4.468   1.320  1.5747  0.1659  0.8830
 8925TIP3    H248191   3.273   4.491   1.187 -3.8087 -0.2355 -2.2797
 8926TIP3   OH248192   0.728   5.385   2.430 -0.0153  0.1471 -0.2432
 8926TIP3    H148193   0.816   5.404   2.463 -0.5688  0.7733  0.9452
 8926TIP3    H248194   0.713   5.293   2.452 -0.0476  0.3241  0.4888
 8927TIP3   OH248195   5.175   2.225  16.306  0.5123 -0.1173  0.3308
 8927TIP3    H148196   5.176   2.196  16.397  0.3308  0.1860  0.4322
 8927TIP3    H248197   5.112   2.167  16.263  1.6385 -1.1762  0.0792
 8928TIP3   OH248198   4.130   6.278  12.341  0.5081  0.4205 -0.1445
 8928TIP3    H148199   4.197   6.324  12.290  0.2090  0.6361 -0.3445
 8928TIP3    H248200   4.174   6.199  12.371  1.4716  1.4467  1.3179
 8929TIP3   OH248201   2.273   2.714  11.167 -0.0320 -0.0470 -0.6514
 8929TIP3    H148202   2.336   2.669  11.110  0.2068  1.4203 -1.6104
 8929TIP3    H248203   2.246   2.790  11.116 -2.2451 -0.3869 -0.0685
 8930TIP3   OH248204   2.629   0.134   1.225  0.2418 -0.8419  0.0591
 8930TIP3    H148205   2.658   0.221   1.198 -1.5575  0.4282  1.8916
 8930TIP3    H248206   2.680   0.116   1.304 -0.9721 -0.3836  0.9820
 8931TIP3   OH248207   6.609   0.251   4.814  0.2042 -0.1301  1.0431
 8931TIP3    H148208   6.632   0.292   4.731 -0.7125  1.4080  1.5105
 8931TIP3    H248209   6.670   0.177   4.822  0.6775  0.0240 -0.7103
 8932TIP3   OH248210   3.128   4.420  13.754  0.4206 -0.1396 -0.1401
 8932TIP3    H148211   3.216   4.433  13.720 -0.1882  0.4310 -1.5458
 8932TIP3    H248212   3.110   4.327  13.741 -0.9011  0.5163 -4.2932
 8933TIP3   OH248213   5.182   3.199  15.884  0.2005 -0.2595 -0.1476
 8933TIP3    H148214   5.223   3.141  15.949  1.6626 -0.1853 -0.9502
 8933TIP3    H248215   5.106   3.235  15.928  1.7818  0.6971  1.9660
 8934TIP3   OH248216   0.800   1.112   1.762 -1.1026 -0.3050 -0.5507
 8934TIP3    H148217   0.870   1.173   1.783  0.6560 -2.1249 -0.8738
 8934TIP3    H248218   0.771   1.137   1.674 -0.3388 -0.0100 -0.7207
 8935TIP3   OH248219   4.172   5.320  11.435  0.8051  0.5070 -0.1342
 8935TIP3    H148220   4.206   5.235  11.462  1.5097  0.0780 -2.1613
 8935TIP3    H248221   4.214   5.383  11.494 -0.0353 -0.5375  1.6550
 8936TIP3   OH248222   5.482   2.520   5.762 -0.8765  0.0468  0.4730
 8936TIP3    H148223   5.454   2.462   5.833  1.3784 -1.5319  0.2042
 8936TIP3    H248224   5.568   2.552   5.790 -1.0605  1.4215 -0.4500
 8937TIP3   OH248225   3.257   2.595  14.665 -0.1810 -0.0439 -0.3979
 8937TIP3    H148226   3.225   2.506  14.680  0.2789  0.0250  1.2704
 8937TIP3    H248227   3.182   2.643  14.629 -0.2955 -1.1992 -1.7546
 8938TIP3   OH248228   5.351   2.655  11.048  0.3951 -0.6500 -0.0594
 8938TIP3    H148229   5.418   2.722  11.057  0.1299 -0.4060  0.1083
 8938TIP3    H248230   5.270   2.703  11.035  0.4066 -0.9476 -1.4022
 8939TIP3   OH248231   2.682   6.104  13.138  0.2596  0.5560 -0.2950
 8939TIP3    H148232   2.665   6.084  13.046 -0.0516  0.0791 -0.1383
 8939TIP3    H248233   2.756   6.164  13.137  1.3128 -0.7194 -0.7742
 8940TIP3   OH248234   5.761   3.506   1.458  0.1151  0.0633 -0.3028
 8940TIP3    H148235   5.698   3.480   1.524  0.4623 -1.1326 -0.4074
 8940TIP3    H248236   5.708   3.540   1.386 -0.4631 -1.3809 -0.5897
 8941TIP3   OH248237   1.006   3.793   2.864  0.1677  0.7559 -0.4660
 8941TIP3    H148238   0.995   3.705   2.902  0.6066  1.5108  1.5235
 8941TIP3    H248239   0.917   3.819   2.839  0.0797 -0.3751 -1.4286
 8942TIP3   OH248240   4.040   5.484   1.279  0.1159 -0.2616  0.5623
 8942TIP3    H148241   4.044   5.420   1.208 -0.5872 -0.0542  0.3262
 8942TIP3    H248242   4.049   5.569   1.235  0.0115 -0.1490  0.7533
 8943TIP3   OH248243   5.018   4.781  15.284 -0.2756  0.0826 -0.1287
 8943TIP3    H148244   5.012   4.686  15.270  0.4893 -0.0151  0.1640
 8943TIP3    H248245   4.961   4.798  15.358 -0.5969 -0.1105 -0.3260
 8944TIP3   OH248246   0.883   5.380   5.288  1.0044  0.1063  0.0700
 8944TIP3    H148247   0.810   5.330   5.326  0.9385  0.9683  1.1390
 8944TIP3    H248248   0.961   5.341   5.327  0.9274  1.1087  1.3016
 8945TIP3   OH248249   6.175   2.239   5.656  0.3227  0.1130 -0.1195
 8945TIP3    H148250   6.155   2.159   5.607 -0.3510  0.3961 -0.3230
 8945TIP3    H248251   6.252   2.275   5.612  0.5138 -0.3214 -0.1479
 8946TIP3   OH248252   5.093   3.212   6.105 -0.4275  0.2881  0.4345
 8946TIP3    H148253   5.147   3.239   6.179 -0.1848 -1.1240  0.8027
 8946TIP3    H248254   5.113   3.119   6.093 -1.0388  0.3032 -0.9165
 8947TIP3   OH248255   2.610   2.726  10.681 -0.1254  0.2612 -0.7580
 8947TIP3    H148256   2.556   2.647  10.688  1.3340 -0.9077 -2.0415
 8947TIP3    H248257   2.547   2.799  10.687 -1.4711 -0.9521  0.7633
 8948TIP3   OH248258   1.426   4.353   2.311  0.4182 -0.0608  0.3930
 8948TIP3    H148259   1.441   4.430   2.256 -2.8146 -0.4067 -1.1833
 8948TIP3    H248260   1.483   4.286   2.274  0.5118  0.5597 -0.6387
 8949TIP3   OH248261   4.962   1.444  16.034  0.3266  0.0264  0.1346
 8949TIP3    H148262   5.006   1.529  16.029  0.8369 -0.2494 -0.2909
 8949TIP3    H248263   4.870   1.465  16.048  0.1622  0.7237 -1.6410
 8950TIP3   OH248264   3.124   0.378   0.168  0.0028  0.1697 -0.0174
 8950TIP3    H148265   3.138   0.357   0.260  0.7016 -0.7579 -0.3192
 8950TIP3    H248266   3.209   0.367   0.127 -0.1445  1.2795 -0.6576
 8951TIP3   OH248267   4.778   0.899  14.340 -0.3505 -0.2045  0.1410
 8951TIP3    H148268   4.716   0.885  14.269 -0.4153 -0.0363  0.1652
 8951TIP3    H248269   4.736   0.859  14.417  0.3307 -1.6676 -0.1988
 8952TIP3   OH248270   5.081   1.696   2.048 -0.1004  0.1336  0.2542
 8952TIP3    H148271   5.003   1.641   2.044  0.2955 -0.4073 -0.2497
 8952TIP3    H248272   5.047   1.786   2.048 -0.7112 -0.0893 -0.2149
 8953TIP3   OH248273   3.975   5.202  13.048  0.1976 -0.3454 -0.3081
 8953TIP3    H148274   3.957   5.216  13.141 -1.2008  1.5545 -0.7839
 8953TIP3    H248275   4.068   5.223  13.038  0.2088  0.0800  0.5606
 8954TIP3   OH248276   5.012   2.859   1.007  0.4734  0.7841  0.4394
 8954TIP3    H148277   5.099   2.861   0.966  0.4725  0.2337  0.3968
 8954TIP3    H248278   5.011   2.934   1.067  1.4255  0.0998  1.3432
 8955TIP3   OH248279   5.148   2.373   2.972  0.1258 -0.1533  0.4889
 8955TIP3    H148280   5.147   2.402   3.063  1.5510 -0.1952  0.5307
 8955TIP3    H248281   5.153   2.278   2.977 -1.4798 -0.2689  0.3473
 8956TIP3   OH248282   4.338   3.009   0.873  0.3147  0.5090 -0.0179
 8956TIP3    H148283   4.338   2.989   0.779  1.8801  1.1339 -0.1881
 8956TIP3    H248284   4.324   2.924   0.915  0.5524  0.0658 -0.7997
 8957TIP3   OH248285   4.600   0.626  11.119 -0.9452  0.3271  0.4189
 8957TIP3    H148286   4.623   0.607  11.210 -0.6701 -1.6959 -0.0433
 8957TIP3    H248287   4.611   0.543  11.073 -0.4174  1.4525 -1.6149
 8958TIP3   OH248288   5.637   2.595  11.655 -0.3374  0.1082  0.5580
 8958TIP3    H148289   5.629   2.680  11.698 -0.2847 -0.2922  1.3916
 8958TIP3    H248290   5.590   2.605  11.573  1.4523  1.5912 -0.3722
 8959TIP3   OH248291   2.730   2.070  17.295  0.5616  0.0399 -0.1132
 8959TIP3    H148292   2.770   2.065  17.381  0.2583  1.5387  0.1501
 8959TIP3    H248293   2.743   1.984  17.256  0.5786 -0.6987  1.4772
 8960TIP3   OH248294   3.340   4.494  16.856  0.4302 -0.8477 -0.1048
 8960TIP3    H148295   3.268   4.471  16.916 -0.1456  1.2880  0.1195
 8960TIP3    H248296   3.410   4.524  16.914  1.2168 -2.1102 -0.3685
 8961TIP3   OH248297   4.709   3.943   3.034 -0.1635 -0.2053 -0.1766
 8961TIP3    H148298   4.740   4.025   2.996 -0.6325  0.1479  0.2022
 8961TIP3    H248299   4.657   3.969   3.110 -0.1566 -0.8602  0.0603
 8962TIP3   OH248300   3.467   0.764   3.397  0.0485  0.2094  0.0199
 8962TIP3    H148301   3.471   0.860   3.390  1.8309  0.1215 -0.6201
 8962TIP3    H248302   3.426   0.736   3.315 -0.2164  0.3989  0.0838
 8963TIP3   OH248303   2.047   1.896  15.898  0.2498 -0.3826 -0.8726
 8963TIP3    H148304   2.115   1.874  15.961  0.8323  2.4308 -0.3944
 8963TIP3    H248305   1.966   1.892  15.948  0.2880 -1.4900 -0.8644
 8964TIP3   OH248306   5.681   0.012  17.265  0.3814 -0.9281 -0.0814
 8964TIP3    H148307   5.676   0.031  17.171  1.8639  1.1505  0.1773
 8964TIP3    H248308   5.593   0.031  17.298  0.6618  1.6563 -0.5847
 8965TIP3   OH248309   2.763   0.008   2.461 -0.7296 -0.1268  1.0438
 8965TIP3    H148310   2.799   0.093   2.435  1.0253 -1.2743 -0.5206
 8965TIP3    H248311   2.769   0.007   2.557 -0.3110  1.2779  1.0546
 8966TIP3   OH248312   5.750   3.383   2.646 -0.0153 -0.2451 -0.1432
 8966TIP3    H148313   5.703   3.388   2.563  0.1138  0.2663 -0.1834
 8966TIP3    H248314   5.720   3.459   2.696  3.0706  1.9242 -1.3517
 8967TIP3   OH248315   3.134   0.000   0.063  0.0901 -0.1277  0.2416
 8967TIP3    H148316   3.047   0.042   0.060  0.9722  1.8022 -0.7341
 8967TIP3    H248317   3.167   0.010  -0.026  1.0349 -1.5131  0.4180
 8968TIP3   OH248318   5.507   4.324  11.997  0.2103 -0.2475  0.2653
 8968TIP3    H148319   5.450   4.272  12.054  0.1198 -0.6179 -0.1638
 8968TIP3    H248320   5.459   4.405  11.983  1.2210  0.8835  2.6288
 8969TIP3   OH248321   2.335   0.327   2.441  0.8112  0.7937 -0.3252
 8969TIP3    H148322   2.349   0.250   2.496  1.2475  0.2027 -1.2340
 8969TIP3    H248323   2.240   0.338   2.439  0.7609  0.4492  0.0359
 8970TIP3   OH248324   0.392   3.829   6.988 -0.2950  0.4721 -0.3981
 8970TIP3    H148325   0.352   3.915   7.001 -0.3353  0.3848  0.0952
 8970TIP3    H248326   0.404   3.821   6.894  1.7070  1.9261 -0.3199
 8971TIP3   OH248327   6.699   4.205  12.317 -0.2218  0.3356  0.2227
 8971TIP3    H148328   6.758   4.256  12.261 -1.2968  0.6552 -0.6632
 8971TIP3    H248329   6.756   4.141  12.359  0.8190  0.8836 -0.2898
 8972TIP3   OH248330   2.935   4.768   3.384  0.3338  0.1875 -0.3251
 8972TIP3    H148331   2.977   4.700   3.435 -0.5967 -1.2834 -1.4507
 8972TIP3    H248332   3.001   4.795   3.320  0.6309  0.1935 -0.0163
 8973TIP3   OH248333   4.966   3.175  13.118  0.1975  0.0491 -0.0667
 8973TIP3    H148334   4.881   3.130  13.127  0.1900  0.0476 -0.1403
 8973TIP3    H248335   5.001   3.179  13.206 -0.6786  1.6143  0.2514
 8974TIP3   OH248336   4.665   4.608   5.503  0.0273  0.2670  0.4732
 8974TIP3    H148337   4.671   4.702   5.485  2.7054  0.3082  1.1837
 8974TIP3    H248338   4.751   4.585   5.538  0.0088 -2.7830 -1.1881
 8975TIP3   OH248339   6.077   4.505  12.448  0.2312  0.3338 -0.8042
 8975TIP3    H148340   6.061   4.563  12.374  1.4100  1.5201 -0.1810
 8975TIP3    H248341   6.136   4.438  12.413  0.2740  0.5233 -1.0996
 8976TIP3   OH248342   5.538   0.329  13.708  0.1238  0.2848 -0.3122
 8976TIP3    H148343   5.594   0.258  13.739  0.2702  0.7583  0.5413
 8976TIP3    H248344   5.598   0.403  13.694  0.1199 -0.0106 -2.1114
 8977TIP3   OH248345   0.237   2.502  15.728 -0.1439 -0.3156  0.2099
 8977TIP3    H148346   0.255   2.412  15.703  0.6486  0.1562 -1.0119
 8977TIP3    H248347   0.280   2.513  15.813  2.0163 -0.3619 -0.8266
 8978TIP3   OH248348   0.823   4.807  14.281 -0.4415 -0.8395  0.0907
 8978TIP3    H148349   0.826   4.812  14.186 -1.2668 -1.0680  0.0453
 8978TIP3    H248350   0.907   4.767  14.306  0.2850  0.3126 -0.4428
 8979TIP3   OH248351   4.270   4.206   4.587  0.1518 -0.0513  0.1692
 8979TIP3    H148352   4.260   4.222   4.681  1.0890 -1.7555  0.6093
 8979TIP3    H248353   4.364   4.215   4.571 -0.0940  1.0724 -0.8109
 8980TIP3   OH248354   0.441   3.271   1.208 -0.4473 -0.2946 -0.0872
 8980TIP3    H148355   0.392   3.327   1.148  3.1555  2.6789 -0.6044
 8980TIP3    H248356   0.525   3.257   1.166  0.4813 -2.3438  2.1659
 8981TIP3   OH248357   1.205   5.285  12.377 -0.6589 -0.2459 -0.3956
 8981TIP3    H148358   1.203   5.261  12.470  3.7946  0.8031  0.1866
 8981TIP3    H248359   1.201   5.380  12.377 -1.6372 -0.2712 -1.4006
 8982TIP3   OH248360   6.248   3.477   5.639 -0.1687 -0.2685  0.3285
 8982TIP3    H148361   6.271   3.568   5.620  1.0843 -0.3698  1.1933
 8982TIP3    H248362   6.214   3.479   5.729  0.4962 -0.7306  0.6004
 8983TIP3   OH248363   0.134   3.696   5.763 -0.5620 -0.0241  0.2730
 8983TIP3    H148364   0.119   3.710   5.669 -0.1309 -2.2449 -0.1902
 8983TIP3    H248365   0.188   3.770   5.790 -0.1514  0.3285 -1.3843
 8984TIP3   OH248366   4.568   2.450   4.296  0.0892  0.2058 -0.2857
 8984TIP3    H148367   4.663   2.460   4.296  0.2321 -0.4192  2.4086
 8984TIP3    H248368   4.553   2.363   4.262  0.4686  0.3700 -0.8805
 8985TIP3   OH248369   6.483   6.029  12.373 -0.1766 -0.0247 -0.1830
 8985TIP3    H148370   6.405   6.017  12.319 -0.8995  3.2314 -0.0623
 8985TIP3    H248371   6.450   6.070  12.453  1.6898  2.5920 -0.6314
 8986TIP3   OH248372   1.966   5.468   3.150 -0.2245  0.3383 -0.4451
 8986TIP3    H148373   2.026   5.458   3.077  1.0431  2.6136  0.1840
 8986TIP3    H248374   1.986   5.395   3.209  0.9998  0.3271 -0.8651
 8987TIP3   OH248375   5.842   5.114   2.792 -0.1488  0.2981  0.3431
 8987TIP3    H148376   5.819   5.204   2.768 -5.0246 -0.7013  0.2909
 8987TIP3    H248377   5.843   5.115   2.888  1.1650  0.6295  0.3401
 8988TIP3   OH248378   6.409   3.694  14.497  0.7263 -0.5593 -0.6002
 8988TIP3    H148379   6.436   3.661  14.412 -1.9251 -1.5062 -1.1586
 8988TIP3    H248380   6.329   3.646  14.518 -1.3279  2.8655  0.2467
 8989TIP3   OH248381   1.791   1.525  11.307  0.2871  0.0596  0.1733
 8989TIP3    H148382   1.755   1.518  11.218  2.6211 -0.2431 -0.8129
 8989TIP3    H248383   1.783   1.436  11.343 -1.2225  0.3156  0.5453
 8990TIP3   OH248384   1.007   1.371   2.109 -0.3554  0.1053  0.0686
 8990TIP3    H148385   1.051   1.384   2.025  0.1782  0.3176  0.3759
 8990TIP3    H248386   0.971   1.282   2.104  0.1674 -0.0952 -0.1628
 8991TIP3   OH248387   1.130   2.980  15.347 -0.1155 -0.2664 -1.0040
 8991TIP3    H148388   1.152   2.894  15.383  0.0552  0.4571  0.7740
 8991TIP3    H248389   1.077   2.962  15.270 -0.8368 -1.9704 -0.1612
 8992TIP3   OH248390   1.713   1.955   1.145  0.2115 -0.0494 -0.5389
 8992TIP3    H148391   1.798   1.955   1.188 -0.0027  0.3257 -0.1090
 8992TIP3    H248392   1.706   1.868   1.106  1.2029  0.2537 -1.4198
 8993TIP3   OH248393   6.692   4.116  15.862  0.2153 -0.4286 -0.6583
 8993TIP3    H148394   6.652   4.199  15.890  1.0135 -0.4706  0.7254
 8993TIP3    H248395   6.781   4.140  15.834  1.5623 -1.0804  2.5598
 8994TIP3   OH248396   0.525   4.222  16.359 -0.1964  0.5252  0.5576
 8994TIP3    H148397   0.455   4.272  16.317  0.1057  0.5319  0.0619
 8994TIP3    H248398   0.489   4.134  16.368  0.1077  0.2628 -0.6522
 8995TIP3   OH248399   1.311   2.620  11.692 -0.5248 -0.4873  0.2206
 8995TIP3    H148400   1.298   2.565  11.615 -0.6772 -0.1617  0.0148
 8995TIP3    H248401   1.260   2.699  11.674 -2.6033 -1.3889  1.6895
 8996TIP3   OH248402   4.151   1.605  15.966  0.3876  0.4742 -0.3150
 8996TIP3    H148403   4.056   1.618  15.973  0.6132  1.5777  1.2504
 8996TIP3    H248404   4.179   1.672  15.904  0.0510 -0.4442 -1.4872
 8997TIP3   OH248405   5.124   3.476  14.311  0.6669  0.3743  0.1258
 8997TIP3    H148406   5.074   3.540  14.363  2.6356  0.9518  1.3985
 8997TIP3    H248407   5.099   3.495  14.221 -1.9362  0.1419  0.6954
 8998TIP3   OH248408   2.165   2.829  12.616  0.5561 -0.2749 -0.1935
 8998TIP3    H148409   2.201   2.876  12.540 -2.6344  1.7164 -0.6254
 8998TIP3    H248410   2.158   2.896  12.684  0.2248 -1.2542  0.7564
 8999TIP3   OH248411   2.733   0.636   2.882 -1.1093  0.0340  0.5422
 8999TIP3    H148412   2.668   0.688   2.929 -1.4134 -2.3045  2.9169
 8999TIP3    H248413   2.814   0.647   2.932  0.1369  1.9214 -1.6880
 9000TIP3   OH248414   6.370   4.742  10.942 -0.1566 -0.0751 -0.1121
 9000TIP3    H148415   6.449   4.721  10.991 -0.0953 -0.1314 -0.2358
 9000TIP3    H248416   6.323   4.804  10.998 -1.0185 -1.5837  0.9189
 9001TIP3   OH248417   5.915   1.924  12.982 -0.4935  0.1919 -0.3116
 9001TIP3    H148418   5.924   1.850  12.921 -0.9767 -0.5863  0.5291
 9001TIP3    H248419   5.883   1.884  13.063  0.0357  1.2153  0.4272
 9002TIP3   OH248420   4.909   2.087   3.036  0.1468  0.5000 -0.1683
 9002TIP3    H148421   4.920   2.175   3.071  3.4334 -0.6183  2.1648
 9002TIP3    H248422   4.849   2.044   3.097 -1.4328  1.0068 -1.2896
 9003TIP3   OH248423   1.605   6.552  13.825 -0.3563 -0.1506 -0.0293
 9003TIP3    H148424   1.675   6.547  13.890 -0.7768 -1.6499  0.3385
 9003TIP3    H248425   1.525   6.540  13.875 -0.9142  1.5394 -0.4512
 9004TIP3   OH248426   0.276   1.101   3.740  0.0768 -0.3934 -0.5868
 9004TIP3    H148427   0.307   1.190   3.729  1.0855 -0.9300 -2.4050
 9004TIP3    H248428   0.350   1.046   3.714 -0.7469 -1.7571 -0.1639
 9005TIP3   OH248429   2.496   3.535  14.952  0.1469 -0.3529  0.3509
 9005TIP3    H148430   2.507   3.593  15.027  1.2826  2.4163 -1.7581
 9005TIP3    H248431   2.584   3.499  14.937  0.8409  1.8399 -1.5387
 9006TIP3   OH248432   3.364   3.291  14.144  0.1116 -0.4988  0.3085
 9006TIP3    H148433   3.352   3.362  14.082 -0.0647  0.0170  0.9173
 9006TIP3    H248434   3.422   3.328  14.211  1.1435 -1.3662 -0.0596
 9007TIP3   OH248435   5.068   4.787   4.776 -0.0069  0.3324  0.0174
 9007TIP3    H148436   5.016   4.734   4.837 -2.4936  2.2017 -0.3171
 9007TIP3    H248437   5.013   4.794   4.698  1.1684  1.6883 -0.7376
 9008TIP3   OH248438   5.988   2.004   5.635  0.4201  0.0861  0.6889
 9008TIP3    H148439   5.976   1.921   5.590 -2.6514  0.6261  0.3089
 9008TIP3    H248440   6.003   1.980   5.727  2.2986 -0.8830  0.1854
 9009TIP3   OH248441   1.947   5.260   4.456 -0.0488 -0.4161 -0.1044
 9009TIP3    H148442   1.874   5.223   4.406  1.0047 -0.3545 -1.7789
 9009TIP3    H248443   2.025   5.233   4.407  1.0919 -0.6650  1.7494
 9010TIP3   OH248444   0.982   4.780  15.639  0.3207  0.1521 -0.4419
 9010TIP3    H148445   1.022   4.810  15.720 -2.1135  1.9973  0.1934
 9010TIP3    H248446   0.896   4.820  15.638 -0.9110 -2.2227 -2.5314
 9011TIP3   OH248447   0.137   2.056  16.533  0.0875 -0.4990  0.6633
 9011TIP3    H148448   0.162   2.022  16.619  1.9046  0.3373  0.5077
 9011TIP3    H248449   0.190   2.006  16.471 -1.0545 -0.9530  0.0065
 9012TIP3   OH248450   3.969   4.655   0.303  0.2728 -0.4135 -0.0650
 9012TIP3    H148451   3.877   4.631   0.297 -0.2022  0.4322  2.5013
 9012TIP3    H248452   3.969   4.746   0.332  1.8492 -0.9737  1.9488
 9013TIP3   OH248453   2.145   2.237  15.268  0.1779 -0.7099 -0.3334
 9013TIP3    H148454   2.163   2.239  15.174  0.7912  0.3954 -0.2063
 9013TIP3    H248455   2.062   2.190  15.275  0.0514 -0.6787 -1.4396
 9014TIP3   OH248456   5.092   1.696   4.519  0.4578  0.0483 -0.0971
 9014TIP3    H148457   5.058   1.746   4.593  0.5235 -0.2715  0.1529
 9014TIP3    H248458   5.017   1.683   4.462 -0.3760 -2.4000  1.4079
 9015TIP3   OH248459   0.378   4.577  15.615  0.0972  0.1247 -0.1138
 9015TIP3    H148460   0.449   4.630  15.580 -0.9310  1.8209  0.2640
 9015TIP3    H248461   0.407   4.555  15.704 -0.5272  2.2843  0.6858
 9016TIP3   OH248462   3.853   5.222   2.094 -0.1829 -0.3372 -0.2931
 9016TIP3    H148463   3.894   5.200   2.010  0.3192 -0.3158 -0.0604
 9016TIP3    H248464   3.815   5.309   2.081  2.0275  0.7728  0.2154
 9017TIP3   OH248465   3.622   3.620   3.983 -0.2970 -0.0028  0.2830
 9017TIP3    H148466   3.656   3.563   4.052 -0.6804 -0.2373  0.2826
 9017TIP3    H248467   3.582   3.560   3.920 -2.1716  0.3384  1.0794
 9018TIP3   OH248468   5.697   0.424  16.818 -0.1517  0.7581  0.6486
 9018TIP3    H148469   5.701   0.513  16.785 -1.3545  0.3417 -0.7436
 9018TIP3    H248470   5.776   0.382  16.782  1.6060  1.7365  3.0797
 9019TIP3   OH248471   3.676   0.892   6.129  0.2312 -0.2716  0.3304
 9019TIP3    H148472   3.658   0.810   6.176 -1.0061  0.8904  2.0290
 9019TIP3    H248473   3.600   0.904   6.072  1.5585 -1.4873 -1.8416
 9020TIP3   OH248474   3.295   0.759   0.999  0.5581  0.1504 -0.4548
 9020TIP3    H148475   3.199   0.762   1.000  0.4917 -0.6352  2.1341
 9020TIP3    H248476   3.316   0.706   0.922 -0.8963  2.7098 -2.7719
 9021TIP3   OH248477   5.932   5.088   5.381 -0.0728  0.0869  0.6832
 9021TIP3    H148478   5.983   5.069   5.460  0.3463  2.7293  1.1249
 9021TIP3    H248479   5.873   5.159   5.407 -1.0255 -0.0666 -0.9662
 9022TIP3   OH248480   3.483   3.797  16.387  0.1615  0.0849  0.8659
 9022TIP3    H148481   3.561   3.834  16.344  0.8846 -1.0161  1.1823
 9022TIP3    H248482   3.518   3.753  16.464 -0.7915 -0.4265  1.0128
 9023TIP3   OH248483   5.826   5.695  14.301 -0.0003  0.2484 -0.0270
 9023TIP3    H148484   5.834   5.620  14.243 -0.4966 -0.8258  1.2323
 9023TIP3    H248485   5.884   5.761  14.264 -0.8094 -0.1328 -2.0998
 9024TIP3   OH248486   5.009   1.606  16.357 -0.0596  0.0117 -1.0645
 9024TIP3    H148487   5.020   1.702  16.354 -0.5167  0.0520 -1.6375
 9024TIP3    H248488   4.926   1.590  16.311 -0.0964 -0.6451 -0.7771
 9025TIP3   OH248489   0.696   1.073   2.271 -0.1135 -0.7943 -0.0637
 9025TIP3    H148490   0.640   0.999   2.247 -0.9900  0.2627 -1.4289
 9025TIP3    H248491   0.754   1.085   2.196  0.7553 -0.7517  0.5982
 9026TIP3   OH248492   1.448   0.515  14.067  0.0213 -0.1083 -0.0835
 9026TIP3    H148493   1.458   0.610  14.057  0.8050 -0.2376 -0.6359
 9026TIP3    H248494   1.475   0.498  14.158  0.7067  0.1091 -0.2356
 9027TIP3   OH248495   2.745   6.194  16.944 -0.0048  0.0705  0.1012
 9027TIP3    H148496   2.714   6.283  16.931  0.2628  0.1790  0.2063
 9027TIP3    H248497   2.665   6.140  16.941 -0.1874  0.3319  0.2463
 9028TIP3   OH248498   0.261   5.117  17.276 -0.0769  0.7156  0.3545
 9028TIP3    H148499   0.197   5.164  17.329 -1.8354 -2.0403  0.8513
 9028TIP3    H248500   0.233   5.133  17.186 -0.2916  1.0751  0.4804
 9029TIP3   OH248501   3.125   1.198   0.019  0.0654  0.0935 -0.2178
 9029TIP3    H148502   3.174   1.225  -0.059  0.7957  1.3125  0.6192
 9029TIP3    H248503   3.105   1.281   0.064 -0.5568 -0.5666  0.7636
 9030TIP3   OH248504   5.221   1.377   2.845  0.1141  0.7445  0.6135
 9030TIP3    H148505   5.214   1.316   2.918  1.0495  1.0072  0.9416
 9030TIP3    H248506   5.137   1.372   2.801 -0.2430  0.1186  1.3470
 9031TIP3   OH248507   3.219   1.713   0.671  0.4103 -0.3318 -0.2101
 9031TIP3    H148508   3.129   1.711   0.704  0.2366  1.4508 -0.4938
 9031TIP3    H248509   3.210   1.727   0.577  0.9347  2.5288  0.0660
 9032TIP3   OH248510   1.858   1.905  10.931  0.2879 -0.2290  0.4483
 9032TIP3    H148511   1.855   1.982  10.987  0.7033 -0.3550  0.6419
 9032TIP3    H248512   1.774   1.862  10.946  0.5020 -0.4076  1.1769
 9033TIP3   OH248513   5.756   5.975   1.301 -0.1933  0.6797 -0.1127
 9033TIP3    H148514   5.722   5.990   1.389 -1.6843 -0.0556 -0.5318
 9033TIP3    H248515   5.850   5.964   1.313 -0.5404 -0.8351  1.6001
 9034TIP3   OH248516   6.066   0.552  15.487 -0.0313  0.0161  0.0175
 9034TIP3    H148517   6.132   0.514  15.546 -0.7634 -0.9641  0.2456
 9034TIP3    H248518   5.988   0.561  15.542 -0.3921  0.1526 -0.5143
 9035TIP3   OH248519   1.027   2.177   0.140 -0.4474 -0.1387 -0.2364
 9035TIP3    H148520   1.013   2.227   0.059 -1.1639  1.1849  0.6462
 9035TIP3    H248521   1.002   2.238   0.209  2.1516 -0.4835  1.1275
 9036TIP3   OH248522   0.277   1.726   0.158 -0.0636  0.0541 -0.2730
 9036TIP3    H148523   0.330   1.649   0.178 -0.3921 -1.0859 -3.3205
 9036TIP3    H248524   0.327   1.773   0.091 -1.0811  1.1111 -0.3181
 9037TIP3   OH248525   3.188   0.592   4.041 -0.0744 -0.4672  0.1564
 9037TIP3    H148526   3.094   0.574   4.051  0.1392 -1.1822  0.9509
 9037TIP3    H248527   3.191   0.685   4.018 -0.9973 -0.5375 -0.3211
 9038TIP3   OH248528   5.818   1.839   5.278 -0.3877 -0.5882 -0.2533
 9038TIP3    H148529   5.763   1.896   5.333  0.0795 -0.6673  0.2997
 9038TIP3    H248530   5.828   1.888   5.196  1.0061  0.6958  0.6487
 9039TIP3   OH248531   5.880   3.094  13.789  0.0670  0.0076  0.0252
 9039TIP3    H148532   5.878   3.016  13.734  0.4140 -0.9939  1.3743
 9039TIP3    H248533   5.852   3.064  13.875 -0.3332  1.5005  0.4540
 9040TIP3   OH248534   4.975   1.208   3.457  0.1211 -0.0550  0.6873
 9040TIP3    H148535   5.018   1.213   3.542  0.0919  1.3080  0.6489
 9040TIP3    H248536   4.935   1.294   3.445 -0.8688 -0.6016 -0.1987
 9041TIP3   OH248537   3.290   4.565  15.888  0.0170 -0.7183 -0.2455
 9041TIP3    H148538   3.324   4.550  15.976  1.5772  0.0114 -0.7004
 9041TIP3    H248539   3.337   4.502  15.833  0.8771  0.4905 -0.9270
 9042TIP3   OH248540   0.694   5.906  14.345  0.2804 -0.0764  0.1337
 9042TIP3    H148541   0.753   5.977  14.319  0.2823 -0.7370 -1.7755
 9042TIP3    H248542   0.608   5.948  14.351  0.6976  0.6384  1.7889
 9043TIP3   OH248543   1.394   3.133   4.413  0.2533  0.3482  0.2764
 9043TIP3    H148544   1.416   3.226   4.407  0.8806  0.1761 -0.1878
 9043TIP3    H248545   1.299   3.130   4.403  0.2613  0.9146 -0.0094
 9044TIP3   OH248546   0.148   4.488   4.182 -0.0976  0.1523  0.4119
 9044TIP3    H148547   0.128   4.560   4.123 -0.9158  0.2027  0.7468
 9044TIP3    H248548   0.137   4.409   4.129  0.8164  0.2627  0.0401
 9045TIP3   OH248549   5.389   6.658  13.387 -0.5223 -0.2022  0.5768
 9045TIP3    H148550   5.415   6.740  13.429 -0.3919  0.1557 -0.1953
 9045TIP3    H248551   5.445   6.651  13.310  0.4876 -1.7421  1.3975
 9046TIP3   OH248552   1.807   4.609  12.588 -0.2410  0.2167 -0.1607
 9046TIP3    H148553   1.734   4.665  12.564 -1.8270 -1.1638  1.1436
 9046TIP3    H248554   1.858   4.661  12.650 -0.6111  0.8811 -0.4042
 9047TIP3   OH248555   1.946   5.255  11.792 -0.0751  1.1270  0.3668
 9047TIP3    H148556   2.002   5.226  11.721 -0.0628 -0.7038  1.0816
 9047TIP3    H248557   1.864   5.279  11.749  0.6720  2.2382 -0.4934
 9048TIP3   OH248558   6.397   4.886  14.138 -0.4453  0.2793 -0.4549
 9048TIP3    H148559   6.492   4.887  14.148 -0.4589  0.6736 -0.3804
 9048TIP3    H248560   6.381   4.931  14.055 -0.6088  0.8320 -0.1320
 9049TIP3   OH248561   4.857   3.742   1.118  0.1176 -0.0044  0.1855
 9049TIP3    H148562   4.867   3.720   1.025  3.2408  0.2292  0.3656
 9049TIP3    H248563   4.807   3.669   1.155 -0.8345 -0.2968 -1.5666
 9050TIP3   OH248564   4.818   6.170  12.299 -0.5317 -0.0950 -0.2107
 9050TIP3    H148565   4.801   6.189  12.206 -1.5830 -1.8098 -0.4290
 9050TIP3    H248566   4.893   6.225  12.322 -0.7897  1.0150 -1.8287
 9051TIP3   OH248567   1.793   2.255  12.565 -0.3639  0.5111 -0.3383
 9051TIP3    H148568   1.705   2.267  12.529  0.4318  1.2678 -2.1755
 9051TIP3    H248569   1.830   2.344  12.566  0.5297  0.1460 -0.0067
 9052TIP3   OH248570   0.663   2.870  14.801 -0.0077 -0.1266 -0.0763
 9052TIP3    H148571   0.739   2.894  14.854 -2.1478  1.1778  2.6870
 9052TIP3    H248572   0.672   2.922  14.721  0.3095  2.7770  1.7122
 9053TIP3   OH248573   3.081   5.711   1.088 -0.6907  0.2575  0.1746
 9053TIP3    H148574   3.066   5.805   1.087 -0.1689  0.3496 -1.4438
 9053TIP3    H248575   3.167   5.700   1.047 -0.4421 -0.8906  0.9451
 9054TIP3   OH248576   2.253   2.892   0.835 -0.4327 -0.2842 -0.4458
 9054TIP3    H148577   2.215   2.892   0.923 -1.2929  1.7427 -0.7429
 9054TIP3    H248578   2.330   2.837   0.842 -1.4803 -1.6600  1.0975
 9055TIP3   OH248579   5.468   0.737   2.392 -0.0966 -0.2029 -0.9137
 9055TIP3    H148580   5.525   0.672   2.432  0.2256  0.2670 -0.5874
 9055TIP3    H248581   5.518   0.772   2.318  0.0158  0.1508 -0.6769
 9056TIP3   OH248582   5.758   4.578   4.417  0.3508 -0.4038  0.3182
 9056TIP3    H148583   5.813   4.515   4.463  0.1266 -1.5156 -0.8901
 9056TIP3    H248584   5.819   4.642   4.381  0.5881  0.0410  1.4592
 9057TIP3   OH248585   5.498   5.698   2.771  0.6200  0.1144  0.5615
 9057TIP3    H148586   5.502   5.792   2.788 -0.1057  0.3187 -0.3044
 9057TIP3    H248587   5.527   5.657   2.853 -0.2725  1.0777  1.3905
 9058TIP3   OH248588   2.207   6.509   5.764 -0.0188  0.7737 -0.0064
 9058TIP3    H148589   2.233   6.598   5.791 -2.6631  1.4319  0.6522
 9058TIP3    H248590   2.214   6.458   5.845 -0.2119  0.8144  0.0363
 9059TIP3   OH248591   2.675   1.704  14.169 -0.1018  0.0299 -0.8109
 9059TIP3    H148592   2.665   1.717  14.263  1.2546 -0.5338 -0.5608
 9059TIP3    H248593   2.586   1.710  14.134 -0.6534  0.0271  0.5236
 9060TIP3   OH248594   4.340   2.241  11.901 -0.1415 -0.5733 -0.1904
 9060TIP3    H148595   4.404   2.311  11.909 -0.7931 -0.1168  1.3329
 9060TIP3    H248596   4.257   2.285  11.887 -0.5922 -1.0142  0.9949
 9061TIP3   OH248597   4.945   2.190  12.246  0.2029 -0.1664 -0.2672
 9061TIP3    H148598   4.904   2.137  12.314  0.3794 -0.1819 -0.1715
 9061TIP3    H248599   4.878   2.199  12.179  0.3241 -0.9201 -0.5026
 9062TIP3   OH248600   5.009   5.696   5.544  0.6751  0.7332  0.2321
 9062TIP3    H148601   5.047   5.733   5.464 -0.7286 -0.5731 -1.0957
 9062TIP3    H248602   4.921   5.670   5.519  0.3272 -0.0694  2.1278
 9063TIP3   OH248603   2.323   6.508   4.396 -0.3597 -0.1609  0.3979
 9063TIP3    H148604   2.402   6.499   4.342 -0.6141 -2.7075  0.3106
 9063TIP3    H248605   2.250   6.500   4.334 -0.6574 -0.2355  0.7513
 9064TIP3   OH248606   5.779   6.285  13.052  0.2479 -0.0233  0.5043
 9064TIP3    H148607   5.749   6.223  12.985 -1.3188  2.3610 -1.1532
 9064TIP3    H248608   5.715   6.277  13.122  0.8942 -1.2696  0.9875
 9065TIP3   OH248609   4.167   3.884  15.499  0.7183 -0.5102  0.0763
 9065TIP3    H148610   4.082   3.874  15.457  0.0412  0.1744  1.2411
 9065TIP3    H248611   4.167   3.820  15.570  0.4874  0.5909  1.1092
 9066TIP3   OH248612   4.336   2.373   0.173  0.1277  0.3222  0.3524
 9066TIP3    H148613   4.244   2.365   0.198 -0.1948  2.2874 -0.0351
 9066TIP3    H248614   4.381   2.390   0.256  0.0213  0.1593  0.4445
 9067TIP3   OH248615   5.761   2.283   4.463 -0.0408  0.2923 -0.0137
 9067TIP3    H148616   5.677   2.275   4.508  0.4729 -2.0676  0.6448
 9067TIP3    H248617   5.825   2.253   4.528  1.3045  1.7799 -0.5953
 9068TIP3   OH248618   0.819   6.722  13.011  0.4019 -0.5149  0.2471
 9068TIP3    H148619   0.886   6.654  13.003  1.6661  0.8243 -1.1686
 9068TIP3    H248620   0.736   6.673  13.015  1.3261 -2.1581  0.4577
 9069TIP3   OH248621   0.098   1.485   5.187 -0.6486 -0.0643 -0.0364
 9069TIP3    H148622   0.142   1.549   5.131  2.2566 -0.5823  1.4623
 9069TIP3    H248623   0.057   1.424   5.126  0.2283  0.8076 -1.5670
 9070TIP3   OH248624   4.811   2.316  13.831 -0.1029  0.0165  0.1148
 9070TIP3    H148625   4.880   2.365  13.788 -0.4725  1.5690  1.2276
 9070TIP3    H248626   4.825   2.330  13.924 -2.0515  0.5795  0.3654
 9071TIP3   OH248627   4.125   0.355   3.559 -0.1828 -0.1180 -0.3861
 9071TIP3    H148628   4.150   0.304   3.482 -0.2669 -1.5344  0.4924
 9071TIP3    H248629   4.031   0.338   3.570  0.0221 -0.7384  0.5791
 9072TIP3   OH248630   1.457   4.128   3.353  0.1180  0.2343 -0.0838
 9072TIP3    H148631   1.540   4.108   3.309 -0.3543 -1.4046 -0.2621
 9072TIP3    H248632   1.394   4.138   3.283 -0.2112 -0.3274  0.1309
 9073TIP3   OH248633   2.399   2.245  16.081  0.3163 -0.2224 -0.0887
 9073TIP3    H148634   2.329   2.279  16.026 -0.1512 -0.5516  0.2961
 9073TIP3    H248635   2.471   2.228  16.020 -0.7459 -2.1309 -0.8747
 9074TIP3   OH248636   6.276   4.405   3.703 -0.2337 -0.3413  0.8853
 9074TIP3    H148637   6.192   4.365   3.678  0.4870 -2.5708  1.7725
 9074TIP3    H248638   6.261   4.438   3.792  0.0444 -1.5686  1.4095
 9075TIP3   OH248639   2.206   3.233  11.987 -0.9712  0.2500 -0.1195
 9075TIP3    H148640   2.229   3.312  12.035  0.2810 -0.7567  1.0045
 9075TIP3    H248641   2.285   3.211  11.938 -1.3051 -0.3052 -0.4177
 9076TIP3   OH248642   6.494   4.108   3.023  0.0455 -0.0071  0.4142
 9076TIP3    H148643   6.503   4.135   3.115 -1.4675  1.2659  0.2308
 9076TIP3    H248644   6.583   4.088   2.995  0.5031 -0.6864  2.2250
 9077TIP3   OH248645   3.559   1.243   3.083  0.1780  0.4463 -0.1000
 9077TIP3    H148646   3.582   1.188   3.008 -0.5264  0.2472 -0.1743
 9077TIP3    H248647   3.514   1.319   3.045 -0.0376  0.4238  0.1069
 9078TIP3   OH248648   5.474   4.993  15.691  0.3005  0.4061  0.2279
 9078TIP3    H148649   5.470   4.903  15.723 -0.9344 -0.1976 -1.5016
 9078TIP3    H248650   5.565   5.005  15.664  0.0923 -1.0036 -1.2762
 9079TIP3   OH248651   1.039   2.359  16.526  0.4205  0.7362  0.2500
 9079TIP3    H148652   1.006   2.276  16.493 -0.2754  0.3214  1.8885
 9079TIP3    H248653   0.967   2.421  16.511  1.1319  1.1998 -1.4441
 9080TIP3   OH248654   3.535   1.280   3.386  0.5179 -0.4074 -0.0564
 9080TIP3    H148655   3.545   1.283   3.291 -1.8389 -0.4260 -0.3467
 9080TIP3    H248656   3.571   1.363   3.417 -1.0183  0.7602 -1.2424
 9081TIP3   OH248657   1.338   0.126   4.596 -0.2641  0.1725 -0.0236
 9081TIP3    H148658   1.270   0.158   4.537 -1.0834 -0.3673  0.5977
 9081TIP3    H248659   1.416   0.176   4.572 -0.4359 -0.3723 -1.8772
 9082TIP3   OH248660   4.060   1.738  11.256  0.0585 -0.7621  0.2447
 9082TIP3    H148661   4.113   1.775  11.327 -3.3083  1.9552  1.5844
 9082TIP3    H248662   4.090   1.783  11.178 -0.0237  0.4922  0.9129
 9083TIP3   OH248663   4.635   3.616   3.117 -0.3443  0.7166  0.0208
 9083TIP3    H148664   4.561   3.584   3.169 -0.3180  0.2581 -0.2213
 9083TIP3    H248665   4.604   3.698   3.080 -0.9902  0.1983 -0.6374
 9084TIP3   OH248666   6.260   6.121  11.411  0.0114  0.0576  0.1683
 9084TIP3    H148667   6.191   6.186  11.418 -0.1399 -0.0779 -0.0275
 9084TIP3    H248668   6.216   6.042  11.378  0.1161 -0.2732  0.8030
 9085TIP3   OH248669   1.803   1.632  17.421  0.3627 -0.2557 -0.5836
 9085TIP3    H148670   1.896   1.652  17.406  0.1716  0.2410 -1.1561
 9085TIP3    H248671   1.767   1.620  17.333 -0.1407 -0.3461 -0.3692
 9086TIP3   OH248672   4.431   0.618  13.789 -0.4936  0.1409 -0.2119
 9086TIP3    H148673   4.420   0.713  13.780 -0.6708  0.3456  1.7945
 9086TIP3    H248674   4.361   0.581  13.736 -0.6556  1.1278 -0.7225
 9087TIP3   OH248675   6.656   5.728  14.950  0.1840 -0.3138 -0.1518
 9087TIP3    H148676   6.582   5.678  14.983  0.4941 -1.2769 -0.8893
 9087TIP3    H248677   6.702   5.758  15.030 -0.2007 -0.9015  0.2941
 9088TIP3   OH248678   4.116   1.030   5.591 -0.1214  0.2165 -0.1831
 9088TIP3    H148679   4.105   0.962   5.658 -1.5879  0.1476 -0.4789
 9088TIP3    H248680   4.170   1.096   5.635  0.7305 -0.7802  0.3467
 9089TIP3   OH248681   6.248   5.611  13.073 -0.3159  0.2724  0.1996
 9089TIP3    H148682   6.181   5.675  13.096  0.2929  1.5660 -1.4200
 9089TIP3    H248683   6.322   5.632  13.129 -0.6044  0.0448  0.6744
 9090TIP3   OH248684   1.927   3.159   5.567  0.1929  0.4112  0.5657
 9090TIP3    H148685   1.978   3.079   5.556  0.3561  0.4019  1.2888
 9090TIP3    H248686   1.873   3.143   5.644  0.1643  0.9597  0.6688
 9091TIP3   OH248687   4.441   3.237   1.593 -0.1433  0.1123  0.5586
 9091TIP3    H148688   4.535   3.237   1.612 -0.2704 -0.4938  1.2580
 9091TIP3    H248689   4.400   3.226   1.679 -0.7570 -2.6414  0.0194
 9092TIP3   OH248690   3.385   3.316   1.175 -0.2513 -0.4389 -0.0943
 9092TIP3    H148691   3.402   3.313   1.081  2.0239  0.1805  0.2416
 9092TIP3    H248692   3.391   3.224   1.204  0.7029 -0.4434 -0.3003
 9093TIP3   OH248693   4.416   5.606  15.256 -0.1776 -0.4490  0.4498
 9093TIP3    H148694   4.365   5.537  15.299 -0.3691 -1.1594 -0.8615
 9093TIP3    H248695   4.471   5.643  15.325  1.0913 -3.0002  0.9207
 9094TIP3   OH248696   3.960   4.636  12.620  0.2333  0.3732  0.3430
 9094TIP3    H148697   3.984   4.702  12.685 -2.6090  0.1641  1.7621
 9094TIP3    H248698   3.907   4.684  12.555  0.6454  0.0275 -0.2586
 9095TIP3   OH248699   2.501   5.717   1.897  1.0199 -0.1520  0.3653
 9095TIP3    H148700   2.496   5.785   1.831 -1.2024 -0.4435  0.1468
 9095TIP3    H248701   2.565   5.654   1.863  1.5136  0.7716 -0.4411
 9096TIP3   OH248702   2.681   4.008  16.403  0.5535  0.1166  0.0373
 9096TIP3    H148703   2.601   4.052  16.431 -0.4089  0.7315 -3.2362
 9096TIP3    H248704   2.739   4.079  16.374  0.9924 -0.4789 -0.6008
 9097TIP3   OH248705   3.675   6.602   3.468  0.1280 -0.0412  0.2753
 9097TIP3    H148706   3.613   6.625   3.398  0.5623  0.9187  0.1818
 9097TIP3    H248707   3.630   6.535   3.520 -0.3249 -0.5403 -0.7373
 9098TIP3   OH248708   1.183   4.355   2.443 -0.0997 -0.6112 -0.2409
 9098TIP3    H148709   1.253   4.379   2.383 -0.1258  1.1102  0.3576
 9098TIP3    H248710   1.108   4.407   2.414 -0.4656 -0.6970  0.5173
 9099TIP3   OH248711   2.540   1.680  12.705 -0.5286 -0.0269 -0.2402
 9099TIP3    H148712   2.561   1.680  12.799 -0.5583  3.1256 -0.1467
 9099TIP3    H248713   2.625   1.691  12.662 -0.5413 -1.2369 -0.6086
 9100TIP3   OH248714   1.570   3.383   3.845 -0.6988  0.4438  0.2586
 9100TIP3    H148715   1.620   3.463   3.833  2.6129 -1.5016  0.0764
 9100TIP3    H248716   1.562   3.346   3.757  0.3810 -0.8054  0.6546
 9101TIP3   OH248717   3.728   6.492  14.426  0.0634  0.2829  0.2145
 9101TIP3    H148718   3.818   6.464  14.441  0.3868  1.6847  1.1061
 9101TIP3    H248719   3.731   6.540  14.343  0.6628  2.2846  1.3223
 9102TIP3   OH248720   0.445   5.079  15.809 -0.0606 -0.1328 -0.1780
 9102TIP3    H148721   0.474   5.014  15.746  1.2068  0.3815 -0.1527
 9102TIP3    H248722   0.352   5.060  15.823  0.5873 -2.8712  0.9658
 9103TIP3   OH248723   4.527   1.662   1.584 -0.3249 -0.4164  0.0435
 9103TIP3    H148724   4.448   1.641   1.634  0.7771 -0.3815  1.8526
 9103TIP3    H248725   4.591   1.596   1.610  0.8225  0.6665  0.0645
 9104TIP3   OH248726   4.628   2.504   2.196 -0.2412 -0.5727 -0.2438
 9104TIP3    H148727   4.578   2.424   2.180  1.4183 -1.9836  1.1151
 9104TIP3    H248728   4.580   2.573   2.150 -1.8633 -2.2992 -1.2669
 9105TIP3   OH248729   6.075   6.208   1.602  0.0063  0.2805 -0.4459
 9105TIP3    H148730   6.030   6.292   1.610 -1.4887 -0.6328  2.3071
 9105TIP3    H248731   6.030   6.151   1.665  1.3714 -2.4144 -1.7432
 9106TIP3   OH248732   6.387   0.962  11.525 -0.3216 -0.1408 -0.0598
 9106TIP3    H148733   6.322   0.993  11.588  1.1400  0.2115  1.3228
 9106TIP3    H248734   6.380   0.866  11.528 -0.2666 -0.1241  0.6360
 9107TIP3   OH248735   2.443   6.621  11.913 -0.0302 -0.4324 -0.2068
 9107TIP3    H148736   2.467   6.707  11.946 -1.0204 -0.4963  0.7345
 9107TIP3    H248737   2.454   6.627  11.818  1.8402  0.0907  0.0149
 9108TIP3   OH248738   1.785   3.883  10.426  0.1529 -0.3641 -0.0108
 9108TIP3    H148739   1.730   3.895  10.349 -1.2955  4.0518  1.4387
 9108TIP3    H248740   1.852   3.950  10.419  2.1984 -2.1581  0.9675
 9109TIP3   OH248741   2.990   1.424   4.993 -0.3317 -0.1631  0.3806
 9109TIP3    H148742   2.961   1.407   5.083 -0.4018  2.4201  0.9279
 9109TIP3    H248743   3.084   1.441   5.002 -0.6844  2.1056  0.3566
 9110TIP3   OH248744   1.083   5.829   1.337  0.2717  0.1791  0.1032
 9110TIP3    H148745   0.992   5.801   1.332  0.4619 -0.3274 -0.6769
 9110TIP3    H248746   1.079   5.924   1.328 -0.1143  0.0719 -1.1437
 9111TIP3   OH248747   3.265   2.226  11.614  1.2639 -0.0092 -0.0905
 9111TIP3    H148748   3.345   2.278  11.621  0.8861  0.9468 -2.1539
 9111TIP3    H248749   3.226   2.229  11.701  2.3689  1.3391  0.3850
 9112TIP3   OH248750   2.080   4.379  11.750 -0.6574 -0.0579  0.3927
 9112TIP3    H148751   2.037   4.362  11.834 -0.5672 -0.6696  0.3217
 9112TIP3    H248752   2.101   4.292  11.716  0.2021  0.2121  0.1972
 9113TIP3   OH248753   0.348   4.187  16.753  0.3838 -0.0764 -0.0776
 9113TIP3    H148754   0.334   4.098  16.785 -1.2436 -0.0665 -0.6779
 9113TIP3    H248755   0.311   4.243  16.820  1.1224  0.1523  0.1513
 9114TIP3   OH248756   2.674   0.530  16.062 -0.3370 -0.1556  0.1189
 9114TIP3    H148757   2.641   0.535  16.152  1.0125 -1.1142  0.6987
 9114TIP3    H248758   2.597   0.511  16.009 -0.8222 -1.9882  1.3849
 9115TIP3   OH248759   3.947   3.798  17.006  0.0368 -0.4743  0.0785
 9115TIP3    H148760   4.028   3.763  17.044  0.8344  1.0007 -0.2033
 9115TIP3    H248761   3.938   3.753  16.922  0.9021 -0.2246 -0.1588
 9116TIP3   OH248762   2.034   2.753   3.959  0.0178 -0.8482  0.3249
 9116TIP3    H148763   1.997   2.744   4.047  0.5094  0.7396  0.7345
 9116TIP3    H248764   1.969   2.713   3.902 -0.8566 -0.9060  1.3142
 9117TIP3   OH248765   3.085   0.894   0.724  0.2459  0.0791 -0.5132
 9117TIP3    H148766   3.049   0.806   0.718 -0.5561  0.1654  1.9410
 9117TIP3    H248767   3.057   0.937   0.643  0.1506 -1.7118 -1.4843
 9118TIP3   OH248768   2.504   4.894   0.567 -0.0730 -0.3488  0.7370
 9118TIP3    H148769   2.474   4.982   0.586 -1.2594 -0.4710 -0.4294
 9118TIP3    H248770   2.592   4.906   0.531 -1.4092  0.7594 -2.5971
 9119TIP3   OH248771   5.157   2.287   3.238  0.0882  0.0719 -0.6552
 9119TIP3    H148772   5.215   2.291   3.315 -1.3420 -0.3462  0.4880
 9119TIP3    H248773   5.105   2.208   3.252 -1.9654  1.3407 -0.7296
 9120TIP3   OH248774   4.675   3.831  12.033  0.2452  0.1504  0.0039
 9120TIP3    H148775   4.703   3.894  11.967 -0.5390 -0.0240 -0.5071
 9120TIP3    H248776   4.678   3.879  12.115 -1.9512  1.4146 -0.5697
 9121TIP3   OH248777   0.069   5.774   4.402  0.0651 -0.3060 -0.3608
 9121TIP3    H148778  -0.006   5.721   4.374 -1.5462  1.3323  0.5970
 9121TIP3    H248779   0.084   5.834   4.328  0.0204 -0.2361 -0.3137
 9122TIP3   OH248780   6.380   2.570   0.378  0.1668 -0.6052 -0.5457
 9122TIP3    H148781   6.439   2.630   0.332  0.6157  0.0820  0.8875
 9122TIP3    H248782   6.334   2.524   0.308  1.5585 -0.3153 -1.6849
 9123TIP3   OH248783   3.091   6.121   0.928  0.5679  0.5063 -0.2488
 9123TIP3    H148784   3.111   6.206   0.968  1.5403  0.6390 -0.9571
 9123TIP3    H248785   3.129   6.057   0.988 -1.9184  0.4159  1.3297
 9124TIP3   OH248786   0.560   1.024   6.382 -0.2200 -0.0776 -0.1610
 9124TIP3    H148787   0.556   1.103   6.436  0.7233  0.3457 -0.6787
 9124TIP3    H248788   0.477   0.979   6.398 -0.9733  1.2494 -0.1972
 9125TIP3   OH248789   2.117   3.797   5.183  0.2289  0.4389  0.0169
 9125TIP3    H148790   2.079   3.862   5.242  0.4620 -0.1640  0.8483
 9125TIP3    H248791   2.172   3.743   5.239  0.0347 -0.4818 -0.6610
 9126TIP3   OH248792   6.096   6.078  17.357  0.0849  0.7056  0.3471
 9126TIP3    H148793   6.051   6.044  17.435 -0.4666 -1.6992 -0.9072
 9126TIP3    H248794   6.187   6.053  17.369 -0.1284 -0.3476 -0.0601
 9127TIP3   OH248795   0.547   5.551   4.144 -0.3913  0.5286  0.1398
 9127TIP3    H148796   0.638   5.578   4.133 -0.8272  2.2942  0.5524
 9127TIP3    H248797   0.498   5.606   4.083 -1.0549 -1.5935 -1.3637
 9128TIP3   OH248798   5.209   1.868  16.562  0.6430 -0.0840 -0.0718
 9128TIP3    H148799   5.123   1.887  16.598  0.3187  0.1531 -0.9421
 9128TIP3    H248800   5.191   1.830  16.476  1.3760 -1.2622  0.2838
 9129TIP3   OH248801   2.015   0.095  16.995  1.0318 -0.1808  0.1800
 9129TIP3    H148802   2.030   0.015  17.046  1.9215 -0.3829 -0.3760
 9129TIP3    H248803   2.099   0.113  16.953  1.4107  2.1212  1.7720
 9130TIP3   OH248804   3.540   6.640  16.965 -0.2408 -0.1317  0.1596
 9130TIP3    H148805   3.514   6.650  17.057 -0.6145 -0.4568  0.0899
 9130TIP3    H248806   3.624   6.595  16.968  0.7208  1.5836  0.4204
 9131TIP3   OH248807   3.328   2.867   3.117 -0.5858  0.5852 -0.8567
 9131TIP3    H148808   3.423   2.859   3.122 -0.7178 -0.8865  3.8236
 9131TIP3    H248809   3.299   2.783   3.079 -0.0536  0.1586 -0.3401
 9132TIP3   OH248810   3.459   5.501   2.896  0.2607 -0.2852  0.0756
 9132TIP3    H148811   3.517   5.576   2.881 -1.8052  1.0450 -2.1388
 9132TIP3    H248812   3.484   5.438   2.829  0.8086 -0.8144  0.7717
 9133TIP3   OH248813   3.743   5.497  11.273 -0.4465 -0.8112 -0.2762
 9133TIP3    H148814   3.820   5.453  11.309 -0.2242 -1.2275 -1.2092
 9133TIP3    H248815   3.728   5.452  11.189 -2.7568 -1.9048  0.6470
 9134TIP3   OH248816   0.092   4.904   2.267  0.0126 -0.1376  0.0321
 9134TIP3    H148817   0.104   4.909   2.362  2.7139  2.8156 -0.2913
 9134TIP3    H248818   0.071   4.994   2.241  0.2106 -0.6964 -2.2735
 9135TIP3   OH248819   5.256   6.074   0.549 -0.0220 -0.1807 -0.1539
 9135TIP3    H148820   5.169   6.114   0.543  0.1697  0.2022 -0.4115
 9135TIP3    H248821   5.243   5.997   0.604 -0.1632  0.9115  1.4262
 9136TIP3   OH248822   6.354   1.154   0.498  0.2372  0.1274 -0.1952
 9136TIP3    H148823   6.355   1.233   0.443  0.6339 -0.1806 -0.6332
 9136TIP3    H248824   6.442   1.118   0.489 -0.2587 -0.9507 -0.8398
 9137TIP3   OH248825   5.857   1.756   0.969 -0.2726 -0.3507  0.3048
 9137TIP3    H148826   5.800   1.743   1.045  1.4582 -1.0920  1.5683
 9137TIP3    H248827   5.819   1.701   0.900 -2.7922  1.5765  0.0303
 9138TIP3   OH248828   1.864   5.435  15.163 -0.5257 -0.5004 -0.2567
 9138TIP3    H148829   1.777   5.409  15.132 -0.8808  1.7722 -1.4219
 9138TIP3    H248830   1.852   5.454  15.256 -1.0408 -1.1599 -0.1818
 9139TIP3   OH248831   6.255   2.488  13.494  0.2540  0.8536 -0.5266
 9139TIP3    H148832   6.316   2.510  13.564 -0.7706  1.0611  0.3378
 9139TIP3    H248833   6.230   2.573  13.457  0.2705  0.7956 -0.6675
 9140TIP3   OH248834   1.022   1.136   4.896  0.6902  0.4694 -0.1891
 9140TIP3    H148835   1.063   1.137   4.983 -1.0395  0.8075  0.6734
 9140TIP3    H248836   1.077   1.193   4.843  1.0846  1.2963  1.0479
 9141TIP3   OH248837   1.351   1.279  13.627 -0.2098 -0.3259  0.1657
 9141TIP3    H148838   1.387   1.287  13.538  0.5182 -0.8673  0.3970
 9141TIP3    H248839   1.405   1.337  13.680 -1.3229  0.8239  0.0905
 9142TIP3   OH248840   1.844   2.611   2.831  0.8209  0.3354 -0.4604
 9142TIP3    H148841   1.819   2.574   2.916 -1.1253  0.2098 -1.0447
 9142TIP3    H248842   1.869   2.535   2.779  0.0296  0.1701 -0.6185
 9143TIP3   OH248843   1.124   0.867  16.405  0.4268 -0.0961  0.5023
 9143TIP3    H148844   1.055   0.931  16.389 -1.1675 -1.6721  0.7433
 9143TIP3    H248845   1.195   0.893  16.347 -0.5845  1.2568 -0.1729
 9144TIP3   OH248846   5.556   5.406   4.044  0.2515  0.7527 -0.5463
 9144TIP3    H148847   5.551   5.322   4.000  0.7764  1.2078 -1.5168
 9144TIP3    H248848   5.493   5.400   4.116  2.3676 -1.5658  1.3228
 9145TIP3   OH248849   4.661   1.804   2.191 -0.1828 -0.2205  0.5346
 9145TIP3    H148850   4.702   1.879   2.234 -1.8610  1.8802 -1.2710
 9145TIP3    H248851   4.599   1.770   2.255 -0.2724  0.7514  0.9784
 9146TIP3   OH248852   0.506   3.010   5.963  0.2188  0.4970  0.1518
 9146TIP3    H148853   0.421   3.030   6.001  0.0765  0.2912 -0.0612
 9146TIP3    H248854   0.541   2.939   6.017 -0.5539 -0.7130 -0.8954
 9147TIP3   OH248855   0.858   0.545  15.543 -0.1467  0.4377 -0.1299
 9147TIP3    H148856   0.871   0.638  15.523 -0.8861  0.4444 -0.5958
 9147TIP3    H248857   0.860   0.502  15.458 -0.0618  0.0487  0.0661
 9148TIP3   OH248858   3.221   2.350  15.998 -0.2918 -0.5876 -0.3522
 9148TIP3    H148859   3.305   2.303  16.004  0.6159  1.1034  1.2894
 9148TIP3    H248860   3.236   2.431  16.047 -2.6488  0.1540 -0.7627
 9149TIP3   OH248861   2.356   2.287  14.553 -0.0623  0.0349 -0.2012
 9149TIP3    H148862   2.432   2.328  14.595  0.4807 -1.1311  0.0073
 9149TIP3    H248863   2.387   2.262  14.466  0.5976 -2.5866  0.7007
 9150TIP3   OH248864   5.790   0.471   0.145 -0.2399 -0.0250  0.7386
 9150TIP3    H148865   5.737   0.418   0.205 -1.2010 -0.2938 -0.3260
 9150TIP3    H248866   5.828   0.539   0.201 -1.5852  0.0931  1.5502
 9151TIP3   OH248867   0.227   4.001  14.708 -0.3620 -0.5209 -0.6369
 9151TIP3    H148868   0.155   4.047  14.665 -0.1574 -0.0692 -0.5096
 9151TIP3    H248869   0.303   4.014  14.651  0.6243  2.4709  1.0907
 9152TIP3   OH248870   1.283   3.088  13.890  0.1165  0.6891 -0.1577
 9152TIP3    H148871   1.360   3.129  13.929 -0.0399 -0.0001  0.8992
 9152TIP3    H248872   1.239   3.159  13.844  1.7277  0.9727 -1.3598
 9153TIP3   OH248873   6.089   4.322  12.007  0.6604 -0.0113 -0.0698
 9153TIP3    H148874   6.113   4.279  12.089  0.5923  0.2676  0.0986
 9153TIP3    H248875   6.021   4.385  12.032 -1.1127 -1.5951 -0.7116
 9154TIP3   OH248876   3.319   1.787  10.457 -0.0968  0.0322  0.1164
 9154TIP3    H148877   3.243   1.812  10.510 -0.4125 -0.1501 -0.2423
 9154TIP3    H248878   3.339   1.697  10.484  1.4247  0.8380  1.8520
 9155TIP3   OH248879   6.094   3.543   3.363 -0.3418 -0.0732 -0.4512
 9155TIP3    H148880   6.145   3.583   3.292  1.3545 -0.9664  0.2081
 9155TIP3    H248881   6.049   3.617   3.404 -0.8579  0.5391 -2.0277
 9156TIP3   OH248882   0.408   6.368   2.855 -0.4315 -0.0650 -0.6197
 9156TIP3    H148883   0.384   6.339   2.767 -2.6861 -0.8994  0.1980
 9156TIP3    H248884   0.450   6.453   2.841  2.1755 -1.5421 -2.7086
 9157TIP3   OH248885   5.054   5.120   5.748  0.2131  0.8297  0.3284
 9157TIP3    H148886   5.017   5.133   5.836 -0.4695  1.2164 -0.0087
 9157TIP3    H248887   5.030   5.031   5.724  0.0396  0.8684  0.3616
 9158TIP3   OH248888   0.243   6.698   0.932 -0.0122 -0.2011  0.1227
 9158TIP3    H148889   0.210   6.788   0.929  0.5970  0.0096 -2.5775
 9158TIP3    H248890   0.168   6.644   0.905 -0.3719 -0.5675  1.7211
 9159TIP3   OH248891   6.244   3.363   6.910 -0.2635  0.3062  0.9248
 9159TIP3    H148892   6.179   3.400   6.851 -0.4560 -1.0039  0.2827
 9159TIP3    H248893   6.290   3.298   6.858  1.3209  0.9263  1.4843
 9160TIP3   OH248894   5.900   1.579   2.966 -0.8853 -0.2979  0.4899
 9160TIP3    H148895   5.941   1.492   2.971 -0.4744 -0.0885  0.7722
 9160TIP3    H248896   5.808   1.563   2.987 -0.2163 -0.1745  4.2404
 9161TIP3   OH248897   2.223   4.894   5.207  0.1459  0.2433 -0.0821
 9161TIP3    H148898   2.300   4.902   5.263  0.2041 -0.8314  0.0220
 9161TIP3    H248899   2.226   4.803   5.176 -0.2688  0.6199 -1.2676
 9162TIP3   OH248900   6.560   5.578  12.996 -0.1148  0.2272  0.0403
 9162TIP3    H148901   6.574   5.484  12.988  0.0757  0.3339 -1.1735
 9162TIP3    H248902   6.560   5.595  13.090 -0.3637 -1.0110  0.2870
 9163TIP3   OH248903   4.655   0.552  11.360 -0.2696  0.0803 -1.0034
 9163TIP3    H148904   4.638   0.626  11.417  2.4701 -0.2707  0.4497
 9163TIP3    H248905   4.589   0.487  11.383 -0.4794  0.7366  0.3154
 9164TIP3   OH248906   6.003   2.760  12.442  0.7250  0.0080 -0.7727
 9164TIP3    H148907   6.085   2.725  12.477 -0.2076 -1.4726  0.0458
 9164TIP3    H248908   5.937   2.696  12.468 -0.6288  0.9256 -1.8207
 9165TIP3   OH248909   5.872   5.123   2.329 -0.1094  0.5096 -0.4916
 9165TIP3    H148910   5.809   5.097   2.262  0.4272 -0.0375 -0.7988
 9165TIP3    H248911   5.946   5.062   2.317 -1.0892 -1.4065  2.3225
 9166TIP3   OH248912   5.467   2.335   6.273 -0.3000  0.2297 -0.2029
 9166TIP3    H148913   5.410   2.407   6.248 -0.0236  0.6014  0.2218
 9166TIP3    H248914   5.417   2.287   6.340  0.7113  1.8012  1.7659
 9167TIP3   OH248915   2.509   6.626  14.152 -0.2280  0.1536  0.5246
 9167TIP3    H148916   2.588   6.645  14.203  0.6233  1.0231 -1.0246
 9167TIP3    H248917   2.505   6.530  14.149  2.2683 -0.0194 -1.4028
 9168TIP3   OH248918   5.730   1.138  13.502 -1.1460  0.2905  0.1925
 9168TIP3    H148919   5.803   1.113  13.446 -0.1484  2.8937  0.2014
 9168TIP3    H248920   5.769   1.151  13.588 -2.0129 -0.1943  0.6736
 9169TIP3   OH248921   2.396   4.024   2.424  0.6064 -0.0606  0.2071
 9169TIP3    H148922   2.377   3.930   2.424 -1.8686  0.3799  0.9131
 9169TIP3    H248923   2.450   4.037   2.346  1.5455 -2.1411  0.4295
 9170TIP3   OH248924   5.694   0.633   4.840 -0.5510  0.0534 -0.3809
 9170TIP3    H148925   5.786   0.606   4.842 -0.3966  0.4965 -1.1128
 9170TIP3    H248926   5.691   0.705   4.778 -1.3149  0.3758  0.0088
 9171TIP3   OH248927   3.737   5.072   2.398 -0.2813  0.1261 -0.1767
 9171TIP3    H148928   3.819   5.121   2.386 -0.7636  2.7583  4.6148
 9171TIP3    H248929   3.765   4.981   2.404  1.8876  0.6357 -1.4694
 9172TIP3   OH248930   4.144   1.108  14.353 -0.0051  0.0675 -0.7827
 9172TIP3    H148931   4.235   1.080  14.362  0.0312 -0.4682 -2.4149
 9172TIP3    H248932   4.144   1.163  14.274 -0.9224  0.9031 -0.2318
 9173TIP3   OH248933   3.406   1.889  13.931 -0.3641  0.6142  0.0791
 9173TIP3    H148934   3.494   1.925  13.920  0.6419 -1.3479  1.0915
 9173TIP3    H248935   3.350   1.966  13.941  1.4776  1.9133  1.1065
 9174TIP3   OH248936   6.408   2.348  13.092  0.2046  0.3444  0.8650
 9174TIP3    H148937   6.371   2.283  13.032  0.8354  1.0673 -0.3617
 9174TIP3    H248938   6.341   2.416  13.097  0.1005  0.2273  1.0921
 9175TIP3   OH248939   1.064   1.725  15.919 -0.1216 -0.0279 -0.3770
 9175TIP3    H148940   1.019   1.641  15.906 -1.0487  0.0874  1.6189
 9175TIP3    H248941   0.993   1.788  15.933  0.5437  0.2350  2.5312
 9176TIP3   OH248942   0.687   2.066  16.247 -0.2055 -0.2975  0.4861
 9176TIP3    H148943   0.622   2.052  16.179  0.0141 -1.4365  0.4853
 9176TIP3    H248944   0.749   1.993  16.237  2.3301  1.8826 -0.9045
 9177TIP3   OH248945   4.773   1.837  12.421  0.7191  0.3735 -0.3174
 9177TIP3    H148946   4.848   1.875  12.375 -0.4320  0.6295 -2.0669
 9177TIP3    H248947   4.811   1.771  12.478  2.3828  1.3216 -0.2638
 9178TIP3   OH248948   3.576   1.045  15.279  0.2423  0.3874  0.4828
 9178TIP3    H148949   3.583   1.000  15.363 -0.0507  0.7388  0.6998
 9178TIP3    H248950   3.666   1.068  15.256  0.3400  0.1273  0.6107
 9179TIP3   OH248951   4.414   1.255  15.014 -0.1254 -0.0973 -0.4811
 9179TIP3    H148952   4.408   1.287  15.104  1.9160 -0.7262 -0.0762
 9179TIP3    H248953   4.361   1.317  14.964 -0.4939  0.8521  1.0002
 9180TIP3   OH248954   1.769   3.924  13.223  0.0696 -0.2491  0.2623
 9180TIP3    H148955   1.766   3.948  13.130  0.2440  2.5005  0.8869
 9180TIP3    H248956   1.692   3.966  13.261  0.3263 -0.8587  1.4978
 9181TIP3   OH248957   4.712   0.746   2.260  0.2445 -0.4597  0.0329
 9181TIP3    H148958   4.620   0.768   2.243 -0.0342 -1.1331  0.6155
 9181TIP3    H248959   4.744   0.711   2.177  0.0939  0.1404 -0.2877
 9182TIP3   OH248960   2.226   5.445  16.843 -0.2841 -0.4532 -0.3015
 9182TIP3    H148961   2.244   5.489  16.760  2.4080 -1.2422 -0.2112
 9182TIP3    H248962   2.162   5.502  16.885  1.2429  2.1706 -1.2281
 9183TIP3   OH248963   6.024   2.264  11.636 -0.0798  0.4690 -0.3016
 9183TIP3    H148964   5.936   2.299  11.617 -0.1662  1.0406  1.0736
 9183TIP3    H248965   6.049   2.305  11.718  3.0313  3.2008 -2.3464
 9184TIP3   OH248966   4.544   2.353  14.620  0.0998 -0.1176  0.0642
 9184TIP3    H148967   4.585   2.384  14.700  2.4142  0.1580 -1.1310
 9184TIP3    H248968   4.570   2.261  14.613 -0.6789 -0.3387 -0.0288
 9185TIP3   OH248969   1.630   6.108  12.150 -0.6047  0.3988  0.6561
 9185TIP3    H148970   1.708   6.055  12.134  0.7692  2.1197  1.3032
 9185TIP3    H248971   1.623   6.111  12.246 -2.2320 -0.7539  0.6016
 9186TIP3   OH248972   3.877   2.680   6.153 -0.0200 -0.0372 -0.4818
 9186TIP3    H148973   3.793   2.687   6.107 -1.1132  1.2405  1.5246
 9186TIP3    H248974   3.858   2.711   6.242  3.1248  2.9423 -0.6190
 9187TIP3   OH248975   3.393   2.263  13.373 -0.4204 -0.0015  0.1202
 9187TIP3    H148976   3.302   2.286  13.352 -1.2289 -1.7018  1.4446
 9187TIP3    H248977   3.406   2.296  13.462 -0.2361 -0.9668  0.4698
 9188TIP3   OH248978   0.682   0.040  15.342 -0.6064 -0.1218  0.5140
 9188TIP3    H148979   0.767   0.033  15.386 -0.5987 -1.5206  0.3430
 9188TIP3    H248980   0.650  -0.051  15.337 -1.7067  0.2781 -0.2136
 9189TIP3   OH248981   6.219   4.885  11.186 -0.0549  0.1347 -0.1995
 9189TIP3    H148982   6.287   4.909  11.249  0.5738 -3.5100  0.7491
 9189TIP3    H248983   6.188   4.800  11.216 -1.2091 -0.8395 -3.6919
 9190TIP3   OH248984   6.562   0.733   1.718 -0.0549 -0.5353 -0.2284
 9190TIP3    H148985   6.513   0.678   1.656 -0.0678 -1.3688  0.5009
 9190TIP3    H248986   6.627   0.778   1.664  0.1363 -1.4839 -0.8068
 9191TIP3   OH248987   1.324   2.108   2.377 -0.1549 -0.1668  0.2144
 9191TIP3    H148988   1.295   2.051   2.305 -0.8470  0.2773  0.1222
 9191TIP3    H248989   1.272   2.188   2.366  0.8383  0.5155  0.3003
 9192TIP3   OH248990   2.372   3.911   4.485 -0.3117 -0.3716 -0.9028
 9192TIP3    H148991   2.340   3.846   4.423  0.7202 -0.5283 -1.2938
 9192TIP3    H248992   2.467   3.901   4.483 -0.2683 -0.5155  0.8624
 9193TIP3   OH248993   6.206   2.524  13.166  0.3273  0.2351  0.0284
 9193TIP3    H148994   6.235   2.602  13.215  1.9135 -1.0178  1.2074
 9193TIP3    H248995   6.112   2.536  13.156  0.0613  1.0082  2.6840
 9194TIP3   OH248996   1.169   0.350   4.127 -0.1659 -0.5176 -0.0186
 9194TIP3    H148997   1.148   0.438   4.157  0.6809 -0.2908 -0.0555
 9194TIP3    H248998   1.253   0.359   4.083 -0.1602 -1.3110 -0.1944
 9195TIP3   OH248999   1.287   4.457   0.144  0.0431  0.0668 -0.1254
 9195TIP3    H149000   1.296   4.546   0.179 -1.1931  0.0237  0.3332
 9195TIP3    H249001   1.263   4.469   0.053 -1.9884  0.2527  0.3970
 9196TIP3   OH249002   2.061   4.543  14.331 -0.2535  0.4142  0.3433
 9196TIP3    H149003   2.023   4.464  14.293 -0.0483  0.4140  0.1374
 9196TIP3    H249004   2.005   4.563  14.406 -0.8498  0.6003 -0.1461
 9197TIP3   OH249005   4.598   3.741   1.719  0.3870 -0.2244 -1.1687
 9197TIP3    H149006   4.643   3.657   1.716 -1.6843 -1.4432 -0.2384
 9197TIP3    H249007   4.531   3.736   1.650 -1.2663 -0.3250  0.3634
 9198TIP3   OH249008   0.557   4.421  12.610  0.4590  0.0425  0.4564
 9198TIP3    H149009   0.543   4.474  12.689 -2.2038  0.4204 -0.1584
 9198TIP3    H249010   0.576   4.334  12.643 -0.4485  0.2321  1.5385
 9199TIP3   OH249011   5.805   3.982   3.094  0.3322  0.7293  0.0846
 9199TIP3    H149012   5.728   3.926   3.102 -0.1616  1.2427 -0.8612
 9199TIP3    H249013   5.791   4.031   3.013  2.3929 -0.3139 -0.9928
 9200TIP3   OH249014   1.215   0.745   5.829  0.2229 -0.2066  0.1370
 9200TIP3    H149015   1.226   0.675   5.893  0.4490  0.2609  0.6182
 9200TIP3    H249016   1.302   0.757   5.791  0.1745 -0.2169  0.0229
 9201TIP3   OH249017   0.765   6.522   2.193 -0.1865 -0.3256 -0.2314
 9201TIP3    H149018   0.836   6.476   2.148 -1.8774 -3.1142 -0.3365
 9201TIP3    H249019   0.750   6.470   2.272 -1.5072  0.7084  0.2277
 9202TIP3   OH249020   3.012   2.322  11.081  0.5379 -0.0434 -0.1023
 9202TIP3    H149021   2.996   2.393  11.019 -1.7331  0.6839  1.2191
 9202TIP3    H249022   2.939   2.261  11.067 -0.4081  0.4741  2.2411
 9203TIP3   OH249023   1.768   2.669  13.893 -0.0197 -0.4297  0.1030
 9203TIP3    H149024   1.744   2.738  13.830 -0.0099 -0.3922  0.1400
 9203TIP3    H249025   1.769   2.714  13.978  1.3965 -0.1287 -0.0497
 9204TIP3   OH249026   5.962   6.315  16.414  0.3835 -0.0596  0.6416
 9204TIP3    H149027   5.939   6.249  16.348  1.4113  0.5225 -0.3435
 9204TIP3    H249028   6.056   6.307  16.424  0.6493  1.7602 -0.0924
 9205TIP3   OH249029   3.421   4.683  12.719  0.1705  0.4487  0.1200
 9205TIP3    H149030   3.347   4.625  12.700  0.4060  0.6700 -1.7221
 9205TIP3    H249031   3.420   4.746  12.647  1.1885  1.4538  0.9519
 9206TIP3   OH249032   1.416   1.231  17.066 -0.1070  0.0476  0.2760
 9206TIP3    H149033   1.395   1.178  16.989  0.3727  1.1938 -0.6771
 9206TIP3    H249034   1.478   1.178  17.116  0.6035 -0.1830 -0.8065
 9207TIP3   OH249035   2.521   6.036  11.906  0.6727 -0.1112  0.1628
 9207TIP3    H149036   2.454   6.035  11.838  0.9351  0.6554 -0.1137
 9207TIP3    H249037   2.559   5.948  11.903  1.6904  0.3330 -1.7316
 9208TIP3   OH249038   0.687   2.398   5.001  0.5325 -0.2817  0.3942
 9208TIP3    H149039   0.672   2.303   4.995 -0.1688 -0.1754  0.3834
 9208TIP3    H249040   0.678   2.430   4.912  2.9526 -0.4888  0.0125
 9209TIP3   OH249041   0.525   4.542   3.118  0.0688 -0.1904  0.4248
 9209TIP3    H149042   0.497   4.610   3.179  0.4312 -1.1484  1.6941
 9209TIP3    H249043   0.450   4.531   3.059 -0.2758  0.7575  0.6617
 9210TIP3   OH249044   3.359   1.512  11.868  0.2389 -0.3678  0.1589
 9210TIP3    H149045   3.346   1.418  11.881  2.5448 -0.4921  2.3920
 9210TIP3    H249046   3.337   1.526  11.776 -0.3555 -3.0450 -0.2082
 9211TIP3   OH249047   0.430   6.161   1.465 -0.9495  0.0055 -0.3002
 9211TIP3    H149048   0.425   6.247   1.506 -1.0289  0.8327 -1.9902
 9211TIP3    H249049   0.340   6.141   1.440 -0.9448 -0.6178  0.1633
 9212TIP3   OH249050   2.447   3.352   1.784 -0.4059  0.3215 -0.4370
 9212TIP3    H149051   2.467   3.421   1.720 -0.4328  0.5224 -0.2288
 9212TIP3    H249052   2.365   3.314   1.752 -0.0978  0.0028 -0.8685
 9213TIP3   OH249053   6.102   2.009  17.205  0.1093 -0.2590 -0.4644
 9213TIP3    H149054   6.013   2.041  17.220 -0.2582 -1.6851  0.6052
 9213TIP3    H249055   6.114   1.940  17.270  1.7070 -0.6569 -1.1377
 9214TIP3   OH249056   3.055   1.286   5.582  0.1291  0.1467  0.8588
 9214TIP3    H149057   2.983   1.226   5.602 -0.1904  0.0055 -0.5989
 9214TIP3    H249058   3.067   1.337   5.662 -0.5641 -0.8676  1.6361
 9215TIP3   OH249059   2.615   2.338   4.141 -0.9590  0.6815 -0.6012
 9215TIP3    H149060   2.528   2.307   4.116 -0.5494 -0.3439 -0.8022
 9215TIP3    H249061   2.638   2.284   4.217  0.5787 -0.9135 -2.1403
 9216TIP3   OH249062   6.706   0.590  11.837  0.0546 -0.2456 -0.3256
 9216TIP3    H149063   6.645   0.664  11.836  1.6684  1.2748  2.1650
 9216TIP3    H249064   6.675   0.532  11.768 -3.4076  1.0562 -0.0524
 9217TIP3   OH249065   1.096   2.465   4.884  0.5893  0.4132 -0.4148
 9217TIP3    H149066   1.026   2.526   4.908 -0.5510 -0.4833 -1.3158
 9217TIP3    H249067   1.102   2.406   4.960  2.3135  2.1082  0.8431
 9218TIP3   OH249068   2.003   0.350  16.909 -0.1784 -0.3409 -0.2487
 9218TIP3    H149069   1.924   0.404  16.916 -0.4678 -0.7558 -0.2625
 9218TIP3    H249070   1.991   0.281  16.974  0.8712  0.4449  0.8080
 9219TIP3   OH249071   3.603   2.119  17.389 -0.2317 -0.2692 -0.4872
 9219TIP3    H149072   3.570   2.167  17.464  0.9996  0.3466 -0.3024
 9219TIP3    H249073   3.525   2.088  17.343 -1.0217 -1.1927  1.3495
 9220TIP3   OH249074   3.382   4.565   1.060  0.4075  0.3454  0.3959
 9220TIP3    H149075   3.328   4.559   0.981 -0.4371  0.0649  0.9781
 9220TIP3    H249076   3.462   4.609   1.031 -0.7951  2.2799 -0.1578
 9221TIP3   OH249077   1.399   2.830   0.123  0.7820 -0.0750 -0.4483
 9221TIP3    H149078   1.481   2.875   0.145  1.1314 -0.5822 -0.6914
 9221TIP3    H249079   1.414   2.740   0.151  0.4364 -0.2480 -0.8186
 9222TIP3   OH249080   1.597   2.183  15.567  0.0126 -0.2349 -0.5907
 9222TIP3    H149081   1.604   2.169  15.661 -0.5558 -1.9596 -0.7792
 9222TIP3    H249082   1.680   2.224  15.543 -0.4220  1.6322  0.8653
 9223TIP3   OH249083   1.157   4.161  13.184 -0.6689 -0.0722 -0.8438
 9223TIP3    H149084   1.080   4.106  13.168 -0.9757  0.4683 -1.2935
 9223TIP3    H249085   1.199   4.169  13.098  0.5041 -1.2379 -0.4089
 9224TIP3   OH249086   2.946   1.542   3.820 -0.1805  0.2511 -0.1935
 9224TIP3    H149087   2.891   1.476   3.779 -2.7449  0.7270  2.1467
 9224TIP3    H249088   2.960   1.608   3.752 -1.1246 -0.7086 -1.3560
 9225TIP3   OH249089   4.746   6.343   3.861  0.3691 -0.4978  0.1590
 9225TIP3    H149090   4.650   6.350   3.859  0.5135  2.4852 -1.0422
 9225TIP3    H249091   4.766   6.318   3.952 -1.4635  2.4281  1.5170
 9226TIP3   OH249092   6.395   3.316  11.171  0.1084  1.0869 -0.2614
 9226TIP3    H149093   6.386   3.337  11.078 -0.7182  0.0380 -0.4380
 9226TIP3    H249094   6.463   3.375  11.203  0.9993  0.8778 -1.7154
 9227TIP3   OH249095   0.893   1.326   2.770  0.7039 -0.5943  0.3496
 9227TIP3    H149096   0.913   1.257   2.708  1.1412 -0.3686  0.2323
 9227TIP3    H249097   0.977   1.372   2.782 -0.0685  1.4748 -1.4776
 9228TIP3   OH249098   2.732   3.149   4.047  0.7564  0.2540  0.6591
 9228TIP3    H149099   2.744   3.194   3.964  0.0540 -2.8521 -1.2964
 9228TIP3    H249100   2.683   3.211   4.101 -0.0475  1.8579 -1.7619
 9229TIP3   OH249101   5.301   6.040  12.979  0.4665 -0.4978  1.0104
 9229TIP3    H149102   5.236   5.972  12.996 -1.3982  0.2392 -2.1497
 9229TIP3    H249103   5.249   6.114  12.946  2.7518  0.9891  0.5345
 9230TIP3   OH249104   0.647   0.200   5.223  0.7267 -0.4048  0.3680
 9230TIP3    H149105   0.734   0.206   5.263  0.0997 -0.0551  1.7363
 9230TIP3    H249106   0.591   0.169   5.294 -0.3343 -0.2731 -0.4000
 9231TIP3   OH249107   1.848   2.587  16.539  0.2813  0.3269 -0.4379
 9231TIP3    H149108   1.909   2.588  16.613  1.8603 -0.0647 -1.6566
 9231TIP3    H249109   1.905   2.581  16.462 -1.3296 -2.9113 -1.5746
 9232TIP3   OH249110   5.437   3.192  12.399  0.0908  0.1882  0.1677
 9232TIP3    H149111   5.486   3.110  12.400  0.5267  0.4466  1.6285
 9232TIP3    H249112   5.382   3.188  12.477 -0.0781  1.1626  0.1050
 9233TIP3   OH249113   0.864   1.218   0.216 -0.0272 -0.3163 -0.1243
 9233TIP3    H149114   0.845   1.180   0.302  2.2651 -1.9755 -0.2602
 9233TIP3    H249115   0.821   1.159   0.154  0.6434 -0.7441 -0.1954
 9234TIP3   OH249116   1.771   1.256   5.800 -0.1814 -0.7124 -0.3876
 9234TIP3    H149117   1.762   1.350   5.785  2.1478 -0.3730 -0.1357
 9234TIP3    H249118   1.701   1.234   5.861 -0.7773  0.8538 -0.4684
 9235TIP3   OH249119   3.918   0.480  13.533 -0.0133  0.2070 -0.0173
 9235TIP3    H149120   3.962   0.447  13.612  0.3996  0.0509 -0.3122
 9235TIP3    H249121   3.976   0.549  13.501  0.0305 -0.0163 -0.4217
 9236TIP3   OH249122   1.168   3.273  15.236  0.8583  0.6707  0.1783
 9236TIP3    H149123   1.161   3.354  15.185  1.2415  1.2827  1.0726
 9236TIP3    H249124   1.239   3.289  15.297 -0.7253  0.6653  2.1458
 9237TIP3   OH249125   0.049   5.275   1.020 -0.0577  0.2474  0.2276
 9237TIP3    H149126  -0.044   5.280   1.045 -0.0370 -0.1956  0.4147
 9237TIP3    H249127   0.052   5.309   0.931 -0.2318  1.2880  0.6032
 9238TIP3   OH249128   4.820   0.972   4.132 -0.4558 -0.5744  0.4472
 9238TIP3    H149129   4.895   1.026   4.105  0.4955  0.0387  3.8551
 9238TIP3    H249130   4.800   0.918   4.055  0.8404  2.0744 -1.9344
 9239TIP3   OH249131   0.362   5.386   4.268 -0.2772  0.0944  0.2159
 9239TIP3    H149132   0.440   5.416   4.221 -0.1591 -2.3895 -1.3326
 9239TIP3    H249133   0.341   5.459   4.327  3.7231  0.5615  1.4209
 9240TIP3   OH249134   6.016   3.038   3.469 -0.3804 -0.0451  0.1948
 9240TIP3    H149135   5.950   3.009   3.532 -0.8385  1.3188  0.3865
 9240TIP3    H249136   5.968   3.096   3.409  0.4358  0.1508 -0.2789
 9241TIP3   OH249137   0.381   6.034  13.929  0.2244 -0.1960 -0.3369
 9241TIP3    H149138   0.396   5.966  13.863  2.6262 -0.2369  0.1675
 9241TIP3    H249139   0.468   6.056  13.962 -0.6485  1.8251  0.8501
 9242TIP3   OH249140   1.398   0.463   0.572  0.0094 -0.0780  0.0749
 9242TIP3    H149141   1.378   0.374   0.543 -1.1112  0.3565 -0.5495
 9242TIP3    H249142   1.390   0.517   0.494  0.1931  0.6523  0.5405
 9243TIP3   OH249143   2.829   6.346   4.826  0.0529  0.1183 -0.3072
 9243TIP3    H149144   2.798   6.405   4.757  0.2849  1.4364  0.6734
 9243TIP3    H249145   2.914   6.382   4.853 -0.4963  0.2794  1.3677
 9244TIP3   OH249146   5.442   1.388   0.742 -0.3699  0.0294 -0.2441
 9244TIP3    H149147   5.377   1.337   0.694 -1.4152  1.5078 -0.4348
 9244TIP3    H249148   5.508   1.411   0.676  0.3798 -1.4349 -0.0566
 9245TIP3   OH249149   0.085   4.092  12.077 -0.4978 -0.0366  0.2903
 9245TIP3    H149150   0.147   4.054  12.014 -1.4672  0.0199 -0.7243
 9245TIP3    H249151   0.029   4.019  12.103 -0.9674  0.2354  0.0410
 9246TIP3   OH249152   4.362   6.242   2.424 -0.7358  0.3027  0.1703
 9246TIP3    H149153   4.422   6.185   2.473 -0.2677  1.2090  0.6723
 9246TIP3    H249154   4.330   6.187   2.353  1.6917  0.1487 -0.8979
 9247TIP3   OH249155   6.153   6.334   4.335 -0.0034  0.0043  0.2742
 9247TIP3    H149156   6.075   6.339   4.279 -0.1224 -1.1142  0.3131
 9247TIP3    H249157   6.224   6.369   4.281 -0.2775 -0.2797 -0.2770
 9248TIP3   OH249158   6.340   5.735   4.261 -0.0996 -0.3820 -0.4779
 9248TIP3    H149159   6.264   5.682   4.282 -0.2325  0.1597  0.4263
 9248TIP3    H249160   6.312   5.789   4.186  0.2141 -1.9383 -1.7668
 9249TIP3   OH249161   2.910   3.566   5.199  0.9837  0.3969  0.4352
 9249TIP3    H149162   2.828   3.554   5.151  0.6075 -0.4960  1.2572
 9249TIP3    H249163   2.906   3.656   5.232  1.4395  1.1798 -1.5045
 9250TIP3   OH249164   1.296   6.717  16.555 -0.5392 -0.1207  0.6716
 9250TIP3    H149165   1.349   6.770  16.613 -0.6965  0.5256  0.2342
 9250TIP3    H249166   1.315   6.751  16.467 -1.6435  0.1079  0.5009
 9251TIP3   OH249167   3.629   1.634   0.456 -0.1371 -0.1595  0.4215
 9251TIP3    H149168   3.691   1.692   0.413  0.3196 -0.0022  1.2738
 9251TIP3    H249169   3.659   1.630   0.547 -0.9069 -0.7181  0.6588
 9252TIP3   OH249170   2.086   0.887  15.408  0.4305  0.0416 -0.6242
 9252TIP3    H149171   2.046   0.804  15.380 -0.9638  0.5634 -0.2329
 9252TIP3    H249172   2.050   0.952  15.348  0.2735  0.6098  0.0734
 9253TIP3   OH249173   3.701   3.620   3.602  0.4355 -0.2376  0.0220
 9253TIP3    H149174   3.750   3.539   3.616 -0.6164 -1.8993 -4.3507
 9253TIP3    H249175   3.768   3.686   3.583  1.1941 -0.9682  0.0991
 9254TIP3   OH249176   6.049   1.760  17.397 -0.0560  0.2618  1.1380
 9254TIP3    H149177   6.137   1.757  17.436  0.0379 -0.2899  0.9011
 9254TIP3    H249178   6.028   1.668  17.380 -1.0268  0.3155  1.9432
 9255TIP3   OH249179   3.905   1.717  13.943  0.1455  0.9546 -0.3146
 9255TIP3    H149180   3.928   1.714  13.850 -1.1257 -0.6069 -0.6308
 9255TIP3    H249181   3.908   1.810  13.965  1.1945  1.2950 -1.7173
 9256TIP3   OH249182   1.358   4.418  11.988  0.5795 -0.1707 -0.0606
 9256TIP3    H149183   1.411   4.340  12.006  2.3312  0.7992 -0.8320
 9256TIP3    H249184   1.319   4.402  11.902  1.0819 -0.1269 -0.2984
 9257TIP3   OH249185   6.635   2.787   4.037  0.2251  0.1891 -0.0104
 9257TIP3    H149186   6.687   2.859   4.002  2.5848 -1.9309 -1.2059
 9257TIP3    H249187   6.576   2.763   3.965  3.2357 -2.4394 -1.8693
 9258TIP3   OH249188   6.457   5.643  13.255 -0.1441  0.5409 -0.4469
 9258TIP3    H149189   6.430   5.560  13.295  0.0768  0.5327 -0.3086
 9258TIP3    H249190   6.399   5.709  13.292 -0.8265  0.3420 -1.1364
 9259TIP3   OH249191   1.973   3.355  16.576  0.1018  0.1286  0.6090
 9259TIP3    H149192   1.958   3.433  16.630  0.8989 -0.3486  1.5524
 9259TIP3    H249193   1.892   3.345  16.525  0.3835  2.1984 -0.3581
 9260TIP3   OH249194   5.306   5.661  10.476 -0.2002 -0.2433 -0.3276
 9260TIP3    H149195   5.249   5.631  10.406 -2.4940  0.8262  0.9735
 9260TIP3    H249196   5.252   5.656  10.555  2.2287 -1.2560  1.4012
 9261TIP3   OH249197   5.710   1.387   1.337  0.3590  0.0516 -0.2550
 9261TIP3    H149198   5.766   1.370   1.413 -0.0191 -0.7166 -0.1401
 9261TIP3    H249199   5.655   1.461   1.364  1.8248  1.3402 -0.6571
 9262TIP3   OH249200   1.026   1.949   0.468 -0.0359  0.2527  0.1585
 9262TIP3    H149201   1.064   1.870   0.506  1.1525  0.0003 -1.4414
 9262TIP3    H249202   1.090   2.018   0.488  0.3123  0.2312 -0.8403
 9263TIP3   OH249203   6.616   6.224  11.934  0.0893 -0.0419  0.7728
 9263TIP3    H149204   6.607   6.255  12.024  1.3674  2.1823  0.2235
 9263TIP3    H249205   6.689   6.162  11.938 -0.7984 -1.0718  1.4772
 9264TIP3   OH249206   4.685   5.698  14.906 -0.4268 -0.0510 -0.4739
 9264TIP3    H149207   4.647   5.612  14.922  1.5906 -0.9259 -0.0891
 9264TIP3    H249208   4.636   5.756  14.965 -0.7668 -1.2187  0.4502
 9265TIP3   OH249209   5.230   1.957  11.525  0.1628 -0.5722 -0.1474
 9265TIP3    H149210   5.223   2.002  11.441 -0.4852 -0.6571 -0.1513
 9265TIP3    H249211   5.297   1.890  11.511 -0.0573 -0.6964 -0.6551
 9266TIP3   OH249212   1.370   1.991  14.995 -0.6561 -0.0253 -0.5690
 9266TIP3    H149213   1.311   2.041  14.938  0.0507  2.4315  0.7162
 9266TIP3    H249214   1.313   1.957  15.064 -0.6245  3.0416  1.1393
 9267TIP3   OH249215   6.208   3.273   5.139 -0.2022  0.5135  0.1718
 9267TIP3    H149216   6.282   3.246   5.193 -0.3588 -0.3235 -0.0185
 9267TIP3    H249217   6.200   3.367   5.154 -1.1966  0.1121  2.8234
 9268TIP3   OH249218   3.982   6.361  14.786 -0.3446  0.0795  0.3611
 9268TIP3    H149219   4.065   6.332  14.748 -0.5766 -0.4192  0.2248
 9268TIP3    H249220   4.001   6.447  14.823  0.0929  0.2123 -0.1635
 9269TIP3   OH249221   3.757   5.355  12.817 -0.5109  0.1250 -0.7847
 9269TIP3    H149222   3.800   5.321  12.896 -1.1995  0.5602 -0.2053
 9269TIP3    H249223   3.807   5.433  12.794 -1.7105  1.3936  0.6614
 9270TIP3   OH249224   4.032   0.682  16.453  0.0877  0.0924 -0.3933
 9270TIP3    H149225   4.022   0.650  16.543 -3.5616  2.5889  0.3317
 9270TIP3    H249226   4.076   0.611  16.407 -2.9949 -3.9051  2.0648
 9271TIP3   OH249227   5.091   1.442  16.796 -0.1268 -0.0547  0.2118
 9271TIP3    H149228   5.159   1.386  16.832 -0.4200 -1.2653 -1.0253
 9271TIP3    H249229   5.099   1.431  16.701 -0.9089  1.1617 -0.0204
 9272TIP3   OH249230   4.346   3.756   0.424 -0.1777  0.7159  0.1439
 9272TIP3    H149231   4.279   3.731   0.361  1.1187  1.0317 -1.4263
 9272TIP3    H249232   4.304   3.824   0.478 -1.0647  1.0492 -0.9265
 9273TIP3   OH249233   5.811   4.420  12.068  0.8543 -0.6775  0.1302
 9273TIP3    H149234   5.768   4.446  12.150  1.8674  2.7756 -0.2943
 9273TIP3    H249235   5.740   4.407  12.006  0.2048 -0.2742  0.7760
 9274TIP3   OH249236   6.344   1.611  16.379  0.0442 -0.0210  0.0416
 9274TIP3    H149237   6.340   1.686  16.440 -0.0391 -0.9582  1.2344
 9274TIP3    H249238   6.306   1.644  16.298 -2.3884  0.5298  1.3083
 9275TIP3   OH249239   2.579   5.504  12.564 -0.5046  0.0232  0.1588
 9275TIP3    H149240   2.617   5.591  12.557  0.6264 -0.1990  2.6801
 9275TIP3    H249241   2.647   5.450  12.603 -1.4959 -1.8032 -0.4825
 9276TIP3   OH249242   2.255   6.663  14.088 -0.1840 -0.3841 -0.0611
 9276TIP3    H149243   2.226   6.575  14.111  3.3770 -1.3014  1.5518
 9276TIP3    H249244   2.351   6.658  14.087  0.1620  3.2929 -0.7180
 9277TIP3   OH249245   0.932   0.026   3.165 -0.2370  0.1407 -0.0218
 9277TIP3    H149246   1.000   0.073   3.117 -0.2241  0.7359  0.5598
 9277TIP3    H249247   0.946   0.052   3.256 -0.5588 -0.5938  0.2413
 9278TIP3   OH249248   1.706   4.974   5.435  0.3409 -0.7765  0.5193
 9278TIP3    H149249   1.764   4.912   5.390  0.7858  1.7905 -2.8751
 9278TIP3    H249250   1.762   5.015   5.501  1.4349 -0.7421 -0.3914
 9279TIP3   OH249251   5.808   3.692   4.459 -0.6098 -0.0222  0.1522
 9279TIP3    H149252   5.834   3.679   4.367 -0.5027 -0.1192  0.1958
 9279TIP3    H249253   5.725   3.739   4.454 -1.7163 -1.8965 -0.0561
 9280TIP3   OH249254   5.225   1.129  16.222  0.0527  0.0910 -0.0182
 9280TIP3    H149255   5.202   1.060  16.284  1.4808 -0.3166  0.0857
 9280TIP3    H249256   5.314   1.155  16.247  0.8269 -0.3648 -2.1466
 9281TIP3   OH249257   0.332   0.360  12.465 -0.0685  0.7947  0.3196
 9281TIP3    H149258   0.325   0.311  12.547  1.0582  0.9019  0.4990
 9281TIP3    H249259   0.305   0.449  12.487  1.1181  1.0491  0.8149
 9282TIP3   OH249260   3.649   0.441  15.873  0.5395 -0.0391  0.4432
 9282TIP3    H149261   3.565   0.396  15.877 -0.0904  0.9137 -0.8961
 9282TIP3    H249262   3.705   0.382  15.822  0.9592 -1.0170  1.9667
 9283TIP3   OH249263   4.842   5.814  16.327 -0.5833  0.2548  0.1341
 9283TIP3    H149264   4.812   5.892  16.280  0.4535  1.2203  1.0127
 9283TIP3    H249265   4.790   5.813  16.407  0.2671  0.7604  0.7004
 9284TIP3   OH249266   0.393   0.331  12.726  0.4382  0.1433 -0.6837
 9284TIP3    H149267   0.318   0.318  12.785  1.9645  1.9135  1.8522
 9284TIP3    H249268   0.465   0.284  12.769  1.2036 -0.1010 -2.1774
 9285TIP3   OH249269   3.450   5.893   2.908  0.8845 -0.0035  0.0190
 9285TIP3    H149270   3.448   5.867   3.000  0.5947  0.4954  0.1548
 9285TIP3    H249271   3.506   5.971   2.906  2.3658 -1.0385 -0.4947
 9286TIP3   OH249272   1.421   2.128  10.617 -0.0921  0.3720  0.0800
 9286TIP3    H149273   1.428   2.045  10.570  0.4037  0.1756  0.4863
 9286TIP3    H249274   1.442   2.105  10.708  0.8102  1.0754  0.0580
 9287TIP3   OH249275   1.867   6.402  12.215 -1.0014  0.0804  0.2127
 9287TIP3    H149276   1.818   6.468  12.166 -0.3393  0.3043 -0.1621
 9287TIP3    H249277   1.807   6.375  12.285 -0.9364  1.8481  1.0258
 9288TIP3   OH249278   1.795   0.081   3.215  0.1497  0.3796 -0.4923
 9288TIP3    H149279   1.769   0.151   3.274 -3.9513 -1.7218  0.5514
 9288TIP3    H249280   1.764   0.109   3.129 -0.8728  0.1793 -0.1982
 9289TIP3   OH249281   3.788   6.111  11.553 -0.2016  0.1002 -0.0624
 9289TIP3    H149282   3.826   6.109  11.465  2.9285  2.2479  1.0392
 9289TIP3    H249283   3.813   6.027  11.591 -0.2965 -0.2519 -0.7557
 9290TIP3   OH249284   5.751   3.281  12.711  0.1180  0.9626 -0.0878
 9290TIP3    H149285   5.742   3.374  12.734 -3.5684  0.2669  2.0980
 9290TIP3    H249286   5.756   3.237  12.796 -0.1479 -0.9560 -1.0309
 9291TIP3   OH249287   1.661   4.717   2.773 -0.6821 -0.6631 -0.3151
 9291TIP3    H149288   1.678   4.640   2.720  0.3783 -2.0709  1.9019
 9291TIP3    H249289   1.747   4.740   2.809 -1.4531 -0.2622  1.3592
 9292TIP3   OH249290   3.888   4.514  15.870 -0.1840 -0.0926  0.1089
 9292TIP3    H149291   3.914   4.536  15.781  4.4494  1.9205  1.6914
 9292TIP3    H249292   3.855   4.596  15.906 -1.6222 -0.7973  0.4781
 9293TIP3   OH249293   5.358   2.518  12.076  0.2045  0.1678  0.2417
 9293TIP3    H149294   5.394   2.603  12.101  1.2360 -0.2764  0.2949
 9293TIP3    H249295   5.273   2.539  12.038  0.7071  1.2842 -0.3219
 9294TIP3   OH249296   6.285   3.904   5.880  0.2224 -0.4433 -0.5703
 9294TIP3    H149297   6.272   3.979   5.937  1.0575 -0.6349 -0.1130
 9294TIP3    H249298   6.268   3.828   5.935 -0.0197 -0.6107 -0.8699
 9295TIP3   OH249299   1.195   1.590  11.978 -0.3644 -0.2039  0.0279
 9295TIP3    H149300   1.221   1.680  11.999  1.5603 -0.8673  0.7070
 9295TIP3    H249301   1.110   1.579  12.021  1.0870  0.1605  3.3469
 9296TIP3   OH249302   5.456   4.702   3.691  0.0655 -0.5448 -0.2698
 9296TIP3    H149303   5.488   4.787   3.662  0.5340 -0.6434 -0.0502
 9296TIP3    H249304   5.500   4.686   3.775  1.4144 -1.8056 -1.1593
 9297TIP3   OH249305   5.865   2.359   5.990 -0.0760  0.1226 -0.2682
 9297TIP3    H149306   5.943   2.303   5.992 -1.0321 -1.2476  0.1438
 9297TIP3    H249307   5.839   2.360   5.898  0.4928  0.6973 -0.4292
 9298TIP3   OH249308   1.203   3.471  12.697  0.6957 -0.6616  0.2757
 9298TIP3    H149309   1.262   3.540  12.668  0.2023 -1.1186 -1.9615
 9298TIP3    H249310   1.173   3.500  12.783  1.5346  1.2343 -0.0206
 9299TIP3   OH249311   6.397   4.883  11.422  0.0604  0.0511 -0.2331
 9299TIP3    H149312   6.472   4.879  11.481 -0.5610  1.3269  0.6905
 9299TIP3    H249313   6.338   4.815  11.454  0.4359 -0.3630 -0.4151
 9300TIP3   OH249314   1.941   6.037  12.187  0.4572 -0.2746  0.1102
 9300TIP3    H149315   1.927   6.080  12.271  0.9786 -1.5281  0.8713
 9300TIP3    H249316   1.999   6.096  12.139 -2.3019  2.0077 -0.6837
 9301TIP3   OH249317   4.952   3.457   1.617  0.8055 -0.1423 -0.2932
 9301TIP3    H149318   4.871   3.486   1.658  1.7173  0.7463  0.9509
 9301TIP3    H249319   4.962   3.366   1.645  1.0130  0.2155  0.8704
 9302TIP3   OH249320   5.995   3.722  15.768 -0.0609  0.0769  0.7571
 9302TIP3    H149321   5.966   3.638  15.731 -1.7635  1.1865 -0.5905
 9302TIP3    H249322   5.926   3.745  15.830  0.2687  0.5947  0.9273
 9303TIP3   OH249323   5.888   6.571   5.839  0.2743  0.3141  0.6730
 9303TIP3    H149324   5.904   6.659   5.874 -1.6522  1.1453 -0.3104
 9303TIP3    H249325   5.954   6.561   5.770 -0.8406  2.0052 -0.7489
 9304TIP3   OH249326   3.310   4.551   1.533 -0.5772  0.5719 -0.1685
 9304TIP3    H149327   3.325   4.472   1.584 -1.1826 -0.3598 -1.3672
 9304TIP3    H249328   3.396   4.591   1.524  0.1875 -1.2375 -1.5307
 9305TIP3   OH249329   6.748   0.012  16.634 -0.2723 -0.1771 -0.4999
 9305TIP3    H149330   6.675   0.040  16.689 -0.8850 -0.4575 -1.1645
 9305TIP3    H249331   6.735   0.058  16.551  0.6524  0.2505 -0.4286
 9306TIP3   OH249332   4.449   1.841  13.315 -0.2812  0.4673 -0.0296
 9306TIP3    H149333   4.540   1.828  13.342 -0.3843  0.4837  0.3354
 9306TIP3    H249334   4.405   1.872  13.394 -1.1181 -1.8189  0.4921
 9307TIP3   OH249335   2.825   5.102   6.651 -0.2518 -0.1580 -0.5613
 9307TIP3    H149336   2.824   5.183   6.701 -0.0998  0.3115 -1.2960
 9307TIP3    H249337   2.902   5.055   6.682 -1.4798 -1.0137  1.3597
 9308TIP3   OH249338   1.591   4.547  13.560  0.4422 -0.2568 -0.4586
 9308TIP3    H149339   1.648   4.503  13.623  0.3269 -1.2596 -1.0257
 9308TIP3    H249340   1.508   4.500  13.566  1.0239 -1.7552 -2.7771
 9309TIP3   OH249341   4.166   3.363  15.830 -0.0130 -0.4636  0.1415
 9309TIP3    H149342   4.208   3.439  15.870 -0.3156 -1.1152  1.7866
 9309TIP3    H249343   4.074   3.387  15.822  0.1026 -0.2093 -0.5229
 9310TIP3   OH249344   4.624   4.998   2.217 -0.1052  0.0205 -0.3852
 9310TIP3    H149345   4.583   4.997   2.130  1.1568  1.5290 -1.0578
 9310TIP3    H249346   4.588   5.076   2.259 -0.9719 -0.8979  0.6056
 9311TIP3   OH249347   5.702   5.556  12.787 -0.3371  0.5939 -0.1913
 9311TIP3    H149348   5.614   5.521  12.772 -2.5815  5.1210  0.7689
 9311TIP3    H249349   5.740   5.563  12.700 -0.5134 -2.0886 -0.5666
 9312TIP3   OH249350   6.517   1.732  16.105 -0.6996 -0.9212 -0.0328
 9312TIP3    H149351   6.425   1.714  16.124 -0.6287  0.8152  2.4124
 9312TIP3    H249352   6.533   1.818  16.143  2.1877 -1.5926  0.5042
 9313TIP3   OH249353   5.701   4.412  15.809  0.3501 -0.2670  0.3020
 9313TIP3    H149354   5.721   4.418  15.715 -1.3794 -2.6528 -0.3247
 9313TIP3    H249355   5.759   4.344  15.842 -0.0243 -0.4286  0.6341
 9314TIP3   OH249356   5.812   5.719   0.567  0.0155 -0.5838 -0.1545
 9314TIP3    H149357   5.788   5.782   0.635 -2.1681 -0.5791 -0.8347
 9314TIP3    H249358   5.830   5.638   0.614 -1.4293 -0.5674  0.4879
 9315TIP3   OH249359   6.273   5.823  13.314  0.3510  0.2116  0.4101
 9315TIP3    H149360   6.197   5.850  13.263 -0.2670 -0.1475  1.1272
 9315TIP3    H249361   6.313   5.904  13.344  0.3631  0.4049 -0.1144
 9316TIP3   OH249362   0.158   4.493  11.249 -0.0274 -0.0413  0.3915
 9316TIP3    H149363   0.217   4.501  11.324 -0.3302  0.4034  0.5934
 9316TIP3    H249364   0.133   4.583  11.230  0.9389 -0.0443 -0.9811
 9317TIP3   OH249365   1.459   3.968  17.009 -0.6122  0.2060 -0.1101
 9317TIP3    H149366   1.540   4.005  16.973  0.3891 -0.6089  1.2452
 9317TIP3    H249367   1.476   3.956  17.102 -3.3287  2.7780  0.8886
 9318TIP3   OH249368   2.517   1.570  11.458 -0.3194  0.1615 -0.0250
 9318TIP3    H149369   2.552   1.482  11.475 -1.3659 -0.1040  0.8724
 9318TIP3    H249370   2.505   1.573  11.363 -2.0363 -1.4051  0.0688
 9319TIP3   OH249371   6.328   5.514  16.832 -0.0822  0.2006 -0.3550
 9319TIP3    H149372   6.392   5.443  16.821 -0.2667 -0.1813  0.8673
 9319TIP3    H249373   6.381   5.592  16.846  0.1187  0.2370 -1.2416
 9320TIP3   OH249374   4.804   4.156  12.073 -0.4645 -0.5789  0.2620
 9320TIP3    H149375   4.799   4.230  12.132 -0.9957 -1.0894  0.8687
 9320TIP3    H249376   4.748   4.180  11.999 -0.6034 -0.3646  0.4375
 9321TIP3   OH249377   0.745   5.835   0.278  0.4116  0.6393 -0.0465
 9321TIP3    H149378   0.698   5.824   0.195 -0.4481 -0.9967  0.6068
 9321TIP3    H249379   0.832   5.796   0.261  0.2867  0.4330 -0.2248
 9322TIP3   OH249380   4.697   3.604  15.453 -0.6245  0.0038 -0.3987
 9322TIP3    H149381   4.790   3.590  15.472 -0.6465 -1.9662 -1.4822
 9322TIP3    H249382   4.686   3.573  15.363 -2.9286 -3.0952  0.7714
 9323TIP3   OH249383   4.741   1.695  11.765  0.1977 -0.1777 -0.1512
 9323TIP3    H149384   4.744   1.740  11.681  0.7893 -1.2525 -0.7121
 9323TIP3    H249385   4.801   1.744  11.821  2.2796 -1.3332 -1.3007
 9324TIP3   OH249386   0.344   3.778  14.842 -0.2769  0.1310 -0.4342
 9324TIP3    H149387   0.297   3.822  14.771 -1.3704 -1.7998 -0.9707
 9324TIP3    H249388   0.287   3.705  14.867  0.7402 -0.0630  1.4838
 9325TIP3   OH249389   0.721   4.772  12.479 -0.0692  0.0013 -0.4875
 9325TIP3    H149390   0.709   4.838  12.547 -1.0041 -0.1450 -0.4895
 9325TIP3    H249391   0.633   4.738  12.463  0.5267 -2.0636  0.3337
 9326TIP3   OH249392   4.087   1.767  11.798 -0.4444 -0.0147  0.2432
 9326TIP3    H149393   4.092   1.853  11.756 -0.7835 -0.7753 -1.4240
 9326TIP3    H249394   4.104   1.705  11.728 -1.8308 -1.3841  1.0441
 9327TIP3   OH249395   2.215   1.823  13.552 -0.4898  0.1128 -0.4358
 9327TIP3    H149396   2.296   1.863  13.583 -0.4411 -0.8179  0.6933
 9327TIP3    H249397   2.230   1.729  13.558 -1.1417 -0.0851 -1.6160
 9328TIP3   OH249398   6.674   1.469  12.440  0.5150 -0.2789  0.4899
 9328TIP3    H149399   6.627   1.491  12.521  0.3828  1.2837  0.0129
 9328TIP3    H249400   6.614   1.495  12.370  1.8564  1.2926 -0.1254
 9329TIP3   OH249401   0.574   2.314   3.580 -0.0643 -0.3350  0.2012
 9329TIP3    H149402   0.601   2.308   3.488  0.9852  0.3181  0.4567
 9329TIP3    H249403   0.555   2.223   3.605  2.0395 -0.8770  0.0277
 9330TIP3   OH249404   3.399   6.207   0.516 -0.8474 -0.1759  0.0949
 9330TIP3    H149405   3.327   6.181   0.574 -1.4239  0.2821 -0.3981
 9330TIP3    H249406   3.461   6.252   0.574 -1.8715  1.1378  0.2113
 9331TIP3   OH249407   3.852   5.576  11.704 -0.3614  0.0287  0.3755
 9331TIP3    H149408   3.813   5.557  11.790 -0.0142  0.3091  0.5954
 9331TIP3    H249409   3.888   5.492  11.675  0.2913  0.1161  0.9026
 9332TIP3   OH249410   2.904   2.506  12.690  0.5194 -0.3903 -0.8509
 9332TIP3    H149411   2.869   2.518  12.601 -0.1705 -0.5640 -0.6057
 9332TIP3    H249412   2.967   2.434  12.681 -0.2946 -1.0872 -1.0020
 9333TIP3   OH249413   2.852   3.543   4.726 -0.2595  0.3892 -0.2999
 9333TIP3    H149414   2.900   3.618   4.690  0.0849  0.5112  0.3980
 9333TIP3    H249415   2.920   3.479   4.746 -0.5779 -0.2335 -1.1534
 9334TIP3   OH249416   1.070   0.005  14.789  0.2423 -0.5898  0.9787
 9334TIP3    H149417   1.122  -0.066  14.829  0.8612  0.8988  3.0304
 9334TIP3    H249418   1.136   0.060  14.747  0.0794  0.0494  1.5451
 9335TIP3   OH249419   0.163   2.790  15.822  0.2113  0.1096 -0.1520
 9335TIP3    H149420   0.097   2.771  15.755 -0.0691  1.8250 -0.4117
 9335TIP3    H249421   0.241   2.815  15.773 -0.0851  1.6622  0.1180
 9336TIP3   OH249422   4.398   2.338  15.918  0.5379 -0.0446 -0.0147
 9336TIP3    H149423   4.372   2.406  15.856 -0.2088 -0.4465 -0.1594
 9336TIP3    H249424   4.342   2.352  15.995  2.3420  1.2571  1.1337
 9337TIP3   OH249425   4.131   2.183  10.940 -0.0625 -0.0936  0.1743
 9337TIP3    H149426   4.198   2.192  11.007 -0.2000 -1.8185  0.6034
 9337TIP3    H249427   4.170   2.219  10.860  1.3511 -0.9869  0.4336
 9338TIP3   OH249428   4.728   5.789  13.861  0.0322 -0.2428 -0.2128
 9338TIP3    H149429   4.762   5.767  13.775  1.3878  1.4861 -0.1841
 9338TIP3    H249430   4.640   5.824  13.845 -0.5685 -1.8624 -0.6311
 9339TIP3   OH249431   3.616   5.498  16.479  0.2754  0.1997 -0.4620
 9339TIP3    H149432   3.663   5.440  16.419 -0.5645 -2.3820  1.2096
 9339TIP3    H249433   3.526   5.465  16.478  0.0498  0.6598  1.5044
 9340TIP3   OH249434   1.545   3.590   2.120 -0.9804  0.1079 -0.1930
 9340TIP3    H149435   1.554   3.518   2.058  1.4513 -0.5206  0.7998
 9340TIP3    H249436   1.515   3.548   2.201  0.5780  0.1523  0.4292
 9341TIP3   OH249437   4.133   0.308   0.073 -0.2580  0.2735  0.4634
 9341TIP3    H149438   4.121   0.361  -0.007  1.2661  0.7503  0.5328
 9341TIP3    H249439   4.043   0.287   0.100 -0.9336  2.4122  0.1503
 9342TIP3   OH249440   6.008   5.809  14.825 -0.1893 -0.2910 -0.2647
 9342TIP3    H149441   5.926   5.786  14.781 -2.0624  1.7492  1.8716
 9342TIP3    H249442   6.002   5.766  14.910  1.0104 -0.1930 -0.1223
 9343TIP3   OH249443   5.535   1.833  15.403  0.3173  0.1700  0.4051
 9343TIP3    H149444   5.508   1.783  15.326  0.0849  0.4957  0.2733
 9343TIP3    H249445   5.460   1.826  15.463  0.6228 -0.3547  0.7417
 9344TIP3   OH249446   1.086   5.104   2.415  0.0565 -0.0390 -0.3012
 9344TIP3    H149447   1.040   5.062   2.342 -0.0448 -0.7815  0.1770
 9344TIP3    H249448   1.141   5.034   2.452  0.7751  0.5649 -0.2156
 9345TIP3   OH249449   1.645   5.702  16.766 -0.0542  0.2174 -0.7830
 9345TIP3    H149450   1.591   5.663  16.834 -1.2827  0.4716 -1.5740
 9345TIP3    H249451   1.670   5.788  16.800 -1.8457  0.9325 -1.2013
 9346TIP3   OH249452   3.101   3.229  11.671 -0.0898 -0.4067  0.2976
 9346TIP3    H149453   3.138   3.260  11.754  1.1197 -0.2935 -0.2677
 9346TIP3    H249454   3.153   3.274  11.604 -2.8047  1.6758 -0.5848
 9347TIP3   OH249455   0.130   4.064   4.782  0.3483 -0.0299  0.3032
 9347TIP3    H149456   0.074   4.012   4.725 -0.0850 -0.7629  1.3680
 9347TIP3    H249457   0.210   4.077   4.731 -0.0185 -0.6819 -0.4582
 9348TIP3   OH249458   1.155   1.509  14.710 -0.3652  0.1150  0.4762
 9348TIP3    H149459   1.091   1.476  14.647 -2.3274 -0.6174  2.7069
 9348TIP3    H249460   1.236   1.520  14.659 -1.5744 -1.2874 -1.9215
 9349TIP3   OH249461   6.110   0.997   6.008  0.3287 -0.1110 -0.8245
 9349TIP3    H149462   6.098   0.921   6.065  1.2336 -1.1207 -1.9353
 9349TIP3    H249463   6.201   1.024   6.023 -0.0610  0.9432 -0.2412
 9350TIP3   OH249464   1.577   1.387  13.823 -0.6028  0.5283  0.3267
 9350TIP3    H149465   1.641   1.326  13.788  0.9472  1.8714  0.7075
 9350TIP3    H249466   1.555   1.351  13.909  0.2058  0.4300  0.4996
 9351TIP3   OH249467   4.767   3.420  15.270  0.2189  0.4703  0.1834
 9351TIP3    H149468   4.844   3.474  15.288  0.1278  0.6159  0.1373
 9351TIP3    H249469   4.793   3.331  15.296  0.2140  0.6117  0.6756
 9352TIP3   OH249470   4.963   3.870  15.517 -0.1493  0.4616 -0.5861
 9352TIP3    H149471   4.971   3.900  15.607 -0.3754 -1.0209 -0.0390
 9352TIP3    H249472   5.029   3.802  15.509  0.0585  0.7778 -1.6365
 9353TIP3   OH249473   4.180   2.769  11.076 -0.1080  0.3238  1.2049
 9353TIP3    H149474   4.168   2.774  10.981  3.4685  0.0234  0.6139
 9353TIP3    H249475   4.105   2.817  11.112 -2.8284 -1.4761 -1.5906
 9354TIP3   OH249476   3.217   1.832   2.400  0.7945 -0.3449  0.1063
 9354TIP3    H149477   3.253   1.874   2.478 -0.2379 -1.0922  1.0092
 9354TIP3    H249478   3.290   1.779   2.366  0.7226 -1.5269  1.6716
 9355TIP3   OH249479   1.715   3.334  14.707 -0.3643 -0.0180 -0.0616
 9355TIP3    H149480   1.649   3.401  14.690 -1.4380 -0.7757  0.9417
 9355TIP3    H249481   1.680   3.285  14.782  0.8099 -1.1409 -0.2237
 9356TIP3   OH249482   0.182   1.956   2.104 -0.7388  0.0084  0.1063
 9356TIP3    H149483   0.250   1.975   2.169  1.0786 -2.0604 -1.0636
 9356TIP3    H249484   0.186   2.030   2.043  1.9328 -0.9781 -1.0451
 9357TIP3   OH249485   6.300   5.010   5.804 -0.2873  0.9627 -0.7800
 9357TIP3    H149486   6.294   4.959   5.885 -0.2826 -0.4920 -1.6622
 9357TIP3    H249487   6.238   5.082   5.816 -1.0448  0.1915  0.1092
 9358TIP3   OH249488   2.166   1.043  11.584  0.3565  0.0683  0.0539
 9358TIP3    H149489   2.120   0.975  11.534 -0.4266  0.1756  0.6108
 9358TIP3    H249490   2.117   1.123  11.567 -0.7057 -0.1115  1.9556
 9359TIP3   OH249491   0.986   4.417  16.595 -0.0381  0.2455 -0.3377
 9359TIP3    H149492   1.080   4.431  16.591 -0.1740  2.2194  1.2489
 9359TIP3    H249493   0.976   4.331  16.636  1.1071  0.4746  0.4833
 9360TIP3   OH249494   4.125   0.285   5.817 -0.3191 -0.7684 -0.3849
 9360TIP3    H149495   4.201   0.286   5.875  0.7844  2.2349 -1.6602
 9360TIP3    H249496   4.069   0.356   5.849 -0.4548 -0.1129 -1.9468
 9361TIP3   OH249497   2.305   3.212   1.522  0.3137 -0.5304 -0.3969
 9361TIP3    H149498   2.215   3.237   1.502 -0.2213 -0.3002  1.9426
 9361TIP3    H249499   2.359   3.275   1.476 -0.6996 -0.6888 -1.8674
 9362TIP3   OH249500   0.561   0.340   5.598  0.1303 -0.6230 -0.1376
 9362TIP3    H149501   0.487   0.390   5.634 -0.0883 -2.1064  1.6471
 9362TIP3    H249502   0.521   0.261   5.562  0.8325 -1.8852  1.6724
 9363TIP3   OH249503   0.906   5.655  16.032  0.1250 -0.1389  0.1105
 9363TIP3    H149504   0.955   5.587  15.986 -1.7373  0.1666 -2.5264
 9363TIP3    H249505   0.960   5.733  16.022  1.6954 -0.8774  2.1230
 9364TIP3   OH249506   5.098   5.181  12.172  0.2387 -0.3229 -0.5140
 9364TIP3    H149507   5.128   5.119  12.239  0.4695  1.4458  1.1049
 9364TIP3    H249508   5.167   5.178  12.105  1.1230 -0.5392  0.3772
 9365TIP3   OH249509   6.176   0.332  15.306 -0.5390  0.5382  0.4799
 9365TIP3    H149510   6.226   0.406  15.272 -2.3179  1.3085 -0.6308
 9365TIP3    H249511   6.170   0.347  15.400  1.2764  0.4057  0.6497
 9366TIP3   OH249512   3.543   6.311   0.714  0.3641 -0.0672  0.0618
 9366TIP3    H149513   3.619   6.363   0.739  1.1789 -0.5363 -1.3506
 9366TIP3    H249514   3.534   6.247   0.785  0.5319  0.7536  0.8402
 9367TIP3   OH249515   0.892   6.091  17.019  0.1210 -0.0457 -0.5757
 9367TIP3    H149516   0.897   6.008  16.970 -1.4298 -0.4593 -0.1012
 9367TIP3    H249517   0.823   6.140  16.976  0.9120  0.9408 -0.7373
 9368TIP3   OH249518   2.406   3.603   4.533 -0.1073 -0.1615 -0.0669
 9368TIP3    H149519   2.383   3.694   4.517 -0.1322 -0.0208  0.7641
 9368TIP3    H249520   2.398   3.561   4.447 -1.4710  0.3222 -0.2022
 9369TIP3   OH249521   6.278   0.518  13.735  0.4916 -0.0776 -0.2390
 9369TIP3    H149522   6.349   0.517  13.670  3.0661  1.2591  2.3371
 9369TIP3    H249523   6.322   0.533  13.818 -2.7969 -0.2046  1.6805
 9370TIP3   OH249524   5.262   1.207   0.565 -0.4070 -0.2852  0.9438
 9370TIP3    H149525   5.294   1.139   0.505 -1.3781 -0.7560  0.9418
 9370TIP3    H249526   5.191   1.165   0.613 -0.0786  0.3002  1.9667
 9371TIP3   OH249527   3.673   0.526   0.753  0.6964 -0.3123 -0.8078
 9371TIP3    H149528   3.672   0.439   0.793  3.5457  0.1335  0.5032
 9371TIP3    H249529   3.709   0.512   0.666  1.1218 -0.4784 -0.6110
 9372TIP3   OH249530   1.001   6.160   3.323 -0.3505  0.7369  0.5811
 9372TIP3    H149531   1.030   6.132   3.237 -0.1216  0.9435  0.5902
 9372TIP3    H249532   0.947   6.238   3.306 -1.3235  0.0689  0.5183
 9373TIP3   OH249533   6.676   0.839   4.668 -0.1791 -0.1050  0.2882
 9373TIP3    H149534   6.614   0.895   4.622 -0.6891  0.0416  1.1222
 9373TIP3    H249535   6.638   0.829   4.756  1.2040  0.3453  0.9556
 9374TIP3   OH249536   1.643   3.899  17.240  0.0869  0.3123  0.4264
 9374TIP3    H149537   1.607   3.842  17.308 -1.1976 -0.4326 -0.8229
 9374TIP3    H249538   1.728   3.926  17.273  0.0580 -1.1011  1.7300
 9375TIP3   OH249539   4.949   0.987   1.651 -0.0303  0.3088  0.5000
 9375TIP3    H149540   4.947   1.027   1.738  0.7511 -1.1645  1.2242
 9375TIP3    H249541   4.929   0.895   1.666  1.2526 -0.2005 -0.7281
 9376TIP3   OH249542   4.435   3.434   2.946  0.3246 -0.1378 -0.5452
 9376TIP3    H149543   4.522   3.430   2.907  0.6923  1.6708  0.0220
 9376TIP3    H249544   4.450   3.468   3.034 -0.8357 -1.0131  0.0150
 9377TIP3   OH249545   1.556   5.317  12.560  0.2414 -0.0550 -0.1843
 9377TIP3    H149546   1.617   5.318  12.486  0.6800 -1.5356  0.1134
 9377TIP3    H249547   1.605   5.271  12.629 -0.4205  0.6759  0.7832
 9378TIP3   OH249548   3.841   1.957  14.297 -0.2032  0.5493 -0.5610
 9378TIP3    H149549   3.759   1.914  14.320  0.2761  0.2241  0.6384
 9378TIP3    H249550   3.909   1.897  14.327  0.4800  0.9184 -1.3280
 9379TIP3   OH249551   5.148   1.087   2.679  0.1205 -0.0173  0.2788
 9379TIP3    H149552   5.237   1.055   2.696  0.8501  2.1799  0.9359
 9379TIP3    H249553   5.110   1.100   2.766 -1.2389 -1.8534 -0.0017
 9380TIP3   OH249554   0.909   2.875  14.929  0.0317 -0.2980 -0.3243
 9380TIP3    H149555   1.000   2.891  14.954  0.1180 -2.0208  0.5605
 9380TIP3    H249556   0.915   2.811  14.859 -0.5125 -0.3897 -0.2861
 9381TIP3   OH249557   1.054   0.146   0.414 -0.3280 -0.2636 -0.1140
 9381TIP3    H149558   0.962   0.147   0.439 -0.7069 -2.5943 -1.1924
 9381TIP3    H249559   1.088   0.063   0.448  2.1404  1.6047  2.5388
 9382TIP3   OH249560   1.594   2.101  12.214 -0.4277 -0.2209  0.0624
 9382TIP3    H149561   1.604   2.029  12.151 -0.4634 -0.1250 -0.0536
 9382TIP3    H249562   1.609   2.180  12.162  0.7284 -0.1862  0.4247
 9383TIP3   OH249563   6.421   2.585  11.274  0.1148 -0.1865  0.4277
 9383TIP3    H149564   6.448   2.510  11.326 -0.5760  0.2321  1.4254
 9383TIP3    H249565   6.325   2.584  11.279  0.0903  0.6146  0.2565
 9384TIP3   OH249566   0.894   4.309  17.003  0.6085  0.0614 -0.3152
 9384TIP3    H149567   0.973   4.363  17.000  1.3335 -0.9785 -0.4323
 9384TIP3    H249568   0.876   4.299  17.097  0.1029  1.0021 -0.2985
 9385TIP3   OH249569   1.287   4.443   5.911 -0.2323  0.0855 -0.6838
 9385TIP3    H149570   1.376   4.441   5.875  0.0675  1.4123 -0.0888
 9385TIP3    H249571   1.231   4.457   5.835  0.3655  2.4922 -0.7470
 9386TIP3   OH249572   6.072   0.973  16.599 -0.5488 -1.0636  0.2476
 9386TIP3    H149573   6.132   0.940  16.666 -1.0862  0.7116  1.6822
 9386TIP3    H249574   6.041   0.894  16.554  1.9080 -2.1094  0.2338
 9387TIP3   OH249575   0.337   5.842  13.211  0.0822 -0.0795  0.5782
 9387TIP3    H149576   0.268   5.820  13.273 -1.0494 -2.6497 -1.3894
 9387TIP3    H249577   0.293   5.896  13.144  0.1204 -1.1239 -0.3094
 9388TIP3   OH249578   1.251   4.913   5.218  0.6028  0.4333  0.2141
 9388TIP3    H149579   1.343   4.937   5.209  1.3784 -1.5922  1.8927
 9388TIP3    H249580   1.242   4.834   5.164  0.7352 -1.2098  2.4596
 9389TIP3   OH249581   6.503   3.898  13.685  0.4193 -0.3484 -0.5887
 9389TIP3    H149582   6.575   3.890  13.622  1.2343  0.7782  0.1581
 9389TIP3    H249583   6.533   3.964  13.747 -1.5393  0.5988 -0.5954
 9390TIP3   OH249584   2.819   1.960   3.991 -0.3190  0.8381 -0.0442
 9390TIP3    H149585   2.740   1.993   3.949 -1.6439 -1.0190  0.8347
 9390TIP3    H249586   2.813   1.991   4.081  0.6132  1.7122 -0.2659
 9391TIP3   OH249587   3.696   4.661  12.363  0.7770 -0.0108 -0.1017
 9391TIP3    H149588   3.784   4.672  12.328  0.3250  0.4629 -1.1345
 9391TIP3    H249589   3.650   4.740  12.335  0.1873  0.0289  0.9482
 9392TIP3   OH249590   1.048   3.386  16.245 -0.5275  0.0330 -0.3138
 9392TIP3    H149591   0.997   3.380  16.164  0.9662  0.0325 -1.2835
 9392TIP3    H249592   1.036   3.476  16.275 -0.5451  0.2307 -0.9070
 9393TIP3   OH249593   2.888   5.499   0.124 -0.0851  0.1348  0.0696
 9393TIP3    H149594   2.928   5.584   0.105  0.5296 -0.1433  0.0968
 9393TIP3    H249595   2.962   5.439   0.128 -0.3486 -0.1248  1.6403
 9394TIP3   OH249596   2.124   3.930   0.941 -0.0016  0.6471  0.5779
 9394TIP3    H149597   2.107   3.841   0.973 -1.2672  1.1298  1.3297
 9394TIP3    H249598   2.037   3.967   0.927  0.5219  1.4330 -0.7235
 9395TIP3   OH249599   1.986   6.665   2.650  0.2753 -0.4636  0.6453
 9395TIP3    H149600   1.896   6.659   2.618  0.1488  0.6080  0.7649
 9395TIP3    H249601   2.030   6.589   2.611 -0.5130 -0.6415  0.0597
 9396TIP3   OH249602   6.225   2.819  17.348 -0.7809 -0.2514  0.0495
 9396TIP3    H149603   6.221   2.725  17.365 -1.3727 -0.0250  1.2692
 9396TIP3    H249604   6.228   2.826  17.252 -0.8874 -1.4982 -0.0639
 9397TIP3   OH249605   4.317   3.655   1.069  0.4724  0.1360 -0.3275
 9397TIP3    H149606   4.326   3.567   1.105 -0.4269  0.1161 -0.1130
 9397TIP3    H249607   4.231   3.684   1.100 -0.3173  0.1561 -2.3881
 9398TIP3   OH249608   0.311   1.831   4.303 -0.0256  0.7971  0.0604
 9398TIP3    H149609   0.285   1.877   4.223 -0.0080 -0.0417 -0.4370
 9398TIP3    H249610   0.407   1.837   4.304 -0.0237  0.7765  0.0037
 9399TIP3   OH249611   2.199   3.099   1.998  0.0965  0.8932 -0.5686
 9399TIP3    H149612   2.276   3.124   2.050 -0.8583  0.2423  1.2304
 9399TIP3    H249613   2.236   3.064   1.916  1.6556  1.7534 -0.2789
 9400TIP3   OH249614   3.823   5.958   4.480 -1.1403 -0.1752 -0.8175
 9400TIP3    H149615   3.870   5.981   4.560 -0.9728 -3.5704  0.2354
 9400TIP3    H249616   3.759   6.028   4.469 -2.6639 -0.5371  3.5934
 9401TIP3   OH249617   6.361   5.685   5.246  0.0559 -0.2819  0.3739
 9401TIP3    H149618   6.308   5.760   5.220  0.4743 -0.0215  0.2825
 9401TIP3    H249619   6.296   5.618   5.271 -0.3391 -0.3449 -0.7764
 9402TIP3   OH249620   4.805   4.474   4.704 -0.0673 -0.1000 -0.2905
 9402TIP3    H149621   4.839   4.438   4.786 -1.7713 -1.3280 -0.0825
 9402TIP3    H249622   4.867   4.445   4.638  1.5003  1.1552  0.5582
 9403TIP3   OH249623   6.072   5.766  17.388 -0.1167 -0.2250 -0.4297
 9403TIP3    H149624   6.010   5.737  17.454  1.1969  1.3222  1.6050
 9403TIP3    H249625   6.153   5.782  17.436  1.2524 -0.0746 -2.6126
 9404TIP3   OH249626   1.499   6.515  14.792 -0.0939 -0.3508  0.7035
 9404TIP3    H149627   1.552   6.492  14.868  1.6476  0.4915 -0.1981
 9404TIP3    H249628   1.555   6.496  14.716 -1.0113  0.7238 -0.2928
 9405TIP3   OH249629   5.560   1.629   4.690  0.2443 -0.0526 -0.5182
 9405TIP3    H149630   5.480   1.608   4.640  0.6528 -0.1507 -1.1408
 9405TIP3    H249631   5.565   1.560   4.756  0.3782 -0.6743 -1.1539
 9406TIP3   OH249632   6.103   4.265   5.756  0.3136 -0.2156 -0.4001
 9406TIP3    H149633   6.117   4.355   5.787  0.2086 -0.0669 -0.7743
 9406TIP3    H249634   6.192   4.228   5.750  0.2602 -0.7138  1.3967
 9407TIP3   OH249635   1.988   6.657  11.662  0.5525 -0.6140 -0.1476
 9407TIP3    H149636   2.075   6.627  11.637  1.1481  1.1702 -0.3790
 9407TIP3    H249637   1.969   6.611  11.744  3.0292  1.1382  1.5535
 9408TIP3   OH249638   3.812   1.392  17.359 -0.0153  0.1170  0.0767
 9408TIP3    H149639   3.751   1.382  17.432  0.6764  0.0846  0.6550
 9408TIP3    H249640   3.873   1.320  17.368  0.9609  0.9529  0.3420
 9409TIP3   OH249641   3.356   6.134  13.518 -0.0298 -0.3489 -0.0985
 9409TIP3    H149642   3.359   6.226  13.545  2.6280 -0.8876  1.8251
 9409TIP3    H249643   3.269   6.104  13.546 -0.8613  1.4725 -0.5496
 9410TIP3   OH249644   3.484   2.608  15.709  0.2781 -0.0633  0.6207
 9410TIP3    H149645   3.535   2.634  15.633 -1.3918  0.4708 -0.3718
 9410TIP3    H249646   3.458   2.690  15.750 -1.5174 -0.2238 -0.1170
 9411TIP3   OH249647   4.579   3.085  17.269 -0.0613  0.5593 -0.4708
 9411TIP3    H149648   4.529   3.167  17.267 -2.0766 -0.6138 -0.5857
 9411TIP3    H249649   4.538   3.030  17.202  1.2830 -0.5356 -0.4368
 9412TIP3   OH249650   4.220   0.891   1.536  0.1795 -0.7227 -0.3474
 9412TIP3    H149651   4.288   0.904   1.471  2.2193 -1.6558  1.4842
 9412TIP3    H249652   4.251   0.938   1.614 -1.8789 -0.1445  0.2102
 9413TIP3   OH249653   4.082   6.131   4.345 -0.1246  0.4023  0.4152
 9413TIP3    H149654   4.099   6.057   4.403  0.0643  1.3107  1.5548
 9413TIP3    H249655   4.000   6.108   4.301  0.1465 -0.6592  0.4340
 9414TIP3   OH249656   6.610   3.182  12.507 -0.1411 -0.4693 -0.2118
 9414TIP3    H149657   6.600   3.141  12.593  0.4287 -2.6981 -1.1316
 9414TIP3    H249658   6.525   3.222  12.489 -0.7296 -1.2091  0.7954
 9415TIP3   OH249659   0.412   3.002   0.534 -0.3842  0.1504 -0.0058
 9415TIP3    H149660   0.346   3.064   0.562 -1.3450 -0.5057 -0.7674
 9415TIP3    H249661   0.415   2.937   0.605 -0.8631 -0.0482 -0.1651
 9416TIP3   OH249662   0.268   2.082   3.798 -0.8488  0.3787 -0.1428
 9416TIP3    H149663   0.260   2.163   3.848  1.2977 -0.1475  1.2122
 9416TIP3    H249664   0.322   2.105   3.723 -0.7360  0.3451 -0.0730
 9417TIP3   OH249665   0.750   6.286  12.392  0.1290 -0.6082 -0.1199
 9417TIP3    H149666   0.828   6.325  12.351  1.1352 -1.3175  1.0600
 9417TIP3    H249667   0.685   6.356  12.391  1.3228  0.5411  0.3452
 9418TIP3   OH249668   2.201   4.851   3.217 -0.0082  0.1996  0.1624
 9418TIP3    H149669   2.288   4.836   3.182 -0.2267 -0.4247 -0.1454
 9418TIP3    H249670   2.215   4.896   3.301  0.5619  0.8449 -0.2727
 9419TIP3   OH249671   0.282   2.811   2.215 -0.4625 -0.7063  0.1377
 9419TIP3    H149672   0.215   2.860   2.263  0.5831 -0.3075  1.2376
 9419TIP3    H249673   0.243   2.796   2.129 -2.0092 -0.6049  0.7847
 9420TIP3   OH249674   1.541   0.587   2.505  0.9009  0.0062  0.0463
 9420TIP3    H149675   1.521   0.520   2.570  0.7256  0.2742  0.2768
 9420TIP3    H249676   1.463   0.643   2.503  1.0491  0.2123 -0.1254
 9421TIP3   OH249677   0.985   0.097  16.122  0.4315 -0.2639  0.1690
 9421TIP3    H149678   1.062   0.047  16.148  0.1731 -0.1924  1.1130
 9421TIP3    H249679   0.912   0.051  16.164  0.1531  0.6955  0.7831
 9422TIP3   OH249680   3.880   6.495   1.252  0.1206 -0.4717 -0.9417
 9422TIP3    H149681   3.889   6.416   1.200  0.9180  0.1256 -1.7385
 9422TIP3    H249682   3.933   6.561   1.206  1.4041 -0.0862  0.9493
 9423TIP3   OH249683   2.713   1.387   3.967  0.0009  0.2080 -0.0389
 9423TIP3    H149684   2.674   1.299   3.962 -3.8490  1.6793  0.4788
 9423TIP3    H249685   2.779   1.380   4.035 -0.3441 -2.2422  0.1331
 9424TIP3   OH249686   2.871   2.251   6.205  0.7920 -0.3384  0.4685
 9424TIP3    H149687   2.832   2.165   6.187 -0.8334  0.8189 -2.0249
 9424TIP3    H249688   2.965   2.236   6.199  0.5192 -1.7270 -1.3447
 9425TIP3   OH249689   0.700   2.772   5.089  0.4833  0.2712 -0.4067
 9425TIP3    H149690   0.720   2.860   5.120 -0.3511  0.6856 -1.0330
 9425TIP3    H249691   0.614   2.779   5.047  0.4994 -0.7934 -0.6589
 9426TIP3   OH249692   4.665   4.847   5.792 -0.1729 -0.8601  0.5728
 9426TIP3    H149693   4.723   4.890   5.856  1.2406 -0.2739 -1.0247
 9426TIP3    H249694   4.677   4.753   5.808  0.1387 -0.7236  1.1797
 9427TIP3   OH249695   5.385   6.194  11.252  0.4775 -0.6824  0.1851
 9427TIP3    H149696   5.388   6.128  11.183 -0.0299 -0.8791  0.3418
 9427TIP3    H249697   5.377   6.277  11.205  2.4054 -0.5878 -0.0592
 9428TIP3   OH249698   2.058   0.281  14.580 -0.5541 -0.0986  0.2305
 9428TIP3    H149699   2.115   0.353  14.608  0.3936 -0.3908 -0.8538
 9428TIP3    H249700   1.980   0.289  14.635  0.0509  1.0113  0.9655
 9429TIP3   OH249701   2.759   1.786  11.252 -0.5324  0.2820  0.2009
 9429TIP3    H149702   2.818   1.749  11.318  0.1687  1.4074  0.2462
 9429TIP3    H249703   2.732   1.711  11.199  2.3052 -0.0991 -0.8890
 9430TIP3   OH249704   4.849   5.366   2.056 -0.4280 -0.8450  0.4797
 9430TIP3    H149705   4.805   5.336   1.976 -0.5489 -0.9673  0.5924
 9430TIP3    H249706   4.779   5.373   2.121 -0.2607 -1.1697  0.6974
 9431TIP3   OH249707   3.916   3.618  17.266 -0.4238  0.3572  0.6674
 9431TIP3    H149708   3.847   3.607  17.201  0.5496 -0.5913 -0.2406
 9431TIP3    H249709   3.916   3.712  17.286 -0.0952  0.8407 -1.4430
 9432TIP3   OH249710   6.312   1.910  15.506 -0.1241 -0.2118 -0.0574
 9432TIP3    H149711   6.265   1.900  15.589 -0.3893 -0.7043 -0.2665
 9432TIP3    H249712   6.245   1.904  15.439  0.2177 -0.7667 -0.3502
 9433TIP3   OH249713   3.472   4.199  13.756  0.0658 -0.3022  0.2009
 9433TIP3    H149714   3.393   4.184  13.704  1.3271 -1.7820 -1.4335
 9433TIP3    H249715   3.454   4.156  13.840 -0.7800 -0.8516 -0.2476
 9434TIP3   OH249716   0.282   4.381  16.553  0.3777 -0.0560  0.0152
 9434TIP3    H149717   0.299   4.308  16.613 -0.1483  0.1020  0.3592
 9434TIP3    H249718   0.251   4.339  16.473  0.2110 -0.2143  0.1635
 9435TIP3   OH249719   5.630   5.825  14.451  0.2603  0.1482 -0.2535
 9435TIP3    H149720   5.557   5.773  14.485  0.1264  0.6092  0.1770
 9435TIP3    H249721   5.662   5.775  14.375 -0.8564  0.2188 -0.7849
 9436TIP3   OH249722   4.186   4.598  10.950 -0.0622  0.0275 -0.0434
 9436TIP3    H149723   4.130   4.675  10.937  1.2085  1.0421  0.2797
 9436TIP3    H249724   4.274   4.634  10.963  0.4828 -1.4632  0.6313
 9437TIP3   OH249725   6.073   1.346  11.541 -0.5360  0.0826  0.1097
 9437TIP3    H149726   6.095   1.434  11.511  0.5620 -0.0854  0.3749
 9437TIP3    H249727   6.003   1.318  11.482 -0.1132  0.6965 -0.7079
 9438TIP3   OH249728   1.608   2.624  16.325  0.0865  0.0486  0.0249
 9438TIP3    H149729   1.676   2.596  16.263  0.0607  0.4779 -0.2054
 9438TIP3    H249730   1.533   2.646  16.270 -0.6659 -1.5363  0.3482
 9439TIP3   OH249731   4.104   4.535   3.283  0.4923 -0.4462  0.2892
 9439TIP3    H149732   4.174   4.564   3.341  1.9943 -0.1050 -1.5856
 9439TIP3    H249733   4.148   4.513   3.201 -1.6168  0.1152 -1.0904
 9440TIP3   OH249734   6.706   2.854  13.180  0.6532  0.8431  0.8151
 9440TIP3    H149735   6.648   2.843  13.105  3.8287 -1.5065 -1.5777
 9440TIP3    H249736   6.736   2.766  13.200  4.6784  1.9679  0.6414
 9441TIP3   OH249737   4.300   3.682   1.829  0.3436  0.2157 -0.3748
 9441TIP3    H149738   4.245   3.703   1.753  0.5092  0.3709 -0.4530
 9441TIP3    H249739   4.272   3.743   1.897  0.6197  0.4925 -0.5075
 9442TIP3   OH249740   4.588   0.655   1.598  0.2755  0.2992  0.2059
 9442TIP3    H149741   4.624   0.739   1.626  1.2518  0.3823 -1.2231
 9442TIP3    H249742   4.570   0.666   1.505 -1.1188 -0.5749  0.3323
 9443TIP3   OH249743   4.632   1.043   3.764 -0.7049  0.3087 -0.6902
 9443TIP3    H149744   4.652   1.123   3.715 -0.5297  1.1489  0.6953
 9443TIP3    H249745   4.554   1.065   3.815 -0.7643 -0.4661 -0.4352
 9444TIP3   OH249746   4.029   5.240   0.131  0.2071 -0.4178 -0.3623
 9444TIP3    H149747   4.040   5.321   0.082  0.5274 -0.2724 -0.0548
 9444TIP3    H249748   4.079   5.254   0.211 -0.6667 -0.4758  0.2146
 9445TIP3   OH249749   4.383   2.554   2.357 -0.1315 -0.7267  0.4572
 9445TIP3    H149750   4.398   2.623   2.293 -0.4525 -1.6349 -0.6278
 9445TIP3    H249751   4.390   2.472   2.307  1.8988 -1.5857  2.0106
 9446TIP3   OH249752   0.215   1.128  16.301 -0.2296 -0.3996 -0.3115
 9446TIP3    H149753   0.230   1.035  16.286 -0.3752 -0.3568 -0.7359
 9446TIP3    H249754   0.129   1.133  16.343  0.2875 -0.5393  0.8026
 9447TIP3   OH249755   1.435   1.379  12.506 -0.2706  0.1932  0.4014
 9447TIP3    H149756   1.408   1.376  12.598  0.9305  0.1350  0.7677
 9447TIP3    H249757   1.530   1.367  12.509 -0.2568 -0.1042 -0.8713
 9448TIP3   OH249758   3.835   4.594  12.036 -0.4621  0.5107  0.7530
 9448TIP3    H149759   3.805   4.681  12.008  0.9307  0.8131  0.0965
 9448TIP3    H249760   3.759   4.537  12.023 -0.8443  1.2882 -0.6004
 9449TIP3   OH249761   2.622   5.320   4.168  0.0219 -0.1144 -0.6135
 9449TIP3    H149762   2.585   5.369   4.095 -1.5037 -0.7286 -0.2728
 9449TIP3    H249763   2.598   5.229   4.151 -1.2554 -0.1600  1.1448
 9450TIP3   OH249764   1.484   6.691   4.368  0.2624  0.1973  0.0252
 9450TIP3    H149765   1.574   6.720   4.385  0.1140  0.6651  0.0323
 9450TIP3    H249766   1.438   6.771   4.344  0.0920 -0.2022 -1.0208
 9451TIP3   OH249767   4.715   2.242   5.047  0.0363  0.0332  0.0601
 9451TIP3    H149768   4.626   2.241   5.082  0.4025  1.3372  1.1520
 9451TIP3    H249769   4.766   2.289   5.113  1.1733  0.8834 -1.3376
 9452TIP3   OH249770   2.181   2.731   1.423  0.2189 -0.2182 -0.0831
 9452TIP3    H149771   2.141   2.708   1.339  0.4225 -2.6066  0.3986
 9452TIP3    H249772   2.148   2.819   1.442 -0.6350 -0.0363 -2.1598
 9453TIP3   OH249773   4.475   6.062  11.693 -0.1171 -0.3384  0.1092
 9453TIP3    H149774   4.525   6.038  11.616  0.9275  0.8377  0.3917
 9453TIP3    H249775   4.492   5.991  11.755 -0.5146 -1.0056 -0.5282
 9454TIP3   OH249776   5.672   2.615  14.116 -0.4375  0.4372 -0.2440
 9454TIP3    H149777   5.641   2.550  14.178  0.5120  0.1015 -0.0969
 9454TIP3    H249778   5.623   2.596  14.036 -1.9105  1.0854  0.4670
 9455TIP3   OH249779   4.473   4.129  16.342 -0.4299  0.2666 -0.2006
 9455TIP3    H149780   4.427   4.207  16.313  2.2408  2.5564  1.1463
 9455TIP3    H249781   4.556   4.131  16.295  0.8133 -0.1702  1.8285
 9456TIP3   OH249782   5.984   0.440   4.695  0.2665 -0.4095  0.1110
 9456TIP3    H149783   5.961   0.355   4.733 -2.3304 -0.1362 -0.6869
 9456TIP3    H249784   5.994   0.423   4.601  3.2761 -0.4287  0.3338
 9457TIP3   OH249785   3.497   6.612   0.662  0.4299  0.3810  0.3864
 9457TIP3    H149786   3.560   6.669   0.706  1.9390  0.5951 -1.8973
 9457TIP3    H249787   3.454   6.564   0.733  1.1774  2.2249  2.1945
 9458TIP3   OH249788   1.165   0.824  12.098  0.3193  0.0105 -0.0578
 9458TIP3    H149789   1.148   0.766  12.172  1.1977  1.2610  1.2017
 9458TIP3    H249790   1.260   0.835  12.098  0.2257  0.9355 -0.6417
 9459TIP3   OH249791   4.415   5.696  16.908  0.7733  0.1326  0.1033
 9459TIP3    H149792   4.474   5.621  16.900  1.1019  0.4054 -0.0515
 9459TIP3    H249793   4.348   5.681  16.842  1.1905  0.2940 -0.3580
 9460TIP3   OH249794   2.814   3.576  16.456 -0.6959 -0.1346  0.7449
 9460TIP3    H149795   2.875   3.646  16.481 -0.4143 -0.1274  0.0602
 9460TIP3    H249796   2.809   3.582  16.360 -0.8009 -0.9445  0.6931
 9461TIP3   OH249797   0.383   1.975   1.808  0.0011  0.0125 -0.4137
 9461TIP3    H149798   0.417   2.034   1.741  1.8870  1.9543  2.0262
 9461TIP3    H249799   0.338   2.032   1.870 -2.3003 -1.7876 -0.2720
 9462TIP3   OH249800   4.406   3.918  16.485  0.0459 -0.0047 -0.3182
 9462TIP3    H149801   4.476   3.937  16.548 -0.8065  1.9660  0.1200
 9462TIP3    H249802   4.428   3.970  16.408 -0.1373 -0.5750 -0.7592
 9463TIP3   OH249803   0.746   2.051   4.481  0.0818  1.3850 -0.2179
 9463TIP3    H149804   0.765   2.145   4.479  0.2541  1.5030  2.5639
 9463TIP3    H249805   0.809   2.015   4.543 -0.3772 -0.4876 -0.7789
 9464TIP3   OH249806   2.986   6.530  14.104 -0.3046 -0.3264 -0.4750
 9464TIP3    H149807   3.035   6.606  14.073 -0.9888  0.6356  0.6889
 9464TIP3    H249808   2.898   6.541  14.069 -0.6683 -0.0363  0.4841
 9465TIP3   OH249809   4.004   6.194  10.985  0.2829  0.0567  0.3009
 9465TIP3    H149810   3.932   6.175  10.925  0.1799  2.0928 -0.2852
 9465TIP3    H249811   4.026   6.109  11.023 -0.1025 -1.1952 -2.0789
 9466TIP3   OH249812   3.302   0.357   4.202 -0.1551  0.2289 -0.1915
 9466TIP3    H149813   3.239   0.425   4.181 -0.4371  0.0067 -0.0644
 9466TIP3    H249814   3.254   0.294   4.256  0.5414  0.8071  1.1741
 9467TIP3   OH249815   2.570   3.362   1.448  0.0564  0.1342  0.1901
 9467TIP3    H149816   2.573   3.266   1.439 -0.8889  0.0090  1.1117
 9467TIP3    H249817   2.643   3.392   1.394 -0.6271 -1.0035 -1.4737
 9468TIP3   OH249818   0.094   5.492   3.228  0.0963  0.2532  0.0644
 9468TIP3    H149819   0.013   5.468   3.185  0.6282 -2.2565  0.2848
 9468TIP3    H249820   0.161   5.440   3.184  1.3013  0.8901  1.0691
 9469TIP3   OH249821   6.737   5.058  11.365 -0.6800 -0.3102  0.3629
 9469TIP3    H149822   6.719   4.996  11.435  0.7419 -0.4760  0.6116
 9469TIP3    H249823   6.703   5.016  11.286 -1.9139 -0.3025  0.8657
 9470TIP3   OH249824   3.753   4.138   2.197  0.3803 -0.3923 -0.3523
 9470TIP3    H149825   3.667   4.146   2.156  0.5564 -1.4037 -0.9352
 9470TIP3    H249826   3.772   4.227   2.229 -1.2266 -0.3304  0.5320
 9471TIP3   OH249827   2.490   3.736  13.949 -0.6587 -0.5639  0.2797
 9471TIP3    H149828   2.449   3.684  14.017 -1.2563  1.9446  1.9871
 9471TIP3    H249829   2.580   3.751  13.980 -1.0589  0.9414  0.7914
 9472TIP3   OH249830   3.541   6.373  11.794  0.0196 -0.2231 -0.7826
 9472TIP3    H149831   3.567   6.286  11.822 -0.5883 -1.0681 -2.6460
 9472TIP3    H249832   3.455   6.387  11.834  0.9733  0.4189  1.1669
 9473TIP3   OH249833   3.656   5.730   5.427 -0.0741  0.3302 -0.7458
 9473TIP3    H149834   3.694   5.779   5.354  0.2690  1.0918 -0.0811
 9473TIP3    H249835   3.705   5.760   5.503 -0.1256 -0.7738 -0.2543
 9474TIP3   OH249836   4.411   4.779   4.306  0.0998 -0.3825 -0.3911
 9474TIP3    H149837   4.416   4.745   4.396 -2.6834  1.0753  0.4443
 9474TIP3    H249838   4.413   4.874   4.317  1.4606 -0.1764 -2.0881
 9475TIP3   OH249839   3.629   0.286   4.557  0.5357 -0.1953 -0.1085
 9475TIP3    H149840   3.602   0.343   4.485  0.2567 -0.6284 -0.3555
 9475TIP3    H249841   3.547   0.263   4.601  0.6635 -0.2544  0.1018
 9476TIP3   OH249842   5.139   4.213   0.598 -0.1059 -0.1844 -0.3184
 9476TIP3    H149843   5.209   4.157   0.566  1.4621  2.4410 -1.8900
 9476TIP3    H249844   5.178   4.263   0.670 -0.2520  1.3820 -1.2732
 9477TIP3   OH249845   0.763   4.247   3.039  0.0201  0.2361 -0.4924
 9477TIP3    H149846   0.752   4.172   2.980  0.6151 -0.1020 -0.1891
 9477TIP3    H249847   0.742   4.323   2.984 -0.6337 -0.1474 -0.7910
 9478TIP3   OH249848   1.110   1.515   0.950  0.1740 -0.2277 -0.2973
 9478TIP3    H149849   1.178   1.574   0.918 -0.8356  1.1571 -0.0121
 9478TIP3    H249850   1.035   1.532   0.892 -0.5042 -0.3626  0.5239
 9479TIP3   OH249851   2.934   2.243  17.205  0.9341  0.6707 -0.4655
 9479TIP3    H149852   2.898   2.162  17.170  2.2595  0.1294 -0.6449
 9479TIP3    H249853   2.951   2.223  17.297  2.1026  0.4219 -0.7175
 9480TIP3   OH249854   1.397   0.651   6.351 -0.2230 -0.2423  0.4616
 9480TIP3    H149855   1.463   0.620   6.289 -1.1823 -0.4546 -0.4946
 9480TIP3    H249856   1.315   0.614   6.319 -0.9998  1.0315  0.8982
 9481TIP3   OH249857   0.980   2.858  12.185 -0.2535  0.2785 -0.2530
 9481TIP3    H149858   1.035   2.926  12.146  0.2311 -0.0791 -0.2016
 9481TIP3    H249859   1.042   2.789  12.211 -0.7922 -0.4796 -0.9255
 9482TIP3   OH249860   5.124   3.848   5.139 -0.2703 -0.1908 -0.2729
 9482TIP3    H149861   5.129   3.814   5.229  0.9790 -1.6725 -0.8486
 9482TIP3    H249862   5.068   3.786   5.093 -0.0747 -0.0139 -0.7556
 9483TIP3   OH249863   3.756   6.406  10.904  0.8657 -0.0727 -0.0948
 9483TIP3    H149864   3.786   6.325  10.946  0.5960  0.4688  1.1769
 9483TIP3    H249865   3.823   6.424  10.837  1.4660 -0.7988  0.2962
 9484TIP3   OH249866   6.745   3.577   5.039 -0.0942  0.3652  0.5550
 9484TIP3    H149867   6.829   3.532   5.040  0.8109  1.9460  2.1707
 9484TIP3    H249868   6.711   3.567   5.128 -1.0561  0.7544  0.2468
 9485TIP3   OH249869   6.285   5.318  10.862  0.1671  0.1349 -0.4858
 9485TIP3    H149870   6.219   5.357  10.805 -0.7823  0.8232  1.0340
 9485TIP3    H249871   6.269   5.224  10.857  0.0982  0.1853 -1.3301
 9486TIP3   OH249872   6.275   3.889   5.032  0.6824  0.0648  0.2868
 9486TIP3    H149873   6.356   3.843   5.053  0.2250 -1.2942 -0.7529
 9486TIP3    H249874   6.303   3.965   4.982  1.3430 -0.1867  0.2653
 9487TIP3   OH249875   0.896   1.575   5.346  0.2861 -0.1266  0.1336
 9487TIP3    H149876   0.986   1.585   5.315 -0.6079  1.0004 -2.2991
 9487TIP3    H249877   0.843   1.574   5.266 -1.9526  0.1417  1.5414
 9488TIP3   OH249878   1.597   6.585  15.446  0.3319 -0.1994 -0.5246
 9488TIP3    H149879   1.645   6.509  15.479  0.2031  0.1376  0.4947
 9488TIP3    H249880   1.505   6.560  15.455  0.1906  0.9903  2.2818
 9489TIP3   OH249881   0.164   5.945   2.983  0.6393 -0.3046 -0.1673
 9489TIP3    H149882   0.165   5.933   2.888 -0.0507 -1.8454 -0.0186
 9489TIP3    H249883   0.106   5.875   3.015  0.0510  0.8062  1.3076
 9490TIP3   OH249884   3.091   5.825   0.609  0.1285  0.3196  0.2969
 9490TIP3    H149885   3.053   5.765   0.545 -2.0183  0.6218  1.1932
 9490TIP3    H249886   3.034   5.818   0.686  1.1429  1.8305  1.2454
 9491TIP3   OH249887   1.968   3.534  16.187 -0.2061 -0.1140  0.2409
 9491TIP3    H149888   1.893   3.480  16.160 -0.4638  0.1692  0.3860
 9491TIP3    H249889   1.947   3.562  16.276 -1.0980  1.9894 -0.5673
 9492TIP3   OH249890   1.756   3.176  13.537 -1.2731  0.0011 -0.4972
 9492TIP3    H149891   1.819   3.129  13.592 -2.6119  0.0920  1.1942
 9492TIP3    H249892   1.713   3.107  13.486  0.5999  0.0004 -2.1711
 9493TIP3   OH249893   1.106   3.420  17.206  0.1069 -0.3781 -0.3307
 9493TIP3    H149894   1.095   3.515  17.210  1.2169 -0.2380 -0.2313
 9493TIP3    H249895   1.055   3.386  17.279  1.3036  0.3135  0.8608
 9494TIP3   OH249896   1.870   6.544  14.047  0.5103 -0.0897  0.0148
 9494TIP3    H149897   1.806   6.597  14.094  2.0602  0.8740  1.1309
 9494TIP3    H249898   1.928   6.609  14.005  1.9748 -0.8846  0.7510
 9495TIP3   OH249899   1.486   0.584  12.705  0.3544 -0.5024  0.1885
 9495TIP3    H149900   1.435   0.635  12.768  0.1493  0.2348 -0.5628
 9495TIP3    H249901   1.501   0.643  12.631  0.6178 -1.3335 -0.4483
 9496TIP3   OH249902   6.092   3.967  12.556  0.2421  0.0659 -0.0469
 9496TIP3    H149903   6.170   3.930  12.598  0.7649 -0.9026 -1.7917
 9496TIP3    H249904   6.099   4.061  12.572  0.9455 -0.1594  1.1314
 9497TIP3   OH249905   5.450   1.303   4.464  0.5646 -0.3825 -0.4294
 9497TIP3    H149906   5.374   1.356   4.486 -0.1927 -2.3242  2.0940
 9497TIP3    H249907   5.438   1.282   4.371 -0.8755  1.0142 -0.6017
 9498TIP3   OH249908   5.220   3.748  14.958  0.5831  0.0039  0.1424
 9498TIP3    H149909   5.281   3.791  14.898  0.4151  0.1520  0.0748
 9498TIP3    H249910   5.266   3.744  15.041  0.5587  0.4096  0.1739
 9499TIP3   OH249911   6.490   5.219   2.303 -0.4201 -0.4566 -0.1771
 9499TIP3    H149912   6.448   5.275   2.237 -0.4327  1.4368  1.3595
 9499TIP3    H249913   6.439   5.138   2.302 -1.3460  0.1049 -1.4144
 9500TIP3   OH249914   4.702   4.128   2.779  0.4247 -0.2822 -0.0143
 9500TIP3    H149915   4.685   4.055   2.719 -0.3449 -1.0400  1.0872
 9500TIP3    H249916   4.793   4.151   2.763 -0.2846  0.9520 -2.9598
 9501TIP3   OH249917   4.350   1.374  16.699  0.4927 -0.2969  0.0532
 9501TIP3    H149918   4.281   1.398  16.761  0.4527 -1.2548  0.3935
 9501TIP3    H249919   4.310   1.307  16.643  0.5695  0.4717 -0.9494
 9502TIP3   OH249920   6.647   2.422   4.476  0.3079  0.3628 -0.2213
 9502TIP3    H149921   6.638   2.450   4.385  0.1749  1.6681  0.1773
 9502TIP3    H249922   6.740   2.403   4.486  0.1714 -0.8214 -0.8895
 9503TIP3   OH249923   5.310   3.956  12.599 -0.2950 -0.1562 -0.1110
 9503TIP3    H149924   5.245   4.018  12.631  0.5529  0.2264  0.9380
 9503TIP3    H249925   5.353   3.923  12.678  0.1374 -1.1178 -0.7254
 9504TIP3   OH249926   5.776   4.150   2.902 -0.3943 -0.3137  0.1431
 9504TIP3    H149927   5.798   4.241   2.883 -0.5481 -0.3019  0.0188
 9504TIP3    H249928   5.696   4.133   2.851 -1.2016 -0.0760  1.2796
 9505TIP3   OH249929   2.616   6.046   2.615  0.3466  0.0451  0.4994
 9505TIP3    H149930   2.662   6.050   2.531 -0.2554  0.1185  0.1665
 9505TIP3    H249931   2.679   6.082   2.679  0.1264  1.8349 -0.2233
 9506TIP3   OH249932   1.275   5.829   2.461 -0.3123 -0.1827  0.6155
 9506TIP3    H149933   1.187   5.817   2.497 -0.1213 -0.8228  0.8650
 9506TIP3    H249934   1.277   5.772   2.384 -0.6082  0.9359 -0.2508
 9507TIP3   OH249935   5.532   3.383  11.525 -0.0957 -0.1109  0.4103
 9507TIP3    H149936   5.445   3.356  11.497  1.1154 -2.3347 -1.5868
 9507TIP3    H249937   5.543   3.471  11.490 -1.6230  0.3334  0.9751
 9508TIP3   OH249938   1.158   6.592  16.179  0.2342 -0.2248  0.5975
 9508TIP3    H149939   1.216   6.656  16.137 -1.3347  2.2056  1.8986
 9508TIP3    H249940   1.160   6.615  16.272 -0.1163 -2.3632  1.1847
 9509TIP3   OH249941   1.147   4.331   5.374  0.0038 -0.0164  0.1436
 9509TIP3    H149942   1.194   4.278   5.311  2.2369 -0.2921  1.9355
 9509TIP3    H249943   1.153   4.283   5.456 -1.1816  1.2109  0.9990
 9510TIP3   OH249944   5.133   3.336  13.481  0.2552 -0.2895 -0.3517
 9510TIP3    H149945   5.060   3.375  13.433 -0.0502  0.0082  0.3364
 9510TIP3    H249946   5.174   3.410  13.526 -1.4745 -0.9085  2.5109
 9511TIP3   OH249947   4.632   4.200   3.226  0.4589 -0.7168 -0.2290
 9511TIP3    H149948   4.614   4.199   3.132  1.1096  3.1332 -0.5749
 9511TIP3    H249949   4.679   4.282   3.240 -2.0843  0.3157  3.8607
 9512TIP3   OH249950   4.059   6.180   3.685  0.2608 -0.1557  0.4739
 9512TIP3    H149951   3.974   6.141   3.666  0.3216 -0.0239 -0.0764
 9512TIP3    H249952   4.059   6.192   3.780 -0.5216  0.2892  0.4263
 9513TIP3   OH249953   1.809   0.207  12.417  0.4917 -0.1656 -0.1950
 9513TIP3    H149954   1.805   0.295  12.456 -1.6103 -0.3568  0.1357
 9513TIP3    H249955   1.901   0.196  12.393  0.7564  2.2765 -0.6092
 9514TIP3   OH249956   2.221   4.853   0.003  0.1743  0.3188  0.7681
 9514TIP3    H149957   2.238   4.772  -0.044  0.5444  1.2384 -0.7736
 9514TIP3    H249958   2.302   4.904  -0.008 -1.8563  3.2334 -3.3887
 9515TIP3   OH249959   0.898   2.955  15.515 -0.3028 -0.0342 -0.2607
 9515TIP3    H149960   0.879   3.038  15.559 -1.0547 -0.2697 -0.1221
 9515TIP3    H249961   0.969   2.975  15.455  1.1526  0.1647  1.4476
 9516TIP3   OH249962   4.548   0.145  11.559  0.0955 -0.0189  0.1086
 9516TIP3    H149963   4.545   0.190  11.643  1.0379  0.7775 -0.2579
 9516TIP3    H249964   4.468   0.173  11.514  0.1196  0.4201  0.3286
 9517TIP3   OH249965   5.895   5.819   4.675  0.0926  0.2855 -0.1287
 9517TIP3    H149966   5.980   5.860   4.658  0.2767 -0.7097 -1.8409
 9517TIP3    H249967   5.837   5.893   4.695  1.0873  1.0792 -0.0635
 9518TIP3   OH249968   0.655   1.313   4.953  0.1042  0.2116  0.3384
 9518TIP3    H149969   0.694   1.289   4.869  0.6524  3.7690 -0.5720
 9518TIP3    H249970   0.562   1.328   4.933 -0.2967 -1.2431  0.9572
 9519TIP3   OH249971   1.244   4.187  17.234 -0.7566  0.4860  0.1822
 9519TIP3    H149972   1.162   4.213  17.276 -0.4418 -1.8868  2.5467
 9519TIP3    H249973   1.256   4.095  17.258  2.4919  0.6703 -0.2074
 9520TIP3   OH249974   1.323   4.558  11.190 -0.3176  0.3491 -0.0186
 9520TIP3    H149975   1.393   4.535  11.128 -0.9885 -0.4400 -0.5073
 9520TIP3    H249976   1.273   4.625  11.145  0.0159  0.7958  0.2645
 9521TIP3   OH249977   0.866   1.152  16.652 -0.0726 -0.8195  0.1416
 9521TIP3    H149978   0.940   1.212  16.640 -1.3339  0.8830  0.5922
 9521TIP3    H249979   0.882   1.111  16.736 -0.7349  1.2596  1.3617
 9522TIP3   OH249980   5.140   6.331   3.398 -0.0701 -0.2405 -0.1097
 9522TIP3    H149981   5.144   6.426   3.403  1.0563 -0.2542 -0.4257
 9522TIP3    H249982   5.074   6.305   3.462  0.9347  0.6334  1.3161
 9523TIP3   OH249983   4.777   0.294  13.404 -0.1378 -0.2902  0.0838
 9523TIP3    H149984   4.853   0.289  13.462 -0.5352  1.0692  0.7525
 9523TIP3    H249985   4.717   0.354  13.448 -1.4644 -1.0711 -0.6061
 9524TIP3   OH249986   5.705   0.563   4.246  0.3889  0.1303 -0.1196
 9524TIP3    H149987   5.681   0.471   4.235  1.5008 -0.2484  0.4735
 9524TIP3    H249988   5.626   0.605   4.279  0.4495 -1.0479  1.6815
 9525TIP3   OH249989   3.276   2.445  16.438  0.1100  0.1141 -0.0265
 9525TIP3    H149990   3.309   2.517  16.492  0.8303 -0.6370  0.5634
 9525TIP3    H249991   3.182   2.442  16.456  0.1340  0.6858  0.1984
 9526TIP3   OH249992   3.532   4.785  11.471  0.1083 -0.4504 -0.7041
 9526TIP3    H149993   3.478   4.864  11.475  0.7566 -0.0605  2.9410
 9526TIP3    H249994   3.581   4.794  11.389 -0.5424  2.4444 -0.8855
 9527TIP3   OH249995   5.534   2.617   5.192 -0.6373 -0.4333  0.2139
 9527TIP3    H149996   5.478   2.685   5.229  0.6661  0.7377  0.1318
 9527TIP3    H249997   5.547   2.555   5.264 -0.4422  0.3210  0.8452
 9528TIP3   OH249998   5.893   0.552   1.946 -0.4961 -0.0322  0.1527
 9528TIP3    H149999   5.853   0.524   1.863 -0.3640 -3.2317  1.0444
 9528TIP3    H250000   5.983   0.520   1.940  0.4174  2.3372  0.3846
 9529TIP3   OH250001   6.732   0.618   5.919 -0.2395  0.3452  0.0548
 9529TIP3    H150002   6.720   0.545   5.981  0.5817  2.4675  2.8931
 9529TIP3    H250003   6.684   0.691   5.958  1.9920  2.3555 -0.7175
 9530TIP3   OH250004   4.461   4.508  11.741 -0.2917  0.4554  0.1044
 9530TIP3    H150005   4.428   4.489  11.653  1.2008 -1.6089 -0.0961
 9530TIP3    H250006   4.518   4.584  11.729 -2.2375  1.9542 -0.1343
 9531TIP3   OH250007   6.677   5.101   1.314 -0.1333  0.3642  0.0075
 9531TIP3    H150008   6.762   5.143   1.323  0.8524 -1.3937 -0.5602
 9531TIP3    H250009   6.618   5.170   1.284  1.4298  1.3000 -1.0193
 9532TIP3   OH250010   4.417   5.922  11.141  0.3718 -0.0065  0.2759
 9532TIP3    H150011   4.365   5.955  11.068  0.7531  0.5126  0.2314
 9532TIP3    H250012   4.393   5.830  11.148  0.7022 -0.1797 -0.8108
 9533TIP3   OH250013   6.064   0.534   1.480  0.2680 -0.2475 -0.3690
 9533TIP3    H150014   6.041   0.600   1.414  2.8588  0.1600 -0.9888
 9533TIP3    H250015   6.114   0.468   1.432 -0.3082 -1.5076  0.6857
 9534TIP3   OH250016   2.458   3.231   5.431  0.4662 -0.1022 -0.0763
 9534TIP3    H150017   2.380   3.204   5.479  1.0883 -2.5485 -0.3436
 9534TIP3    H250018   2.432   3.312   5.387 -1.0894  0.5104  1.8509
 9535TIP3   OH250019   1.317   1.768  16.743 -0.2982 -0.1119  0.1428
 9535TIP3    H150020   1.376   1.704  16.784 -0.8217  0.5200  1.9500
 9535TIP3    H250021   1.334   1.758  16.649  0.2248 -2.3292  0.4047
 9536TIP3   OH250022   5.808   2.508   4.944  0.6654  0.1938  0.2423
 9536TIP3    H150023   5.803   2.469   5.031 -0.2388  0.4944  0.3374
 9536TIP3    H250024   5.823   2.434   4.885 -1.4934 -0.3956  0.3640
 9537TIP3   OH250025   6.750   1.925  11.301  0.3655  0.4063  0.0542
 9537TIP3    H150026   6.660   1.900  11.322  0.4535  0.7948  0.9592
 9537TIP3    H250027   6.743   1.976  11.220 -0.0937 -0.4641 -0.4591
 9538TIP3   OH250028   3.353   0.902  14.736 -0.3291 -0.3715 -0.5740
 9538TIP3    H150029   3.332   0.867  14.822  0.6877  0.8589  0.2044
 9538TIP3    H250030   3.278   0.878  14.681 -1.3322 -0.5291  0.8194
 9539TIP3   OH250031   5.149   1.196  11.400  0.3450 -0.1277  0.1481
 9539TIP3    H150032   5.106   1.186  11.315 -1.2425 -0.5261  0.9560
 9539TIP3    H250033   5.126   1.284  11.429 -0.6989 -0.6592  0.9814
 9540TIP3   OH250034   1.969   4.914  16.866  0.0731 -0.0880  0.0019
 9540TIP3    H150035   2.064   4.930  16.863 -0.3110  2.7461 -2.2267
 9540TIP3    H250036   1.939   4.964  16.942  0.1847  0.5819 -0.3857
 9541TIP3   OH250037   4.288   0.428   4.397  0.0341  0.1358  0.0467
 9541TIP3    H150038   4.375   0.412   4.362 -0.1577 -1.5610  0.2150
 9541TIP3    H250039   4.302   0.488   4.470  1.2621 -1.0350  0.8374
 9542TIP3   OH250040   3.702   3.515   2.417  0.5352  0.2356 -0.8177
 9542TIP3    H150041   3.786   3.537   2.376  1.7281 -0.1106  1.3177
 9542TIP3    H250042   3.669   3.597   2.452  0.7351  0.1228 -0.3565
 9543TIP3   OH250043   0.697   0.497  15.797  0.1182 -0.3149 -0.4534
 9543TIP3    H150044   0.741   0.577  15.769 -1.3500  1.4344  1.8980
 9543TIP3    H250045   0.622   0.488  15.738  0.0670  0.2991 -0.4849
 9544TIP3   OH250046   0.561   0.433   0.077  0.1145  0.0139  0.6084
 9544TIP3    H150047   0.513   0.485   0.013 -0.5502 -1.3690 -0.0683
 9544TIP3    H250048   0.635   0.395   0.027  2.7877  3.0767  1.8873
 9545TIP3   OH250049   0.397   1.044   6.625 -0.6073  0.0619  0.4863
 9545TIP3    H150050   0.336   1.113   6.651 -1.2123 -0.4414  0.4203
 9545TIP3    H250051   0.341   0.974   6.591 -0.0603 -0.8270  1.3841
 9546TIP3   OH250052   2.083   2.348  14.443  0.1120  0.2543 -0.0958
 9546TIP3    H150053   2.002   2.330  14.395 -0.6273 -1.2120  1.5706
 9546TIP3    H250054   2.151   2.301  14.395 -0.4404 -0.3797 -0.2821
 9547TIP3   OH250055   3.854   1.356  16.259 -0.2316 -0.7479  0.0218
 9547TIP3    H150056   3.761   1.337  16.247 -0.6373  1.3959 -0.7330
 9547TIP3    H250057   3.899   1.296  16.199 -1.1337 -1.5632  0.1352
 9548TIP3   OH250058   5.250   3.243   5.504 -0.8217 -0.5977  0.9137
 9548TIP3    H150059   5.303   3.279   5.575 -1.5138 -1.2207  1.7687
 9548TIP3    H250060   5.264   3.149   5.509  1.0724 -0.5121 -1.3743
 9549TIP3   OH250061   2.407   2.756   3.512 -0.3723 -0.3767  0.7115
 9549TIP3    H150062   2.489   2.754   3.561  0.2105  0.3899 -0.1792
 9549TIP3    H250063   2.361   2.833   3.546  0.2195  0.4017 -0.1939
 9550TIP3   OH250064   6.097   5.760   0.809 -0.0339 -0.0881  0.0948
 9550TIP3    H150065   6.117   5.683   0.862  1.8652  0.6182  0.4809
 9550TIP3    H250066   6.037   5.811   0.863 -1.1319 -1.1605 -0.0720
 9551TIP3   OH250067   5.296   5.356  11.403 -0.3020 -0.2877  0.2019
 9551TIP3    H150068   5.330   5.371  11.315  1.4909  0.1364  0.9181
 9551TIP3    H250069   5.224   5.294  11.391  0.0377 -0.3844 -1.5334
 9552TIP3   OH250070   0.535   0.898   2.949 -0.2811 -0.1897 -0.1359
 9552TIP3    H150071   0.460   0.844   2.925  0.5478 -0.6835 -1.7769
 9552TIP3    H250072   0.501   0.987   2.951 -1.4729 -0.6410  1.7509
 9553TIP3   OH250073   1.377   5.193   2.796 -0.5620 -0.5947  0.3884
 9553TIP3    H150074   1.331   5.219   2.877 -0.2122  1.3718 -0.0043
 9553TIP3    H250075   1.406   5.103   2.813  1.5889  0.5180  3.4303
 9554TIP3   OH250076   6.519   4.468   0.903  0.2516 -0.1192 -0.3370
 9554TIP3    H150077   6.492   4.553   0.870 -0.5982 -0.1483  0.2444
 9554TIP3    H250078   6.513   4.409   0.828  0.6745  0.2897 -0.6980
 9555TIP3   OH250079   5.202   3.546   4.549 -0.0275  0.3938 -0.1935
 9555TIP3    H150080   5.221   3.612   4.482  2.3017  0.6687  0.6236
 9555TIP3    H250081   5.289   3.520   4.581 -0.7496 -3.7867 -1.1168
 9556TIP3   OH250082   5.928   2.542  13.183  0.2857  0.4936  0.2331
 9556TIP3    H150083   5.893   2.605  13.246  0.2487  0.0044  0.7147
 9556TIP3    H250084   5.874   2.464  13.196  0.3628  0.3472 -0.3201
 9557TIP3   OH250085   2.221   1.590  13.991 -0.1374  0.2525  0.4285
 9557TIP3    H150086   2.238   1.563  14.082 -1.7706 -0.6153  0.5083
 9557TIP3    H250087   2.302   1.567  13.944 -0.0259 -1.1991  1.2809
 9558TIP3   OH250088   2.107   3.403   5.015  0.0125  0.2239 -0.2473
 9558TIP3    H150089   2.122   3.480   4.961  2.7572  0.0724  0.1549
 9558TIP3    H250090   2.130   3.430   5.104 -2.2816 -0.1588  0.5309
 9559TIP3   OH250091   4.195   6.719  14.525 -0.0492 -0.1633  0.2571
 9559TIP3    H150092   4.257   6.651  14.499  0.3061  0.5996 -0.9951
 9559TIP3    H250093   4.174   6.765  14.444 -1.3232  0.3723  0.8557
 9560TIP3   OH250094   0.346   3.697   1.340  0.0229 -0.1603  0.0955
 9560TIP3    H150095   0.367   3.770   1.283 -1.9758 -0.1127 -0.6484
 9560TIP3    H250096   0.431   3.667   1.374  1.2338  0.1226 -2.4830
 9561TIP3   OH250097   6.248   4.198   4.528 -0.6395 -0.0776  0.6509
 9561TIP3    H150098   6.265   4.292   4.534 -0.2211 -0.2247  2.2153
 9561TIP3    H250099   6.290   4.171   4.446  0.2202  0.9006  0.7516
 9562TIP3   OH250100   1.075   0.682  15.214  0.4577 -0.0014 -0.6041
 9562TIP3    H150101   1.122   0.712  15.292  0.5794  0.7904 -0.9754
 9562TIP3    H250102   1.061   0.589  15.230 -1.3207  0.4969  1.3178
 9563TIP3   OH250103   1.645   1.277   1.668 -0.3247 -0.0111  0.0354
 9563TIP3    H150104   1.680   1.278   1.579 -0.4205 -0.4929 -0.0086
 9563TIP3    H250105   1.662   1.188   1.699 -0.3753  0.1283  0.4663
 9564TIP3   OH250106   0.971   2.072   1.520 -0.4557 -0.3856  0.2790
 9564TIP3    H150107   1.010   1.992   1.485 -0.5670 -0.4831  0.3778
 9564TIP3    H250108   0.962   2.129   1.443  0.7455  0.0007  0.4191
 9565TIP3   OH250109   6.194   5.279  16.969  0.1376 -0.3262  0.1403
 9565TIP3    H150110   6.239   5.354  16.931  0.0180 -0.8393 -1.0823
 9565TIP3    H250111   6.218   5.280  17.061  0.0573  1.2575  0.1629
 9566TIP3   OH250112   1.722   2.810  15.838  0.5397 -0.3444  0.4328
 9566TIP3    H150113   1.686   2.722  15.827  1.3650 -0.4817 -1.4367
 9566TIP3    H250114   1.809   2.806  15.798  0.9620  1.1036  1.1104
 9567TIP3   OH250115   0.891   4.190   2.494  0.5710  0.4219 -0.0244
 9567TIP3    H150116   0.943   4.223   2.568  1.4056 -0.2983 -0.2746
 9567TIP3    H250117   0.876   4.098   2.515  1.5472 -0.0091 -1.1543
 9568TIP3   OH250118   5.804   3.539  12.721 -0.2872 -0.0957  0.2294
 9568TIP3    H150119   5.888   3.499  12.699 -0.8263 -0.7992 -0.6420
 9568TIP3    H250120   5.809   3.627  12.684  0.3799  0.1635  0.9264
 9569TIP3   OH250121   5.589   3.939   3.426 -0.3384  0.8153  0.2165
 9569TIP3    H150122   5.589   3.970   3.516 -1.0322  0.2332  0.4281
 9569TIP3    H250123   5.554   4.013   3.376  1.1723  1.5744  0.2448
 9570TIP3   OH250124   6.387   5.890   3.139 -0.4640  0.8769  0.3345
 9570TIP3    H150125   6.438   5.823   3.186 -0.0836  0.9394  0.0158
 9570TIP3    H250126   6.384   5.964   3.199 -0.1139  0.8984  0.3260
 9571TIP3   OH250127   4.872   2.241  15.435  0.4908 -0.4185  0.1468
 9571TIP3    H150128   4.938   2.200  15.378  1.8215 -0.6946  1.7983
 9571TIP3    H250129   4.909   2.326  15.457  0.8340 -0.9970  1.9312
 9572TIP3   OH250130   1.956   5.987   2.770 -0.3003 -0.3570  0.2110
 9572TIP3    H150131   1.987   5.984   2.679  0.1101 -1.9438  0.3850
 9572TIP3    H250132   1.860   5.988   2.761 -0.2718 -0.8695 -0.2442
 9573TIP3   OH250133   1.535   0.276   5.922  0.1137 -0.6189 -0.0694
 9573TIP3    H150134   1.517   0.293   6.015 -0.4725  2.9217 -0.7132
 9573TIP3    H250135   1.449   0.264   5.883  0.2332 -0.1450 -0.4784
 9574TIP3   OH250136   2.926   5.545   4.614 -0.3174 -0.6556 -0.2280
 9574TIP3    H150137   2.974   5.507   4.540  1.5516  2.9103 -1.1041
 9574TIP3    H250138   2.975   5.625   4.635 -3.8417  1.3054  1.3420
 9575TIP3   OH250139   5.115   3.603   3.205 -0.3772  0.4247  0.1035
 9575TIP3    H150140   5.174   3.668   3.244  0.1596  1.0084 -1.5658
 9575TIP3    H250141   5.163   3.521   3.208 -0.4356  0.4156  0.8508
 9576TIP3   OH250142   3.186   4.641  10.736  0.4864  0.6822 -0.1574
 9576TIP3    H150143   3.172   4.682  10.650  1.0009  0.3457 -0.4062
 9576TIP3    H250144   3.261   4.688  10.773  1.1796 -0.1195 -0.5099
 9577TIP3   OH250145   5.555   6.138  10.838  0.3464  0.0829 -0.1769
 9577TIP3    H150146   5.507   6.203  10.888  0.4178 -0.8159  1.1172
 9577TIP3    H250147   5.640   6.132  10.881  0.9776  0.3412 -1.3303
 9578TIP3   OH250148   1.055   2.843   2.492  0.3336  0.0936  0.0541
 9578TIP3    H150149   1.050   2.901   2.416 -1.9289 -0.0269  0.0410
 9578TIP3    H250150   0.986   2.778   2.478  2.5180 -2.4855  0.2434
 9579TIP3   OH250151   4.529   6.508   4.241  0.4734  0.3156 -0.1396
 9579TIP3    H150152   4.520   6.508   4.336 -0.2081 -1.3831 -0.1601
 9579TIP3    H250153   4.507   6.419   4.215  1.0702  0.6271 -1.8639
 9580TIP3   OH250154   0.022   4.400   2.432  0.1047  0.5194 -0.4246
 9580TIP3    H150155   0.081   4.414   2.358  0.2797 -0.2543 -0.4372
 9580TIP3    H250156   0.069   4.434   2.508  0.5618 -0.0744 -0.4381
 9581TIP3   OH250157   4.143   2.034   3.462  0.2894 -0.0247 -0.4518
 9581TIP3    H150158   4.229   2.058   3.498  0.2997  1.6166 -1.4663
 9581TIP3    H250159   4.159   1.952   3.416  0.7456 -1.0370  1.4168
 9582TIP3   OH250160   5.235   3.747   4.334 -0.0852 -0.2748 -0.3907
 9582TIP3    H150161   5.264   3.835   4.310 -1.0545  0.1207 -0.1592
 9582TIP3    H250162   5.141   3.748   4.318 -0.4250 -0.6778  1.4012
 9583TIP3   OH250163   5.430   6.609   3.091 -0.3587 -0.3409  0.2542
 9583TIP3    H150164   5.415   6.565   3.175 -1.6301  1.8105  1.2642
 9583TIP3    H250165   5.350   6.595   3.041 -0.2858 -0.2146  0.1006
 9584TIP3   OH250166   4.322   5.931   0.809 -0.2160  0.5196  0.0730
 9584TIP3    H150167   4.380   6.005   0.825  0.8079 -0.3483  0.4837
 9584TIP3    H250168   4.318   5.884   0.892 -0.9427  0.1680 -0.1474
 9585TIP3   OH250169   5.812   1.670   4.638 -0.6997 -0.5795 -0.7768
 9585TIP3    H150170   5.718   1.650   4.644 -0.4742 -2.1896 -1.8362
 9585TIP3    H250171   5.851   1.589   4.605  1.0358  0.1541 -0.6079
 9586TIP3   OH250172   2.979   2.460   0.765 -0.4616  0.5176  0.3573
 9586TIP3    H150173   3.047   2.477   0.700  1.6399 -1.0847  1.9887
 9586TIP3    H250174   2.923   2.394   0.726  0.5262 -0.1140 -0.0222
 9587TIP3   OH250175   2.600   2.363  16.407 -0.2953  0.2773  0.2826
 9587TIP3    H150176   2.604   2.411  16.490  1.2158  0.9135 -0.1180
 9587TIP3    H250177   2.652   2.416  16.347 -0.0312 -0.9973 -0.6517
 9588TIP3   OH250178   6.631   3.958   1.577 -0.3126 -0.0571 -0.0038
 9588TIP3    H150179   6.632   3.890   1.645 -2.2196 -0.8333 -0.7089
 9588TIP3    H250180   6.565   4.020   1.606  0.6974  1.0053  0.1126
 9589TIP3   OH250181   0.691   4.647   6.078  0.1609 -0.3052  0.2119
 9589TIP3    H150182   0.720   4.561   6.046  1.0020 -0.7816  2.1100
 9589TIP3    H250183   0.702   4.642   6.172 -1.7800  1.1825  0.5821
 9590TIP3   OH250184   2.233   6.404  12.855  0.1654 -0.1755  0.1301
 9590TIP3    H150185   2.233   6.449  12.770 -1.7740 -0.2908  0.0263
 9590TIP3    H250186   2.173   6.456  12.909 -1.6322 -2.2034  0.2014
 9591TIP3   OH250187   0.213   5.922  17.178  0.0889  0.6826  0.1110
 9591TIP3    H150188   0.303   5.953  17.189 -0.0029  1.2741 -0.7290
 9591TIP3    H250189   0.200   5.917  17.084 -0.6400  0.2399  0.2236
 9592TIP3   OH250190   1.791   1.963   6.626 -0.2340 -0.3199 -0.3303
 9592TIP3    H150191   1.764   1.883   6.581 -1.6361 -0.9926  1.5600
 9592TIP3    H250192   1.718   2.025   6.612  0.2669  0.1874 -0.7273
 9593TIP3   OH250193   1.063   4.668  13.872 -0.1054  0.6170  0.1306
 9593TIP3    H150194   1.147   4.709  13.852 -1.3116  2.1606 -2.3496
 9593TIP3    H250195   1.000   4.740  13.866 -1.8667 -0.9099 -0.4834
 9594TIP3   OH250196   3.037   2.732  14.636  0.4881 -0.4684  0.6736
 9594TIP3    H150197   3.062   2.775  14.718  3.0867  1.8002 -1.1418
 9594TIP3    H250198   2.977   2.794  14.594  0.8351 -0.6354 -0.0722
 9595TIP3   OH250199   6.456   6.178  14.940  0.2345 -0.0692  0.5590
 9595TIP3    H150200   6.531   6.183  14.881 -0.1074  0.6961  0.1729
 9595TIP3    H250201   6.381   6.201  14.885  0.1744  3.1977  1.7656
 9596TIP3   OH250202   6.541   2.840   5.260 -1.3310 -0.1570 -0.1697
 9596TIP3    H150203   6.458   2.843   5.213 -0.9371  0.8709 -0.8327
 9596TIP3    H250204   6.521   2.876   5.347 -1.2416  1.9121 -0.9310
 9597TIP3   OH250205   6.607   5.375  12.084  0.0046  0.3404  0.3749
 9597TIP3    H150206   6.605   5.470  12.087  0.3566  0.3913 -0.8067
 9597TIP3    H250207   6.644   5.349  12.169  1.5709  1.3151  0.0265
 9598TIP3   OH250208   6.511   2.412   4.991  0.1625 -0.2560  0.0375
 9598TIP3    H150209   6.582   2.361   4.950 -0.4303 -1.1455  0.0843
 9598TIP3    H250210   6.459   2.347   5.038 -0.9996  0.3116 -0.4372
 9599TIP3   OH250211   0.380   5.438   0.281  0.4614 -1.0209  0.4409
 9599TIP3    H150212   0.361   5.504   0.215 -1.8036 -0.1998  1.8081
 9599TIP3    H250213   0.473   5.419   0.269  1.1629  2.2287 -0.1752
 9600TIP3   OH250214   5.930   1.762   2.575  0.0710  0.5072 -0.2932
 9600TIP3    H150215   5.895   1.673   2.573  2.8576 -0.7441  0.5956
 9600TIP3    H250216   5.876   1.808   2.639  0.3516 -1.4682  1.4811
 9601TIP3   OH250217   6.039   6.430  14.807  0.1905  0.2368 -0.0807
 9601TIP3    H150218   6.021   6.496  14.875 -2.3030 -0.6424  0.2393
 9601TIP3    H250219   5.952   6.406  14.774  1.2473  0.0899 -3.1257
 9602TIP3   OH250220   0.463   6.349  16.529  0.1381  0.1389 -0.5843
 9602TIP3    H150221   0.383   6.338  16.581  0.4640  1.7260  0.3177
 9602TIP3    H250222   0.454   6.436  16.490  1.6843  0.5980  0.0217
 9603TIP3   OH250223   5.777   0.081  13.641  0.1051  0.1602 -0.4274
 9603TIP3    H150224   5.803   0.167  13.606  0.4158  0.6355  0.8940
 9603TIP3    H250225   5.831   0.071  13.720  0.3230 -1.4197 -0.7477
 9604TIP3   OH250226   0.680   5.725  14.881 -0.1548  0.5539 -0.2570
 9604TIP3    H150227   0.680   5.794  14.947 -1.2576  1.1772 -0.8638
 9604TIP3    H250228   0.595   5.735  14.837 -1.0170 -2.1715  0.6280
 9605TIP3   OH250229   4.511   2.668   6.246  0.3585  0.8887 -0.0799
 9605TIP3    H150230   4.440   2.604   6.246 -0.1438  1.4187  1.2037
 9605TIP3    H250231   4.590   2.615   6.256  0.0036  0.4294  0.3433
 9606TIP3   OH250232   6.272   3.329  14.422  0.1432 -0.2597 -0.1078
 9606TIP3    H150233   6.223   3.393  14.474 -0.4847 -0.4775 -0.4259
 9606TIP3    H250234   6.354   3.373  14.400  1.0550 -0.6227  2.2296
 9607TIP3   OH250235   0.429   4.752  11.462 -0.0729  0.0368 -0.0462
 9607TIP3    H150236   0.517   4.781  11.440  0.6912 -0.3642  2.2022
 9607TIP3    H250237   0.371   4.813  11.416  1.3796  0.7148 -1.0333
 9608TIP3   OH250238   3.697   1.161  11.229 -0.1760  0.2431  0.4296
 9608TIP3    H150239   3.715   1.084  11.175 -0.0705  0.0779  0.7013
 9608TIP3    H250240   3.621   1.202  11.188 -0.2179  0.0090  0.2736
 9609TIP3   OH250241   4.475   1.457   4.046 -0.1429 -0.3402  0.3463
 9609TIP3    H150242   4.453   1.550   4.046  0.8502 -0.0755 -0.9637
 9609TIP3    H250243   4.429   1.421   4.122 -1.9428  0.8799 -0.1136
 9610TIP3   OH250244   1.669   2.346  12.051 -0.3006  0.4399  0.2702
 9610TIP3    H150245   1.578   2.372  12.066 -0.4952 -0.1211  0.0858
 9610TIP3    H250246   1.716   2.429  12.038 -0.7102  0.7490  0.7537
 9611TIP3   OH250247   0.703   2.409  16.859 -0.1205 -0.0791 -0.2153
 9611TIP3    H150248   0.685   2.325  16.818  1.5863  0.5330 -2.4053
 9611TIP3    H250249   0.673   2.399  16.950 -1.6137 -2.3926 -0.8805
 9612TIP3   OH250250   5.707   0.060   1.625 -0.4524  0.0172  0.2115
 9612TIP3    H150251   5.674  -0.004   1.688 -2.4674 -0.0325 -0.8110
 9612TIP3    H250252   5.666   0.142   1.651 -1.4914 -0.0520 -1.1224
 9613TIP3   OH250253   6.532   3.251   2.621  0.2221 -0.1570  0.0523
 9613TIP3    H150254   6.544   3.277   2.529 -2.4424  1.0490 -0.0291
 9613TIP3    H250255   6.586   3.172   2.630  1.5544  0.4015 -2.1737
 9614TIP3   OH250256   4.861   5.011  10.841  0.1095  0.1929  0.3336
 9614TIP3    H150257   4.844   4.933  10.894 -0.2413  2.3011  3.5772
 9614TIP3    H250258   4.957   5.015  10.834  0.1081 -0.9673 -0.6775
 9615TIP3   OH250259   0.755   3.676   4.973  0.5505  0.1871 -0.2929
 9615TIP3    H150260   0.836   3.724   4.989  0.2994  0.3980  0.4062
 9615TIP3    H250261   0.780   3.583   4.975  0.8262  0.2606 -0.4071
 9616TIP3   OH250262   2.578   1.525  16.144  0.0631 -0.3111  0.1571
 9616TIP3    H150263   2.608   1.483  16.063 -1.2821  1.0183 -1.0930
 9616TIP3    H250264   2.487   1.497  16.154 -0.3486  0.9606  0.1892
 9617TIP3   OH250265   2.218   0.425  12.813 -0.1777  0.0142 -0.2297
 9617TIP3    H150266   2.310   0.398  12.813 -0.1310  0.1749 -0.3361
 9617TIP3    H250267   2.197   0.439  12.721 -1.0483 -2.5404 -0.4899
 9618TIP3   OH250268   2.393   5.531  17.276  0.2073  0.5073 -0.2859
 9618TIP3    H150269   2.352   5.611  17.308  1.1707  0.6181  0.7412
 9618TIP3    H250270   2.440   5.496  17.352 -0.5274 -1.2634 -0.5858
 9619TIP3   OH250271   1.685   3.094   1.095 -0.5342 -0.2224 -0.1991
 9619TIP3    H150272   1.632   3.173   1.087  0.2219  0.3090 -0.1514
 9619TIP3    H250273   1.623   3.022   1.088 -1.2650  0.3808 -0.0254
 9620TIP3   OH250274   6.369   4.174   4.261  0.3140  0.5350 -0.5154
 9620TIP3    H150275   6.427   4.098   4.253  0.5811  0.6012  0.6394
 9620TIP3    H250276   6.403   4.237   4.198  0.9373  0.2280 -0.4934
 9621TIP3   OH250277   2.079   5.661   1.383 -0.1313 -0.0850 -0.0121
 9621TIP3    H150278   2.010   5.705   1.333  0.3628  1.5922  0.7292
 9621TIP3    H250279   2.038   5.641   1.468  0.0846  0.2355  0.1645
 9622TIP3   OH250280   6.270   1.681   1.983 -0.0172  0.4051 -0.3038
 9622TIP3    H150281   6.259   1.645   1.895 -0.7760 -0.0816 -0.0196
 9622TIP3    H250282   6.355   1.725   1.980  0.6776 -0.8945 -0.8461
 9623TIP3   OH250283   0.377   1.993  10.802 -0.0138  0.1697 -0.0065
 9623TIP3    H150284   0.330   2.074  10.821 -1.0828 -0.4009 -0.1536
 9623TIP3    H250285   0.359   1.975  10.710  0.8855  0.1766 -0.2018
 9624TIP3   OH250286   5.150   2.645   2.727 -0.4514  0.1090  0.3662
 9624TIP3    H150287   5.225   2.701   2.749  0.2157  0.3957 -2.2762
 9624TIP3    H250288   5.105   2.692   2.657 -2.4077 -0.6883  1.0162
 9625TIP3   OH250289   4.707   1.995  10.305 -0.2718  0.2836  0.0863
 9625TIP3    H150290   4.630   1.991  10.249 -0.5927 -0.7225  0.5796
 9625TIP3    H250291   4.762   1.923  10.277 -0.1429  0.1592  0.6386
 9626TIP3   OH250292   1.831   6.177  15.941 -0.1464  0.3093  0.3544
 9626TIP3    H150293   1.777   6.220  16.006 -0.5321  0.4953 -0.0805
 9626TIP3    H250294   1.853   6.246  15.878 -0.4289 -0.0294 -0.1277
 9627TIP3   OH250295   5.978   3.627   1.667 -0.0473  0.2813 -0.6198
 9627TIP3    H150296   5.947   3.562   1.729 -0.2863 -0.3501 -1.3927
 9627TIP3    H250297   6.035   3.579   1.608 -1.0939  0.5218 -1.8736
 9628TIP3   OH250298   0.272   3.569  17.160 -0.1355 -0.2675  0.0136
 9628TIP3    H150299   0.185   3.543  17.133 -0.8185  0.9415  0.9409
 9628TIP3    H250300   0.330   3.500  17.127 -1.7140 -2.5148  1.6826
 9629TIP3   OH250301   1.883   2.021  14.913  0.3168  0.0989  0.2337
 9629TIP3    H150302   1.817   2.024  14.843  1.2384  2.1434 -0.6512
 9629TIP3    H250303   1.833   2.034  14.993 -0.6386 -1.1609 -0.1198
 9630TIP3   OH250304   5.128   2.972  11.187  0.7076 -0.4394 -0.6924
 9630TIP3    H150305   5.156   3.042  11.128  1.0113 -0.0914 -0.1433
 9630TIP3    H250306   5.120   2.895  11.131  0.5304 -0.0066 -1.2751
 9631TIP3   OH250307   4.395   5.881   0.339  0.1778  0.2167  0.1604
 9631TIP3    H150308   4.383   5.830   0.419 -1.9332  1.0300  0.4096
 9631TIP3    H250309   4.458   5.949   0.363  0.7855 -0.4959  0.6425
 9632TIP3   OH250310   5.966   1.272  15.166  0.0444 -0.1876 -0.4056
 9632TIP3    H150311   5.967   1.363  15.137 -2.1391 -0.7042 -2.4637
 9632TIP3    H250312   6.057   1.244  15.160  0.5786  1.5143 -0.9214
 9633TIP3   OH250313   5.906   0.088  17.389  0.6030 -0.2159  0.2635
 9633TIP3    H150314   5.893   0.153  17.459  1.9679  0.6834 -0.2760
 9633TIP3    H250315   5.828   0.094  17.336  0.3155  0.3457  0.7385
 9634TIP3   OH250316   3.136   3.993  15.990 -0.0351 -0.5368 -0.0494
 9634TIP3    H150317   3.192   4.071  15.996  0.8724 -1.0633 -1.2633
 9634TIP3    H250318   3.145   3.964  15.899 -2.6494 -0.3921 -0.4114
 9635TIP3   OH250319   0.512   0.042   0.664  0.0669  0.2126 -1.0527
 9635TIP3    H150320   0.581   0.036   0.730 -1.0640 -0.6306  0.1005
 9635TIP3    H250321   0.557   0.071   0.585  1.3825  1.8005  0.1995
 9636TIP3   OH250322   5.209   2.168  16.574  0.3711 -0.3072 -0.3562
 9636TIP3    H150323   5.152   2.176  16.651 -0.5536  1.1114 -1.1611
 9636TIP3    H250324   5.229   2.074  16.570 -1.5569 -0.7901  0.2030
 9637TIP3   OH250325   2.349   2.710  12.387  0.0454 -0.0350 -0.1609
 9637TIP3    H150326   2.261   2.684  12.414 -0.1204 -0.7015 -1.3041
 9637TIP3    H250327   2.335   2.776  12.319  0.4335 -0.0855 -0.2923
 9638TIP3   OH250328   1.463   5.128   3.342  0.2159 -0.3033 -0.3457
 9638TIP3    H150329   1.464   5.224   3.346  0.5535 -0.3494  0.9289
 9638TIP3    H250330   1.408   5.101   3.415  2.1983 -1.1417  0.9087
 9639TIP3   OH250331   6.441   5.934   5.418  0.5285  0.8664  0.7850
 9639TIP3    H150332   6.515   5.881   5.387 -1.3121 -1.0630 -0.5899
 9639TIP3    H250333   6.451   6.017   5.373  0.7935 -0.0758 -0.9828
 9640TIP3   OH250334   4.517   1.015   5.889  0.2661  0.0541 -0.5907
 9640TIP3    H150335   4.449   1.081   5.898  0.5671  0.3175 -0.1879
 9640TIP3    H250336   4.583   1.039   5.955  0.1365 -0.9440 -0.0687
 9641TIP3   OH250337   4.784   1.735   4.831 -0.1653 -0.3163  0.4587
 9641TIP3    H150338   4.783   1.828   4.853 -0.1492 -0.2560  0.1997
 9641TIP3    H250339   4.725   1.727   4.757  0.5451 -0.3652 -0.1081
 9642TIP3   OH250340   5.204   0.315  17.414 -0.1610 -0.5577 -0.6476
 9642TIP3    H150341   5.177   0.275  17.331  2.3918 -1.9672 -0.8934
 9642TIP3    H250342   5.256   0.391  17.388  1.4836 -1.5722 -0.4083
 9643TIP3   OH250343   4.607   5.880   3.957 -0.3879 -0.7085 -0.0563
 9643TIP3    H150344   4.553   5.892   3.878  0.8749 -1.4104 -1.0659
 9643TIP3    H250345   4.552   5.912   4.028 -1.0919  1.2168 -1.3669
 9644TIP3   OH250346   2.719   4.434   1.607  0.0314  0.0896 -0.2949
 9644TIP3    H150347   2.737   4.368   1.541 -0.3653 -0.8118  0.4763
 9644TIP3    H250348   2.689   4.385   1.683 -1.4463  1.2408 -0.0890
 9645TIP3   OH250349   1.806   4.901  13.191  0.1394  0.1757  0.0519
 9645TIP3    H150350   1.901   4.896  13.183  0.1492  0.3055  0.0862
 9645TIP3    H250351   1.782   4.822  13.240  0.2449  0.2151  0.1681
 9646TIP3   OH250352   4.599   4.120  11.027  0.1061 -0.1392  0.4990
 9646TIP3    H150353   4.572   4.074  10.947  1.6165 -0.8054  0.3385
 9646TIP3    H250354   4.644   4.198  10.995  0.6352 -0.3623  0.7017
 9647TIP3   OH250355   2.552   2.975   4.328 -0.9239 -0.4231  0.3198
 9647TIP3    H150356   2.604   2.992   4.250  0.6968 -0.8114  1.2731
 9647TIP3    H250357   2.582   2.890   4.360 -2.9225 -1.1870  0.3251
 9648TIP3   OH250358   5.516   1.980   2.712 -0.2290 -0.9064 -0.4170
 9648TIP3    H150359   5.495   2.019   2.627  1.2183 -0.9389 -0.8104
 9648TIP3    H250360   5.610   1.964   2.709  0.4127  1.5183  2.1608
 9649TIP3   OH250361   2.398   0.288   1.210 -0.2795 -0.2755 -0.2798
 9649TIP3    H150362   2.470   0.227   1.226 -0.7312 -0.6808  0.2743
 9649TIP3    H250363   2.397   0.343   1.289 -0.8097 -0.5175 -0.1149
 9650TIP3   OH250364   0.068   2.026   4.032 -0.6234  0.3096  0.1960
 9650TIP3    H150365   0.006   1.957   4.009 -2.4810  1.8148  0.4309
 9650TIP3    H250366   0.135   2.023   3.963 -0.2822 -2.0963  0.5654
 9651TIP3   OH250367   2.479   4.319   2.749 -0.6623 -0.0528 -0.4372
 9651TIP3    H150368   2.563   4.273   2.754 -0.5453  0.2679  1.5254
 9651TIP3    H250369   2.414   4.252   2.768 -0.6526  0.1233  0.2682
 9652TIP3   OH250370   5.892   3.789   2.352 -0.7979  0.3537  0.3042
 9652TIP3    H150371   5.906   3.878   2.384  0.6235  0.8881 -1.6239
 9652TIP3    H250372   5.974   3.765   2.309 -0.7701 -2.3302  1.6505
 9653TIP3   OH250373   1.253   2.628  12.008 -0.1881 -0.3306 -0.6057
 9653TIP3    H150374   1.318   2.571  11.966  0.3316 -0.5934  0.4925
 9653TIP3    H250375   1.239   2.699  11.946  0.3292 -0.8542 -1.3372
 9654TIP3   OH250376   6.297   3.526  15.187  0.0486 -0.1926 -0.3720
 9654TIP3    H150377   6.232   3.519  15.118 -1.2290 -0.1401  0.7825
 9654TIP3    H250378   6.327   3.617  15.182 -0.7275  0.0737 -0.2609
 9655TIP3   OH250379   2.180   3.492   2.007 -0.7215 -1.1597  0.8401
 9655TIP3    H150380   2.225   3.576   1.992  0.5286 -1.9941 -0.2887
 9655TIP3    H250381   2.214   3.461   2.090 -0.7770 -0.8009  0.9983
 9656TIP3   OH250382   2.809   0.734   1.264 -0.0285  0.0177 -0.0214
 9656TIP3    H150383   2.878   0.790   1.299 -1.4777  0.5068  2.2848
 9656TIP3    H250384   2.788   0.771   1.179  1.0367  1.2118  0.2140
 9657TIP3   OH250385   1.813   0.814   6.420  0.4033  0.1712  0.1197
 9657TIP3    H150386   1.821   0.730   6.374  1.7317  0.3156  0.0533
 9657TIP3    H250387   1.839   0.879   6.355  0.5270  0.5379  0.5306
 9658TIP3   OH250388   4.832   5.597   5.085 -0.3502  0.0212  0.1500
 9658TIP3    H150389   4.857   5.680   5.046 -1.7640  0.8646  0.9573
 9658TIP3    H250390   4.913   5.563   5.122  0.1323  1.3474  0.3695
 9659TIP3   OH250391   3.913   0.017   5.045  0.3368  0.1337  0.6002
 9659TIP3    H150392   3.933   0.062   5.127  0.4272  0.2627  0.5081
 9659TIP3    H250393   3.873   0.084   4.990  0.7261  0.1745  0.3638
 9660TIP3   OH250394   5.934   5.070   0.038 -0.3710 -0.2837 -0.6090
 9660TIP3    H150395   5.988   5.055   0.115 -1.7725 -0.0584  0.4648
 9660TIP3    H250396   5.882   4.990   0.030  1.1704 -1.1538 -2.5604
 9661TIP3   OH250397   2.478   4.237  12.963  0.9264 -0.2111  0.3099
 9661TIP3    H150398   2.527   4.229  13.045 -1.1058 -0.6552  1.5388
 9661TIP3    H250399   2.422   4.160  12.960 -0.1867  0.5965 -0.6975
 9662TIP3   OH250400   1.869   6.660  15.796  0.1928 -0.4548 -0.3045
 9662TIP3    H150401   1.823   6.693  15.874 -2.4462 -2.0824 -1.0451
 9662TIP3    H250402   1.897   6.739  15.750 -2.5051  0.7592 -0.0977
 9663TIP3   OH250403   4.513   3.347  10.684 -0.4213  0.7000  0.1388
 9663TIP3    H150404   4.604   3.316  10.688 -1.0546 -1.3986 -0.1248
 9663TIP3    H250405   4.504   3.382  10.596 -0.4595 -1.3586 -0.7510
 9664TIP3   OH250406   0.707   1.952  10.774  0.3257  0.1210  0.4976
 9664TIP3    H150407   0.625   1.961  10.725 -0.1704 -2.6473  0.6337
 9664TIP3    H250408   0.767   1.908  10.712  1.6790  1.8768  0.4844
 9665TIP3   OH250409   5.912   3.480  14.922 -0.0207  0.0689  0.2204
 9665TIP3    H150410   5.827   3.501  14.881  0.9013  0.8708 -1.3829
 9665TIP3    H250411   5.942   3.402  14.875  0.6312  0.4571 -0.0204
 9666TIP3   OH250412   6.460   2.502  16.841 -0.2996 -0.7276 -0.2219
 9666TIP3    H150413   6.425   2.476  16.756 -1.0002  2.0193 -0.8751
 9666TIP3    H250414   6.555   2.503  16.829 -0.4301  0.5848 -1.3300
 9667TIP3   OH250415   3.457   1.192   2.668  0.1025  0.1855  0.4027
 9667TIP3    H150416   3.469   1.267   2.609 -2.5079  1.7140  1.6234
 9667TIP3    H250417   3.421   1.123   2.613 -0.6954  1.0162 -0.1559
 9668TIP3   OH250418   0.984   3.534   2.542  0.0437 -0.3456 -0.1168
 9668TIP3    H150419   0.949   3.457   2.588  2.0155 -1.9356 -1.1080
 9668TIP3    H250420   1.078   3.532   2.560  0.5844  0.0985 -2.5320
 9669TIP3   OH250421   5.868   5.952  15.679 -0.0662  0.4625 -0.1975
 9669TIP3    H150422   5.924   5.878  15.703  1.1741  1.7194  1.0057
 9669TIP3    H250423   5.779   5.920  15.689  0.4509 -0.8963  0.2055
 9670TIP3   OH250424   3.123   5.270   5.281 -0.0169  0.1156 -0.3866
 9670TIP3    H150425   3.044   5.282   5.227  0.3932  0.5655 -0.9092
 9670TIP3    H250426   3.179   5.344   5.256 -0.1480  0.8066  1.2625
 9671TIP3   OH250427   3.820   5.217   4.725 -0.2519 -0.0648 -0.0536
 9671TIP3    H150428   3.825   5.293   4.784 -0.9262 -0.4802  0.5625
 9671TIP3    H250429   3.825   5.141   4.783 -0.1116 -0.4929 -0.6164
 9672TIP3   OH250430   5.740   5.396  16.525 -0.4696  0.4644 -0.4757
 9672TIP3    H150431   5.832   5.377  16.546 -0.6540  1.1612  1.1114
 9672TIP3    H250432   5.745   5.460  16.454  0.3109  0.9468 -0.0103
 9673TIP3   OH250433   5.493   5.042   4.866  0.2534  0.8708 -0.2948
 9673TIP3    H150434   5.410   5.027   4.819 -0.3917  1.2613  0.6992
 9673TIP3    H250435   5.468   5.093   4.942  0.9839 -1.3368  1.5360
 9674TIP3   OH250436   3.688   3.066  11.856  0.3737 -1.0190 -0.0925
 9674TIP3    H150437   3.601   3.046  11.889  0.5175 -0.0435  0.9354
 9674TIP3    H250438   3.677   3.073  11.761 -0.4663 -1.8194 -0.0672
 9675TIP3   OH250439   1.084   1.968  15.503 -0.0782 -0.4713  0.5902
 9675TIP3    H150440   1.178   1.979  15.486 -0.5964  0.7241 -1.9498
 9675TIP3    H250441   1.066   2.030  15.574  1.0584 -0.8104  1.2083
 9676TIP3   OH250442   5.564   0.824   1.853  0.0863 -0.0614  0.0821
 9676TIP3    H150443   5.636   0.875   1.891 -1.5031  1.5810  1.0766
 9676TIP3    H250444   5.528   0.774   1.927 -0.2329 -0.3190 -0.2430
 9677TIP3   OH250445   3.031   6.355  14.930 -0.2220  0.2652  0.0268
 9677TIP3    H150446   3.104   6.300  14.904 -0.6016 -0.0951 -0.3024
 9677TIP3    H250447   3.024   6.420  14.861 -1.0075 -0.4778 -0.6272
 9678TIP3   OH250448   0.987   2.712  17.191 -0.4025 -0.4248 -0.5615
 9678TIP3    H150449   1.005   2.661  17.270  0.7715 -0.4043 -0.8009
 9678TIP3    H250450   0.895   2.738  17.200  0.0544  0.7528  1.4887
 9679TIP3   OH250451   2.361   5.738  12.588 -0.2873 -0.0190  0.1863
 9679TIP3    H150452   2.278   5.762  12.546 -0.8191 -1.1391  0.5660
 9679TIP3    H250453   2.364   5.643  12.583  0.9522 -0.0024  0.2464
 9680TIP3   OH250454   6.034   1.311  10.714  0.6500 -0.1584 -0.2885
 9680TIP3    H150455   6.049   1.343  10.803  0.6150 -0.1903 -0.2708
 9680TIP3    H250456   5.945   1.340  10.692  0.9678  0.5854 -0.6318
 9681TIP3   OH250457   0.699   0.366   3.574  0.1385 -0.2579  0.0534
 9681TIP3    H150458   0.697   0.278   3.537 -3.4504 -0.3273  0.0259
 9681TIP3    H250459   0.724   0.422   3.500 -0.9790 -0.9811 -0.9129
 9682TIP3   OH250460   3.874   0.909   3.787 -0.0863 -0.2142  0.1745
 9682TIP3    H150461   3.802   0.972   3.792 -1.8991 -1.5821 -3.9566
 9682TIP3    H250462   3.841   0.832   3.833 -0.0472  0.1138  0.7551
 9683TIP3   OH250463   1.561   1.074   4.333 -0.2362 -0.0446  0.1749
 9683TIP3    H150464   1.603   1.160   4.332  0.9829 -0.5727  1.5902
 9683TIP3    H250465   1.469   1.092   4.312 -0.0347  1.6160  0.5575
 9684TIP3   OH250466   5.194   5.245  13.302 -0.6885  1.1017 -0.1090
 9684TIP3    H150467   5.234   5.320  13.346  0.3524  0.2207  0.5011
 9684TIP3    H250468   5.118   5.224  13.356  0.5163  0.0990  1.2655
 9685TIP3   OH250469   2.416   3.476  12.790  0.1976 -0.1357 -0.2240
 9685TIP3    H150470   2.493   3.491  12.845 -0.0024 -1.3169  0.4052
 9685TIP3    H250471   2.377   3.563  12.779  1.2658  0.3849 -0.0367
 9686TIP3   OH250472   1.586   1.941  10.364 -0.6881  0.5116  0.2173
 9686TIP3    H150473   1.563   2.031  10.338 -1.2929 -0.0870 -1.4807
 9686TIP3    H250474   1.504   1.905  10.398 -1.7888 -0.7383 -3.2666
 9687TIP3   OH250475   3.019   1.561   4.392 -0.5902  0.3783  0.3812
 9687TIP3    H150476   2.956   1.620   4.434 -0.3071  1.5054 -0.7160
 9687TIP3    H250477   3.087   1.549   4.458 -1.2563  0.2713  1.0680
 9688TIP3   OH250478   1.873   1.610  13.593 -0.5147  0.1619 -0.2339
 9688TIP3    H150479   1.784   1.641  13.608  0.1453  1.7804  0.5644
 9688TIP3    H250480   1.890   1.632  13.501 -0.6875  0.4761 -0.1906
 9689TIP3   OH250481   5.827   6.490   2.989 -0.1008 -0.4300  0.4255
 9689TIP3    H150482   5.871   6.547   2.926  1.0488 -0.3088  1.3137
 9689TIP3    H250483   5.868   6.510   3.073  0.0719 -2.2737  0.8344
 9690TIP3   OH250484   6.370   1.253   0.889  0.0597  0.2194 -0.1027
 9690TIP3    H150485   6.349   1.321   0.953  1.3644  0.2213  0.3524
 9690TIP3    H250486   6.343   1.171   0.932  2.2531  0.0633  1.1425
 9691TIP3   OH250487   5.872   6.073  11.661 -0.3595  0.4599 -0.0454
 9691TIP3    H150488   5.954   6.023  11.656 -0.0205  1.1050 -1.7069
 9691TIP3    H250489   5.810   6.011  11.699  1.0822  0.2703  2.1892
 9692TIP3   OH250490   5.208   2.923   1.647 -0.1828  0.6664  0.2309
 9692TIP3    H150491   5.130   2.869   1.637 -0.4991  1.0072  0.7683
 9692TIP3    H250492   5.235   2.945   1.558 -0.5991  0.3977  0.0390
 9693TIP3   OH250493   5.435   6.179  11.797  0.1794  0.1802  0.0165
 9693TIP3    H150494   5.477   6.147  11.877  0.1393  1.2759  0.4966
 9693TIP3    H250495   5.466   6.269  11.788  1.1126 -0.2996 -1.8719
 9694TIP3   OH250496   1.053   6.742   0.711 -0.2373 -0.7368 -0.1057
 9694TIP3    H150497   1.141   6.777   0.720 -0.7855  0.7742 -0.3431
 9694TIP3    H250498   0.996   6.819   0.714 -1.3848 -1.4078 -2.4178
 9695TIP3   OH250499   6.501   3.675  13.230 -0.3634  0.2598  0.2768
 9695TIP3    H150500   6.584   3.690  13.186 -0.3215 -1.3243 -0.2689
 9695TIP3    H250501   6.441   3.647  13.161 -1.4694  1.7133  0.6052
 9696TIP3   OH250502   4.169   0.996  14.943 -0.5796 -0.3872 -0.2449
 9696TIP3    H150503   4.253   0.968  14.907  0.0792 -1.1788  1.7594
 9696TIP3    H250504   4.157   1.085  14.910  0.1945 -0.8530 -1.9173
 9697TIP3   OH250505   2.027   0.688  16.377 -0.1627 -0.6223 -0.0419
 9697TIP3    H150506   2.005   0.764  16.431  0.6141 -0.4253  0.0079
 9697TIP3    H250507   1.976   0.616  16.414  1.6089 -0.8935  2.0695
 9698TIP3   OH250508   0.914   6.221  15.615 -0.2039 -0.1400  0.5483
 9698TIP3    H150509   0.917   6.221  15.520  0.1978  0.3402  0.5596
 9698TIP3    H250510   1.006   6.223  15.642 -0.2981 -0.8656  0.9482
 9699TIP3   OH250511   4.543   6.094   2.589 -0.1226 -0.0266 -0.0352
 9699TIP3    H150512   4.592   6.114   2.668 -0.6736  3.5483 -0.4118
 9699TIP3    H250513   4.606   6.053   2.530  0.8600 -0.6762  1.4330
 9700TIP3   OH250514   1.474   5.078   2.000 -0.1224  0.8160 -0.5026
 9700TIP3    H150515   1.506   5.167   2.014  0.4899  0.5002  0.1977
 9700TIP3    H250516   1.550   5.030   1.968 -0.0233  0.1854  0.6347
 9701TIP3   OH250517   6.479   0.385  11.142  0.1203  0.2500 -0.2586
 9701TIP3    H150518   6.481   0.325  11.066  0.1648  2.3682 -2.0350
 9701TIP3    H250519   6.387   0.409  11.150 -0.2598 -1.6316  1.8468
 9702TIP3   OH250520   1.478   6.150  11.756 -0.1145 -0.3550 -0.0677
 9702TIP3    H150521   1.563   6.186  11.781 -1.0248  0.6890  1.6952
 9702TIP3    H250522   1.430   6.224  11.719 -0.8645 -0.5156  0.5585
 9703TIP3   OH250523   2.215   4.253  13.024  0.2544 -0.0011 -0.3431
 9703TIP3    H150524   2.222   4.190  12.953 -0.6779  1.4947 -1.8402
 9703TIP3    H250525   2.287   4.315  13.008  0.1984  0.2035  0.1743
 9704TIP3   OH250526   1.318   1.132  11.878  0.5643 -0.1173  0.4758
 9704TIP3    H150527   1.349   1.079  11.951  1.3837 -0.4849 -0.1281
 9704TIP3    H250528   1.346   1.221  11.899  0.1881 -0.1050  0.9372
 9705TIP3   OH250529   5.981   3.277  16.153  0.2013  0.4353 -0.3941
 9705TIP3    H150530   6.026   3.247  16.232  0.6730 -0.4928 -1.0066
 9705TIP3    H250531   5.889   3.279  16.178  0.3747  0.4670  0.2785
 9706TIP3   OH250532   2.678   0.912   5.550  0.0647 -0.1675 -0.1492
 9706TIP3    H150533   2.707   0.821   5.543 -1.4152 -0.6838  0.1784
 9706TIP3    H250534   2.585   0.910   5.529 -0.0808  1.2190  0.2362
 9707TIP3   OH250535   1.033   3.265  14.336 -0.3548  0.1885  0.2761
 9707TIP3    H150536   1.031   3.312  14.252 -2.7385 -0.2055  0.0420
 9707TIP3    H250537   1.123   3.235  14.344  0.9898  3.6516 -0.1524
 9708TIP3   OH250538   2.598   5.940  15.053  0.1606 -0.4637 -0.2186
 9708TIP3    H150539   2.544   5.867  15.023  2.0533 -1.7754 -0.6032
 9708TIP3    H250540   2.600   5.930  15.148  0.4106 -0.9162 -0.2689
 9709TIP3   OH250541   3.417   3.615   5.420 -0.6302  0.1340  0.1527
 9709TIP3    H150542   3.481   3.546   5.436 -2.8078 -1.6101  2.1487
 9709TIP3    H250543   3.391   3.644   5.507 -2.2278  1.0549 -0.5820
 9710TIP3   OH250544   5.905   1.131  14.106  0.1243  0.6778 -0.2697
 9710TIP3    H150545   5.848   1.075  14.053  0.9150 -0.6554  0.2493
 9710TIP3    H250546   5.989   1.087  14.107  0.9984  2.2585 -0.4132
 9711TIP3   OH250547   4.667   2.680  13.700  0.0352  0.6207 -0.0583
 9711TIP3    H150548   4.648   2.702  13.791 -1.6856 -1.0800  0.0455
 9711TIP3    H250549   4.664   2.764  13.654 -1.3573  1.2475  1.0976
 9712TIP3   OH250550   1.307   4.463  13.556  0.2429 -0.0325 -0.0657
 9712TIP3    H150551   1.274   4.552  13.569  1.7665  0.4149  1.1090
 9712TIP3    H250552   1.280   4.439  13.468 -0.9187  1.2681 -0.0860
 9713TIP3   OH250553   0.739   1.060   1.378 -0.2601 -0.2704 -0.3848
 9713TIP3    H150554   0.798   1.133   1.394 -1.3756  0.2190  1.9709
 9713TIP3    H250555   0.667   1.097   1.327  0.7058 -0.5397 -2.0122
 9714TIP3   OH250556   4.404   6.172  16.035  0.9645 -0.2368 -0.3630
 9714TIP3    H150557   4.363   6.108  16.092 -1.4089 -0.1953 -1.9068
 9714TIP3    H250558   4.400   6.133  15.948  0.1057  1.6556 -1.2246
 9715TIP3   OH250559   3.845   2.749   4.057 -0.5080 -0.4029  0.0148
 9715TIP3    H150560   3.795   2.722   3.980 -1.8706 -1.4090  1.1958
 9715TIP3    H250561   3.898   2.672   4.080  1.3105  0.4901 -0.9354
 9716TIP3   OH250562   0.524   2.167   5.633  0.0738 -0.2798 -0.1289
 9716TIP3    H150563   0.433   2.166   5.604 -0.1567  0.7008  0.4926
 9716TIP3    H250564   0.533   2.251   5.678  1.4866 -0.0406 -0.8101
 9717TIP3   OH250565   6.266   0.732   5.952 -0.2370 -0.4052  0.5238
 9717TIP3    H150566   6.203   0.696   5.890  0.2609  0.3097 -0.4286
 9717TIP3    H250567   6.266   0.670   6.025 -2.6538  0.0184  0.9572
 9718TIP3   OH250568   4.668   5.731  15.824  0.0199 -0.2028 -0.1883
 9718TIP3    H150569   4.577   5.744  15.798  0.3612  1.9440 -0.4865
 9718TIP3    H250570   4.698   5.658  15.771 -1.2789 -0.3683 -0.7239
 9719TIP3   OH250571   1.924   0.927  12.611  1.1596  0.3410  0.3539
 9719TIP3    H150572   1.927   1.022  12.598 -0.5467  0.1555 -2.2139
 9719TIP3    H250573   1.966   0.891  12.533  1.8288 -1.0291  1.3169
 9720TIP3   OH250574   3.342   6.585  14.845  0.0869  0.2020 -0.5711
 9720TIP3    H150575   3.419   6.590  14.788 -0.2403 -0.0806 -1.0428
 9720TIP3    H250576   3.273   6.550  14.789 -0.4577  0.7097 -0.2254
 9721TIP3   OH250577   4.565   5.488   2.186 -0.2774 -0.1584 -0.5568
 9721TIP3    H150578   4.586   5.553   2.253 -2.1683 -0.7454  0.6854
 9721TIP3    H250579   4.566   5.538   2.104  2.3174  0.5217 -0.1905
 9722TIP3   OH250580   4.553   1.614   3.135  0.4188  0.4281  0.0012
 9722TIP3    H150581   4.583   1.636   3.047  1.6984  0.2065  0.3587
 9722TIP3    H250582   4.458   1.623   3.132  0.2682 -1.2326 -1.8817
 9723TIP3   OH250583   0.950   0.826  14.407  0.5034  0.3203 -0.0813
 9723TIP3    H150584   0.941   0.921  14.419  1.6428  0.5003 -0.5390
 9723TIP3    H250585   0.870   0.790  14.446  0.4630  1.4010  0.9131
 9724TIP3   OH250586   1.725   5.286  11.627  0.2956 -0.2229  0.5216
 9724TIP3    H150587   1.639   5.252  11.651 -1.1454  3.0057  0.3399
 9724TIP3    H250588   1.724   5.290  11.532  0.8326 -0.5158  0.4960
 9725TIP3   OH250589   1.846   5.312   4.819 -0.3111  0.1995  0.6735
 9725TIP3    H150590   1.874   5.228   4.782  0.8422  0.4357  0.9814
 9725TIP3    H250591   1.830   5.368   4.743 -1.2685 -0.3388  0.4600
 9726TIP3   OH250592   4.999   2.797   1.855 -0.4455 -0.4142 -0.1512
 9726TIP3    H150593   5.052   2.761   1.785  0.3743 -1.5348  1.0056
 9726TIP3    H250594   5.041   2.881   1.877 -0.8244  0.0360 -1.1017
 9727TIP3   OH250595   4.763   3.437  14.157 -0.4350  0.2420 -0.1907
 9727TIP3    H150596   4.795   3.516  14.199  0.7024 -0.2160 -0.1563
 9727TIP3    H250597   4.836   3.408  14.101 -1.6633  0.5080 -2.0388
 9728TIP3   OH250598   0.163   3.596  13.057 -0.2659 -0.0050  0.0220
 9728TIP3    H150599   0.246   3.624  13.095 -0.7950  0.6561  0.7289
 9728TIP3    H250600   0.172   3.612  12.963  1.5531 -2.8812 -0.3957
 9729TIP3   OH250601   5.039   5.983   3.779  0.3131 -0.2622  0.7102
 9729TIP3    H150602   5.018   6.025   3.862 -2.7131  0.6075 -0.3685
 9729TIP3    H250603   5.038   5.889   3.798 -1.0153 -0.1032  1.5501
 9730TIP3   OH250604   3.697   3.603  17.108 -0.2859 -0.8369  0.0090
 9730TIP3    H150605   3.631   3.667  17.079  1.1687  1.0487  0.6702
 9730TIP3    H250606   3.748   3.583  17.030  0.6945  0.6308  0.2443
 9731TIP3   OH250607   6.663   0.498  16.378 -0.2075 -0.2434  0.1766
 9731TIP3    H150608   6.659   0.460  16.290 -0.2544  1.0542 -0.4095
 9731TIP3    H250609   6.737   0.455  16.419  1.6638  1.1584 -1.5329
 9732TIP3   OH250610   4.768   3.136   0.442 -0.5669  0.5093  0.5298
 9732TIP3    H150611   4.813   3.161   0.523 -2.4054  0.5060  1.6113
 9732TIP3    H250612   4.696   3.199   0.434 -0.9659 -0.0696 -0.5940
 9733TIP3   OH250613   0.009   4.381   3.080 -0.0473 -0.1056  0.3289
 9733TIP3    H150614  -0.078   4.418   3.066  0.7703  2.0840  0.5649
 9733TIP3    H250615   0.003   4.335   3.163 -1.2900 -1.0767 -0.2779
 9734TIP3   OH250616   0.613   2.698   3.333 -0.1093 -0.0934  0.0416
 9734TIP3    H150617   0.690   2.755   3.328  0.4675 -0.9557 -2.5892
 9734TIP3    H250618   0.639   2.620   3.283 -2.4951 -0.6420 -0.4288
 9735TIP3   OH250619   1.889   0.897   4.352  0.4994 -0.0818  0.0010
 9735TIP3    H150620   1.860   0.939   4.271  3.3514  0.0985 -1.0375
 9735TIP3    H250621   1.970   0.943   4.376 -0.5634  0.3282  3.3763
 9736TIP3   OH250622   5.590   6.515  12.572  0.2703  0.0065 -0.1813
 9736TIP3    H150623   5.625   6.501  12.660  1.8355 -0.7701 -0.8872
 9736TIP3    H250624   5.496   6.528  12.585  0.5026  0.0814  1.6119
 9737TIP3   OH250625   5.869   0.073  12.063 -0.1377  0.1159  0.2645
 9737TIP3    H150626   5.792   0.059  12.008 -0.7793 -2.6544  1.6850
 9737TIP3    H250627   5.834   0.107  12.145  0.4067  0.8002  0.2226
 9738TIP3   OH250628   5.494   2.869   2.958  0.3201 -0.2928  0.5088
 9738TIP3    H150629   5.421   2.842   3.013  0.0459  0.4461  0.5234
 9738TIP3    H250630   5.571   2.864   3.016  0.3808 -1.5744  0.3470
 9739TIP3   OH250631   3.502   4.254   0.515 -0.1951 -0.4465  0.2776
 9739TIP3    H150632   3.567   4.277   0.582 -1.0651 -2.2869  1.8404
 9739TIP3    H250633   3.525   4.309   0.440  2.4863 -0.2329  1.1386
 9740TIP3   OH250634   2.560   4.286  16.227 -0.3168  0.3843 -0.1287
 9740TIP3    H150635   2.529   4.198  16.251  0.0408  0.6740  1.4996
 9740TIP3    H250636   2.528   4.342  16.297 -1.4256  1.7717 -1.6604
 9741TIP3   OH250637   6.709   2.164   3.057 -0.3255  0.1398 -0.3114
 9741TIP3    H150638   6.799   2.130   3.061 -0.4060  0.0171  1.4362
 9741TIP3    H250639   6.713   2.247   3.104 -1.1419  0.1023 -0.1702
 9742TIP3   OH250640   1.986   5.901  13.956 -0.1622  0.2041 -0.3944
 9742TIP3    H150641   2.074   5.863  13.957  0.2619  1.1505 -0.1109
 9742TIP3    H250642   1.998   5.987  13.917 -0.7760  0.7760  0.6298
 9743TIP3   OH250643   2.565   5.013   4.392 -0.1281  0.2865 -0.6389
 9743TIP3    H150644   2.553   5.029   4.298  2.2146 -0.6247 -1.1745
 9743TIP3    H250645   2.649   5.054   4.413  0.1701 -0.8854  0.6689
 9744TIP3   OH250646   3.695   0.811   2.693  0.1093 -0.9016  0.1281
 9744TIP3    H150647   3.635   0.749   2.652 -0.6956 -0.9773  1.3466
 9744TIP3    H250648   3.730   0.764   2.769  0.4529 -0.2873  0.3628
 9745TIP3   OH250649   3.986   2.039  10.064  0.1887  0.2137 -0.7434
 9745TIP3    H150650   4.061   2.009  10.116 -0.2791  0.4696  0.0948
 9745TIP3    H250651   3.967   1.965  10.006  0.7131 -0.0880 -0.5409
 9746TIP3   OH250652   6.093   4.240  12.693  0.0355  0.5295  0.2884
 9746TIP3    H150653   6.066   4.331  12.680 -0.3269  0.4282  0.3209
 9746TIP3    H250654   6.092   4.227  12.788 -0.0532  0.4482  0.2757
 9747TIP3   OH250655   6.376   2.180  15.259 -0.4059 -0.2910  0.2636
 9747TIP3    H150656   6.328   2.141  15.332  0.3679  0.8246  1.4117
 9747TIP3    H250657   6.427   2.251  15.299  2.6738 -1.7540 -0.7445
 9748TIP3   OH250658   1.613   6.007  16.096 -0.6768 -0.1760 -0.6041
 9748TIP3    H150659   1.592   6.023  16.004  0.4215 -1.3662 -1.0950
 9748TIP3    H250660   1.675   6.077  16.118 -2.6640  1.5191 -0.0313
 9749TIP3   OH250661   6.606   4.589   0.641  0.6342 -0.1795  0.0201
 9749TIP3    H150662   6.620   4.680   0.666  1.3625 -0.4394  0.5946
 9749TIP3    H250663   6.599   4.591   0.546 -1.7371  0.7789  0.1316
 9750TIP3   OH250664   1.171   2.886   0.824 -0.2611  0.1032 -0.2446
 9750TIP3    H150665   1.235   2.826   0.787  0.8739 -0.0468  1.8231
 9750TIP3    H250666   1.088   2.838   0.821  0.0751 -0.4538 -1.1560
 9751TIP3   OH250667   5.076   5.185  14.599 -0.3955 -0.3495 -0.6416
 9751TIP3    H150668   5.000   5.239  14.623  0.5434  1.0212 -0.6552
 9751TIP3    H250669   5.141   5.248  14.568  0.9198 -1.4571 -0.2111
 9752TIP3   OH250670   6.040   0.341   0.229  0.3729 -0.2732 -0.4306
 9752TIP3    H150671   6.045   0.271   0.294  1.7191 -1.5926 -1.8623
 9752TIP3    H250672   5.952   0.333   0.191 -0.2668  0.2398  0.8754
 9753TIP3   OH250673   6.644   2.182   1.878 -0.2762 -0.2197 -0.9907
 9753TIP3    H150674   6.660   2.220   1.792  0.5719  0.6804 -0.4406
 9753TIP3    H250675   6.554   2.149   1.872 -1.6443  3.1422 -1.0410
 9754TIP3   OH250676   2.895   2.929  17.385 -0.1145 -0.6401 -0.0267
 9754TIP3    H150677   2.826   2.995  17.390  0.0248 -0.4452 -0.5886
 9754TIP3    H250678   2.851   2.850  17.355 -0.1821 -0.6591  0.1201
 9755TIP3   OH250679   3.657   5.039   5.389 -0.0961  0.4557 -0.1368
 9755TIP3    H150680   3.609   5.112   5.428  0.9725  1.0620  0.0825
 9755TIP3    H250681   3.747   5.050   5.421  0.0670 -1.0192 -0.0114
 9756TIP3   OH250682   0.190   0.585   4.235  0.2157 -0.3470 -0.0739
 9756TIP3    H150683   0.097   0.568   4.252 -0.7062  2.4133 -1.7691
 9756TIP3    H250684   0.231   0.577   4.321 -2.1841  1.5912  1.4050
 9757TIP3   OH250685   1.476   3.713  15.174 -0.0576 -0.0093  0.3647
 9757TIP3    H150686   1.556   3.707  15.122  0.2915 -0.2307  0.9177
 9757TIP3    H250687   1.430   3.791  15.140  0.0409 -0.2912 -0.4301
 9758TIP3   OH250688   3.514   1.549  10.523  0.0152  0.5912 -0.2667
 9758TIP3    H150689   3.582   1.566  10.458  0.9811 -0.2238  0.4904
 9758TIP3    H250690   3.474   1.467  10.495 -0.7122  1.1158 -0.7592
 9759TIP3   OH250691   0.980   0.634   3.619  0.1354 -0.6977  0.0618
 9759TIP3    H150692   1.040   0.671   3.684 -0.3348  0.8023 -0.2973
 9759TIP3    H250693   1.001   0.680   3.538 -2.1088  0.6557  0.1343
 9760TIP3   OH250694   3.407   6.127  14.444  0.1061 -0.0173 -0.1837
 9760TIP3    H150695   3.415   6.046  14.393  0.2335 -0.3005  0.2726
 9760TIP3    H250696   3.440   6.195  14.386 -0.9566 -0.1334 -0.9521
 9761TIP3   OH250697   5.662   6.339  11.405 -0.5931  0.3240  0.0708
 9761TIP3    H150698   5.582   6.364  11.359 -0.6274 -0.8018 -0.5112
 9761TIP3    H250699   5.728   6.399  11.372 -0.8638  0.2537 -0.6178
 9762TIP3   OH250700   3.491   6.744   1.795 -0.2861  0.1975  0.5291
 9762TIP3    H150701   3.430   6.809   1.759 -0.0746 -0.9297 -2.1330
 9762TIP3    H250702   3.451   6.717   1.877 -2.2184  1.1292 -0.0340
 9763TIP3   OH250703   2.816   3.700  12.738 -0.0322  0.2043  0.3436
 9763TIP3    H150704   2.824   3.631  12.672 -3.0055  0.9088 -0.9484
 9763TIP3    H250705   2.743   3.672  12.793 -0.1245  1.4655  0.9017
 9764TIP3   OH250706   5.643   1.245  12.476  0.4684 -0.3419  0.2694
 9764TIP3    H150707   5.607   1.271  12.391 -1.4103 -0.6847  0.9273
 9764TIP3    H250708   5.675   1.156  12.462 -0.3710 -0.6187  0.0620
 9765TIP3   OH250709   2.589   6.482   4.278  0.3103  0.4783  0.1987
 9765TIP3    H150710   2.646   6.409   4.300  0.0541  0.1494 -0.2245
 9765TIP3    H250711   2.648   6.555   4.261  0.7911 -0.4193 -2.4946
 9766TIP3   OH250712   2.697   0.789  16.388  0.1278  0.2085 -0.8820
 9766TIP3    H150713   2.665   0.770  16.476  1.5035 -1.2783 -0.6533
 9766TIP3    H250714   2.622   0.829  16.343 -0.8788  0.1580  0.6824
 9767TIP3   OH250715   2.900   0.700   3.114 -0.0356  0.8892  0.3554
 9767TIP3    H150716   2.826   0.742   3.158 -0.2761 -0.6487  1.5043
 9767TIP3    H250717   2.920   0.624   3.168  1.2719  0.2978 -0.8897
 9768TIP3   OH250718   0.621   5.058  15.472  0.0709 -0.2169 -0.2839
 9768TIP3    H150719   0.688   5.012  15.420  0.4819 -0.5049  0.4893
 9768TIP3    H250720   0.576   4.988  15.519 -2.1451 -0.2679 -2.2766
 9769TIP3   OH250721   5.073   2.187  15.217  0.1385 -0.1299 -0.0798
 9769TIP3    H150722   5.139   2.233  15.166  0.5086 -1.4282 -0.8034
 9769TIP3    H250723   5.123   2.129  15.275 -0.3437 -0.4602  0.0183
 9770TIP3   OH250724   5.689   2.346  17.047  0.4274 -0.1430 -0.0961
 9770TIP3    H150725   5.710   2.428  17.002  0.5296 -0.0038  0.2072
 9770TIP3    H250726   5.740   2.280  17.001 -0.3637 -0.1812 -0.9412
 9771TIP3   OH250727   0.149   6.672   1.888 -0.3460  0.2252 -0.4561
 9771TIP3    H150728   0.142   6.606   1.819 -1.3345  0.1481 -0.2945
 9771TIP3    H250729   0.233   6.655   1.929 -1.4150 -2.2936  0.9364
 9772TIP3   OH250730   4.760   4.816  17.310 -0.2244  0.7006 -0.0122
 9772TIP3    H150731   4.782   4.838  17.401  0.0584  0.0577  0.0836
 9772TIP3    H250732   4.669   4.785  17.314  0.5589 -1.7496  0.5021
 9773TIP3   OH250733   4.322   6.651   0.432 -0.3919 -0.4460 -0.0927
 9773TIP3    H150734   4.230   6.669   0.411  0.1832  1.4707 -1.2356
 9773TIP3    H250735   4.334   6.559   0.411 -1.9469 -0.6393 -0.2833
 9774TIP3   OH250736   2.296   1.214  10.906 -0.2326  0.2258  0.1265
 9774TIP3    H150737   2.387   1.231  10.930  0.0704 -2.8418  1.6110
 9774TIP3    H250738   2.302   1.167  10.823 -0.6548  1.6431 -0.7496
 9775TIP3   OH250739   4.214   4.563   3.942 -0.4089 -0.2607 -1.0440
 9775TIP3    H150740   4.213   4.575   4.037 -1.1079  0.3269 -1.1135
 9775TIP3    H250741   4.227   4.651   3.907  1.5179 -0.6740 -1.4820
 9776TIP3   OH250742   2.232   6.660  12.461 -0.8160  0.2268  0.0921
 9776TIP3    H150743   2.174   6.592  12.495 -0.2734  0.5653  1.7466
 9776TIP3    H250744   2.276   6.696  12.538  2.0121 -0.3700 -1.1045
 9777TIP3   OH250745   1.934   1.674   6.165 -0.2160 -0.7163 -0.4191
 9777TIP3    H150746   1.959   1.677   6.073  2.1380  0.6883  0.1832
 9777TIP3    H250747   1.945   1.764   6.195 -1.5050 -1.0316  1.1249
 9778TIP3   OH250748   0.102   4.470   1.780  0.0707 -0.6994 -0.3424
 9778TIP3    H150749   0.048   4.529   1.728 -1.1962  0.6273  2.3032
 9778TIP3    H250750   0.045   4.443   1.853  1.5118 -3.0182  0.0310
 9779TIP3   OH250751   5.577   1.750   5.938  0.5124  0.0596 -0.2006
 9779TIP3    H150752   5.507   1.702   5.981  0.9729  1.2776  2.0224
 9779TIP3    H250753   5.658   1.713   5.974  0.9020  1.3967  0.3562
 9780TIP3   OH250754   2.463   3.342  15.998 -0.0550 -0.3220 -0.3951
 9780TIP3    H150755   2.413   3.374  16.072  1.7449 -2.1982  1.7844
 9780TIP3    H250756   2.502   3.421  15.960 -0.1746  0.6253  1.3459
 9781TIP3   OH250757   6.679   2.267   3.706  0.9295  0.2138  0.1436
 9781TIP3    H150758   6.655   2.350   3.747 -0.1306 -0.0190  0.0100
 9781TIP3    H250759   6.726   2.293   3.626  0.0916  0.6971 -0.2057
 9782TIP3   OH250760   3.534   2.579  14.762 -0.1064 -0.5715  0.1730
 9782TIP3    H150761   3.498   2.507  14.709 -1.1424 -0.5243  0.7662
 9782TIP3    H250762   3.458   2.635  14.779  0.3327 -0.2597  1.1629
 9783TIP3   OH250763   4.423   4.544   5.795  0.4637 -0.2986  0.0993
 9783TIP3    H150764   4.517   4.536   5.809  0.3746  0.4334  1.3095
 9783TIP3    H250765   4.386   4.544   5.883 -0.5489  0.7261 -0.2956
 9784TIP3   OH250766   4.572   2.362   3.860  0.3474 -0.1913 -1.0468
 9784TIP3    H150767   4.667   2.358   3.871  0.6153  3.0373 -1.2283
 9784TIP3    H250768   4.540   2.389   3.945 -0.3039 -0.2179 -1.2814
 9785TIP3   OH250769   0.535   3.917   1.258  1.1528  0.4344 -0.3468
 9785TIP3    H150770   0.494   4.002   1.238  0.3342  0.3695  0.9696
 9785TIP3    H250771   0.615   3.940   1.305  0.5704  0.4940  0.6544
 9786TIP3   OH250772   4.841   5.178  16.163  0.1127 -0.7265  0.1288
 9786TIP3    H150773   4.838   5.181  16.067  0.0439  1.1134  0.1527
 9786TIP3    H250774   4.931   5.153  16.183  0.4064 -0.1470 -0.4267
 9787TIP3   OH250775   2.586   4.512   5.236  0.2895  0.6002  0.4958
 9787TIP3    H150776   2.607   4.436   5.291 -0.3922  0.0776  0.0497
 9787TIP3    H250777   2.540   4.475   5.161  1.8309  1.2356 -0.7951
 9788TIP3   OH250778   0.095   1.747  14.548 -0.4624 -0.3732 -0.1038
 9788TIP3    H150779   0.105   1.822  14.607 -0.1670  0.2006 -0.8718
 9788TIP3    H250780   0.033   1.776  14.482  2.4262  0.6147 -2.6107
 9789TIP3   OH250781   6.089   6.542  16.283  0.3582  0.4291 -0.0461
 9789TIP3    H150782   6.103   6.483  16.209  1.6896 -0.4518  0.8562
 9789TIP3    H250783   6.022   6.499  16.336  0.0004  0.6483 -0.3200
 9790TIP3   OH250784   5.467   6.488   4.711  0.1039  0.3094 -0.3001
 9790TIP3    H150785   5.544   6.493   4.653  1.1125  1.1756  1.0436
 9790TIP3    H250786   5.430   6.576   4.708 -0.9909 -0.1595 -1.1018
 9791TIP3   OH250787   3.189   6.256  14.560 -0.3817 -0.2750 -0.1700
 9791TIP3    H150788   3.241   6.234  14.483 -0.0355  0.2994 -0.1030
 9791TIP3    H250789   3.245   6.314  14.612 -0.7187 -0.4275  0.3783
 9792TIP3   OH250790   6.646   1.807  13.329 -0.3946  0.1461  0.1426
 9792TIP3    H150791   6.561   1.820  13.288 -0.9097 -0.2369  1.0480
 9792TIP3    H250792   6.628   1.810  13.423  0.3666 -1.1521  0.3668
 9793TIP3   OH250793   6.502   2.468  12.475 -0.3470  0.3447 -0.0186
 9793TIP3    H150794   6.411   2.454  12.448 -0.1861  1.7286 -1.4023
 9793TIP3    H250795   6.499   2.547  12.529  0.1591  1.1178 -1.0762
 9794TIP3   OH250796   6.475   4.953   1.453  0.1912  0.2386  0.1229
 9794TIP3    H150797   6.554   4.989   1.412  1.7045  1.3947  3.6084
 9794TIP3    H250798   6.502   4.935   1.543 -3.5854  0.9009  1.5581
 9795TIP3   OH250799   4.880   3.622  16.484 -0.0742 -0.5377 -0.1489
 9795TIP3    H150800   4.958   3.646  16.433  1.1647 -0.5039  1.6682
 9795TIP3    H250801   4.838   3.706  16.504 -1.0322 -0.5921 -1.7095
 9796TIP3   OH250802   0.111   3.901   1.821  0.5019  0.3899 -0.5026
 9796TIP3    H150803   0.022   3.932   1.836  0.5779  0.8330 -0.9147
 9796TIP3    H250804   0.108   3.865   1.732  0.5748 -0.1903 -0.2679
 9797TIP3   OH250805   3.069   6.174   5.965  0.6419  0.0882  0.3401
 9797TIP3    H150806   3.155   6.214   5.952  0.8795 -0.9407 -1.6074
 9797TIP3    H250807   3.077   6.125   6.047  1.4554  1.0971  0.8793
 9798TIP3   OH250808   2.441   5.062  15.793 -0.3491  0.3093  0.0230
 9798TIP3    H150809   2.408   5.010  15.721  0.2156 -0.0498  0.0182
 9798TIP3    H250810   2.526   5.023  15.814 -0.8033 -0.0256  1.3267
 9799TIP3   OH250811   5.392   0.387   4.434 -0.0206 -0.0771 -0.5052
 9799TIP3    H150812   5.367   0.429   4.352 -0.8714  0.7758  0.1667
 9799TIP3    H250813   5.418   0.459   4.492 -2.3522 -0.2902  0.9645
 9800TIP3   OH250814   1.153   1.620  14.204  0.0088  0.0687  0.6949
 9800TIP3    H150815   1.061   1.632  14.178  0.1211 -0.6586 -0.0825
 9800TIP3    H250816   1.200   1.609  14.122  0.4597 -1.7886  1.1555
 9801TIP3   OH250817   2.266   1.378   2.594  0.2420  0.3040  0.2331
 9801TIP3    H150818   2.302   1.312   2.534  0.1196  0.6094 -0.1811
 9801TIP3    H250819   2.184   1.406   2.552  0.1257  0.4807  0.5747
 9802TIP3   OH250820   0.200   4.747   2.969  0.2877 -0.3447 -0.5596
 9802TIP3    H150821   0.191   4.734   3.063 -3.1402 -1.8171 -0.9558
 9802TIP3    H250822   0.238   4.666   2.937  1.0389 -0.0144 -0.5306
 9803TIP3   OH250823   6.710   4.048   5.188  0.5765  0.1890  0.3572
 9803TIP3    H150824   6.698   3.979   5.123  3.1058 -2.8383  2.7206
 9803TIP3    H250825   6.761   4.115   5.143 -1.6237  0.4606 -1.9283
 9804TIP3   OH250826   4.381   3.484  12.843 -0.3492  0.0176  0.1212
 9804TIP3    H150827   4.322   3.559  12.854  0.1883  0.3461  0.8559
 9804TIP3    H250828   4.325   3.408  12.853 -0.7931  0.3222  0.0046
 9805TIP3   OH250829   4.103   1.759   3.784 -0.0311 -0.2691 -0.4046
 9805TIP3    H150830   4.019   1.797   3.810  0.4508 -0.4645  1.5238
 9805TIP3    H250831   4.096   1.667   3.806  0.5664 -0.3535 -0.5446
 9806TIP3   OH250832   6.126   2.668  14.096  0.0314 -0.5038  0.0696
 9806TIP3    H150833   6.195   2.606  14.122  0.2591 -1.1625 -1.9768
 9806TIP3    H250834   6.166   2.754  14.106  0.8045 -0.8323 -0.1196
 9807TIP3   OH250835   6.248   6.568  15.271  0.4729 -0.3090  0.2995
 9807TIP3    H150836   6.338   6.537  15.274  0.5920 -0.1289 -0.9245
 9807TIP3    H250837   6.202   6.503  15.218 -0.2961 -0.7881  1.5092
 9808TIP3   OH250838   3.986   0.881   0.651  0.2548 -0.0419  0.2721
 9808TIP3    H150839   4.017   0.830   0.577 -0.5380 -1.5114  0.9249
 9808TIP3    H250840   4.012   0.831   0.728  0.6648  1.2308  1.0045
 9809TIP3   OH250841   3.215   4.804   1.905 -0.4001  0.6500 -0.2399
 9809TIP3    H150842   3.191   4.712   1.899  1.5435  0.1442 -1.0973
 9809TIP3    H250843   3.153   4.849   1.848 -0.8171 -0.2488 -0.5123
 9810TIP3   OH250844   0.869   5.297  15.429 -0.8637 -0.0372  0.2420
 9810TIP3    H150845   0.813   5.282  15.353 -1.2570 -1.0787  0.7252
 9810TIP3    H250846   0.808   5.305  15.503 -0.4046 -1.0847  0.7604
 9811TIP3   OH250847   0.926   1.900  14.243  0.1163 -0.2752 -0.2926
 9811TIP3    H150848   0.838   1.868  14.225  0.3171 -0.8019 -0.3533
 9811TIP3    H250849   0.959   1.927  14.157  0.3613 -0.9718 -0.4221
 9812TIP3   OH250850   5.339   0.145   1.789 -0.4723  0.5934 -0.1298
 9812TIP3    H150851   5.348   0.066   1.735  1.6962  0.3250  0.5190
 9812TIP3    H250852   5.358   0.217   1.730  1.4202  0.3295  0.0926
 9813TIP3   OH250853   4.153   3.699   0.256 -0.3908 -0.3094  0.5017
 9813TIP3    H150854   4.088   3.635   0.286 -0.9053  0.3286  0.7882
 9813TIP3    H250855   4.104   3.757   0.197  0.5912 -1.5280 -1.6581
 9814TIP3   OH250856   2.246   3.299   5.907 -0.3296 -0.0789  0.1165
 9814TIP3    H150857   2.227   3.214   5.946 -1.2884  0.2981  0.5051
 9814TIP3    H250858   2.197   3.361   5.961 -1.1480  0.5230 -1.2800
 9815TIP3   OH250859   0.740   4.548   3.606  0.2166 -0.0338 -0.1616
 9815TIP3    H150860   0.792   4.556   3.525 -0.5728 -0.5259 -0.7313
 9815TIP3    H250861   0.649   4.544   3.576 -0.3996  3.0350  0.9435
 9816TIP3   OH250862   4.423   2.921  17.105 -0.3647  0.0420  0.2231
 9816TIP3    H150863   4.344   2.955  17.146 -1.5851 -0.9935 -1.1715
 9816TIP3    H250864   4.400   2.833  17.076  0.9420  0.1172 -1.2005
 9817TIP3   OH250865   2.281   2.190   3.025  0.1786  0.1447 -0.1492
 9817TIP3    H150866   2.335   2.255   3.070  0.8003 -0.5561  0.1205
 9817TIP3    H250867   2.214   2.166   3.089 -0.7489  1.3357 -0.6308
 9818TIP3   OH250868   5.079   3.026   4.302  0.3953 -0.0742 -0.0904
 9818TIP3    H150869   4.984   3.027   4.319  0.2315 -1.3572 -0.8146
 9818TIP3    H250870   5.112   3.101   4.352 -1.0718  0.7666 -0.2915
 9819TIP3   OH250871   5.345   2.502  15.010  0.4949  0.1501  0.1036
 9819TIP3    H150872   5.377   2.526  14.923  0.6713  0.8728  0.3680
 9819TIP3    H250873   5.291   2.576  15.038  0.5325 -0.0257  0.6608
 9820TIP3   OH250874   3.164   6.292   5.175  0.2542  0.1728 -0.1297
 9820TIP3    H150875   3.216   6.307   5.254 -0.2401  0.2447  0.1892
 9820TIP3    H250876   3.099   6.226   5.201 -0.9076  1.3119 -0.0021
 9821TIP3   OH250877   3.384   3.899   3.429  0.5191  0.7319 -0.1634
 9821TIP3    H150878   3.391   3.932   3.340 -2.3541  0.8117 -0.4383
 9821TIP3    H250879   3.412   3.808   3.423  0.4387  0.7648 -1.1350
 9822TIP3   OH250880   3.259   3.331  16.981 -0.3507 -0.0647 -0.4852
 9822TIP3    H150881   3.305   3.398  17.031 -0.1378 -0.8077  0.3325
 9822TIP3    H250882   3.251   3.368  16.893 -1.0750  1.4333  0.1735
 9823TIP3   OH250883   4.510   1.009   0.864  0.2415 -0.1785 -0.2345
 9823TIP3    H150884   4.440   1.026   0.801  1.0716  0.2712 -1.0573
 9823TIP3    H250885   4.569   1.083   0.855 -0.5905  0.9566  2.5027
 9824TIP3   OH250886   3.063   5.026   5.868  0.4031  0.0605 -0.3162
 9824TIP3    H150887   3.097   4.951   5.820 -0.3709 -0.6326  0.1862
 9824TIP3    H250888   3.038   4.990   5.954  3.4447  1.5614  1.3776
 9825TIP3   OH250889   4.874   6.232  11.808  0.0844 -0.2695 -0.1003
 9825TIP3    H150890   4.886   6.268  11.720  3.7161 -0.2366  0.2461
 9825TIP3    H250891   4.866   6.138  11.795 -0.3977 -0.1750 -0.5108
 9826TIP3   OH250892   2.019   3.959  15.180  0.9304 -0.4069  0.4011
 9826TIP3    H150893   2.069   3.908  15.117  0.0468  0.2092 -0.8352
 9826TIP3    H250894   1.979   3.893  15.237 -2.0568 -1.4282 -2.5310
 9827TIP3   OH250895   0.359   3.197  13.144 -0.2775 -0.3228 -0.4975
 9827TIP3    H150896   0.324   3.122  13.096 -1.1018 -0.1013 -0.2514
 9827TIP3    H250897   0.287   3.227  13.199  0.2850  0.1739 -0.0102
 9828TIP3   OH250898   1.135   5.738   4.642 -0.4824  0.3366  0.0796
 9828TIP3    H150899   1.147   5.700   4.555 -0.6726 -1.9212  0.9771
 9828TIP3    H250900   1.125   5.832   4.626 -2.3371 -0.1994 -2.4996
 9829TIP3   OH250901   3.065   1.835   0.003 -0.5764  0.1101 -0.1890
 9829TIP3    H150902   2.980   1.876   0.014 -0.2435  0.9915 -0.7921
 9829TIP3    H250903   3.101   1.876  -0.076  0.8420  0.4993  0.6306
 9830TIP3   OH250904   5.128   5.427  14.235  0.3547 -0.4600  0.4212
 9830TIP3    H150905   5.184   5.349  14.237  1.0024 -0.0108  0.3233
 9830TIP3    H250906   5.076   5.417  14.156  1.6294 -0.0012 -0.5218
 9831TIP3   OH250907   3.398   1.477  16.428 -0.3852  0.0395  0.1931
 9831TIP3    H150908   3.350   1.559  16.428  0.2450  0.4110  0.3089
 9831TIP3    H250909   3.330   1.409  16.431 -0.9244  0.5389 -0.6010
 9832TIP3   OH250910   5.465   1.579   1.329  0.0205  0.0260 -0.5241
 9832TIP3    H150911   5.529   1.626   1.275  0.0513 -0.4129 -0.8792
 9832TIP3    H250912   5.389   1.568   1.271 -0.6927  1.2336  0.1411
 9833TIP3   OH250913   5.332   3.721  15.194  0.2154  0.3475 -0.4580
 9833TIP3    H150914   5.362   3.642  15.239 -0.0065 -1.1105 -2.7175
 9833TIP3    H250915   5.361   3.793  15.250  1.4161 -1.2709  1.1183
 9834TIP3   OH250916   0.362   0.098   4.584  0.0993  0.5653  0.3603
 9834TIP3    H150917   0.378   0.008   4.557 -0.9311  0.6921 -0.7388
 9834TIP3    H250918   0.367   0.096   4.680 -1.7632 -1.0470  0.4720
 9835TIP3   OH250919   2.130   2.135  14.010  0.2694  0.1546  0.5268
 9835TIP3    H150920   2.083   2.054  14.030 -1.2279  1.5949  3.5361
 9835TIP3    H250921   2.068   2.187  13.960  0.9313 -0.1654 -0.6793
 9836TIP3   OH250922   5.823   1.753  15.348  0.1386 -0.3449 -0.3755
 9836TIP3    H150923   5.730   1.770  15.359  0.1510 -1.5190  2.4920
 9836TIP3    H250924   5.867   1.821  15.399  0.7524 -0.7318 -0.3635
 9837TIP3   OH250925   0.556   2.645  16.783 -0.0340 -0.0032  0.2037
 9837TIP3    H150926   0.463   2.632  16.802 -0.1011  0.7146  0.3921
 9837TIP3    H250927   0.600   2.571  16.826 -0.4631 -0.0230  0.6192
 9838TIP3   OH250928   0.522   0.311   1.572 -0.0947 -0.2887 -0.6967
 9838TIP3    H150929   0.449   0.261   1.609 -0.1205 -0.8474 -1.4825
 9838TIP3    H250930   0.549   0.262   1.495 -0.1638  0.9338 -1.5432
 9839TIP3   OH250931   0.948   0.700  14.955 -0.2917 -0.2113  0.5134
 9839TIP3    H150932   1.020   0.646  14.989  1.7768  0.4847 -2.4081
 9839TIP3    H250933   0.935   0.670  14.866 -2.0599  1.2685  0.2187
 9840TIP3   OH250934   4.956   1.224   0.508 -0.2672 -0.1021 -0.0924
 9840TIP3    H150935   4.992   1.178   0.584  1.0214  1.2938  0.2001
 9840TIP3    H250936   4.947   1.156   0.441  1.0701 -0.8798  0.4777
 9841TIP3   OH250937   1.404   2.597   1.749 -0.4017  0.5126 -0.1525
 9841TIP3    H150938   1.399   2.685   1.711  0.5497 -0.6561 -3.3456
 9841TIP3    H250939   1.416   2.540   1.673  3.9851 -1.9178  2.0049
 9842TIP3   OH250940   6.527   2.713   3.440 -0.1235  0.0595  0.1484
 9842TIP3    H150941   6.621   2.721   3.426 -0.1158  2.0060  0.9841
 9842TIP3    H250942   6.502   2.796   3.480 -2.0437 -0.8027  0.8367
 9843TIP3   OH250943   5.696   1.214  16.149 -0.5463  0.1791  0.0100
 9843TIP3    H150944   5.723   1.166  16.071  2.8601  1.2041  0.3607
 9843TIP3    H250945   5.771   1.206  16.209 -1.0995  3.1924  1.3073
 9844TIP3   OH250946   4.042   0.015  10.800  0.2390  0.0027 -0.0929
 9844TIP3    H150947   4.007   0.068  10.871 -1.0716 -2.8694  1.5430
 9844TIP3    H250948   3.976   0.021  10.731  0.5211  1.1135 -0.2914
 9845TIP3   OH250949   1.704   2.109   3.872 -0.2562 -0.3664  0.3251
 9845TIP3    H150950   1.750   2.099   3.955  2.1966 -0.4241 -0.9430
 9845TIP3    H250951   1.754   2.175   3.825 -0.7588 -1.2937 -1.6272
 9846TIP3   OH250952   2.834   5.367   2.067  0.2990  0.0443  0.6056
 9846TIP3    H150953   2.918   5.338   2.104  0.3255 -0.7590 -0.0606
 9846TIP3    H250954   2.811   5.444   2.118  1.2023 -0.0183  1.1290
 9847TIP3   OH250955   4.308   0.060   5.005  0.6500  0.3245 -0.0570
 9847TIP3    H150956   4.396   0.085   4.976  1.2301 -0.9968  0.4815
 9847TIP3    H250957   4.323   0.002   5.080 -0.6437 -0.8810 -0.6914
 9848TIP3   OH250958   5.600   5.593   3.011 -0.1934 -0.2702 -0.1509
 9848TIP3    H150959   5.688   5.578   3.046  0.7707  0.1420 -2.2420
 9848TIP3    H250960   5.542   5.575   3.084  1.6674  0.2375  1.5385
 9849TIP3   OH250961   3.804   3.309  15.189  0.8839  0.2384  0.2941
 9849TIP3    H150962   3.794   3.386  15.245  1.9345  1.0656 -0.6055
 9849TIP3    H250963   3.895   3.311  15.160  0.9921 -1.4782  0.4068
 9850TIP3   OH250964   1.806   3.528   4.727 -0.0435 -0.7440  0.1365
 9850TIP3    H150965   1.867   3.454   4.734  1.3636  0.4267  0.5490
 9850TIP3    H250966   1.860   3.602   4.699 -1.2782  0.3431  0.5213
 9851TIP3   OH250967   2.957   4.372   0.484  0.4555  0.6075  0.1538
 9851TIP3    H150968   3.002   4.375   0.569  0.0379  3.4108  0.3891
 9851TIP3    H250969   2.991   4.447   0.436 -1.1457  0.5444 -1.1756
 9852TIP3   OH250970   2.983   2.978  11.695 -0.6512  0.0602 -1.1806
 9852TIP3    H150971   3.001   3.070  11.710 -1.9494 -0.0687  2.0015
 9852TIP3    H250972   3.069   2.938  11.685  0.0743  1.2938 -0.1709
 9853TIP3   OH250973   1.050   3.284   1.928  0.2849  0.2458 -0.2267
 9853TIP3    H150974   1.005   3.297   2.012  0.6691 -0.5027  0.1061
 9853TIP3    H250975   0.983   3.246   1.871  0.7243 -1.9359  0.6016
 9854TIP3   OH250976   1.778   0.214  16.021  0.3335 -0.1390 -0.6280
 9854TIP3    H150977   1.764   0.290  16.078 -3.5690 -0.9668 -0.2239
 9854TIP3    H250978   1.768   0.248  15.932  1.3503  0.2528 -0.6056
 9855TIP3   OH250979   4.783   3.005  12.133  0.5849 -0.0031 -0.6862
 9855TIP3    H150980   4.855   2.960  12.088 -0.5849 -1.1073 -1.5010
 9855TIP3    H250981   4.753   2.943  12.199  0.2410  0.3768 -0.4814
 9856TIP3   OH250982   3.883   5.327  11.615 -0.2298  0.0033 -0.3690
 9856TIP3    H150983   3.860   5.253  11.671  2.5098 -1.6060 -1.2184
 9856TIP3    H250984   3.860   5.299  11.527  0.6173  0.2365 -0.6745
 9857TIP3   OH250985   2.531   5.279   2.731 -0.2904 -0.0505  0.0465
 9857TIP3    H150986   2.541   5.327   2.813 -1.7257 -0.9472  0.7910
 9857TIP3    H250987   2.440   5.248   2.733 -0.1064 -0.7523 -1.5237
 9858TIP3   OH250988   2.302   4.919  16.340 -0.4569 -0.5254  0.5904
 9858TIP3    H150989   2.344   4.994  16.299 -0.1820 -0.2122  1.4209
 9858TIP3    H250990   2.353   4.904  16.420  0.0361 -2.1442  0.0189
 9859TIP3   OH250991   1.435   1.064  13.181  0.0371  0.2129 -0.0752
 9859TIP3    H150992   1.379   1.010  13.237  0.0562  0.1604 -0.1067
 9859TIP3    H250993   1.522   1.027  13.192  0.1545  0.6150  0.3709
 9860TIP3   OH250994   1.959   6.418   0.802 -0.1797  0.0961 -0.1432
 9860TIP3    H150995   1.993   6.329   0.806 -2.5988 -1.0376 -2.0063
 9860TIP3    H250996   2.030   6.470   0.765  0.6652 -1.4354 -0.7628
 9861TIP3   OH250997   5.068   2.764  12.368 -0.4121 -0.4070 -0.2523
 9861TIP3    H150998   5.059   2.791  12.277  1.4948 -1.0680 -0.6660
 9861TIP3    H250999   5.116   2.835  12.410 -0.0134 -0.7526 -0.1149
 9862TIP3   OH251000   5.780   5.368   3.846 -0.5145 -0.5643 -0.2769
 9862TIP3    H151001   5.711   5.389   3.909 -0.4084  0.4928 -0.4954
 9862TIP3    H251002   5.862   5.386   3.892 -0.4441  2.1612 -1.2913
 9863TIP3   OH251003   3.973   0.217   5.274  0.1291 -0.1721 -0.0801
 9863TIP3    H151004   3.985   0.303   5.233 -0.2871 -0.4060 -0.7210
 9863TIP3    H251005   3.915   0.233   5.348 -1.7083 -0.1945 -1.4382
 9864TIP3   OH251006   4.460   5.543  15.588 -0.0899 -0.1564  0.2483
 9864TIP3    H151007   4.387   5.494  15.551  1.6502 -2.4167 -0.4403
 9864TIP3    H251008   4.486   5.493  15.665  1.5606 -0.2064 -0.3024
 9865TIP3   OH251009   3.991   2.207  12.931 -0.1571 -0.1448  0.0738
 9865TIP3    H151010   3.983   2.113  12.943  0.2628 -0.2321 -0.2858
 9865TIP3    H251011   3.911   2.244  12.968  0.1256 -0.5558  1.1254
 9866TIP3   OH251012   0.465   6.405  15.944 -0.3156  0.3535  0.1507
 9866TIP3    H151013   0.560   6.394  15.944 -0.1437  1.5578 -1.1156
 9866TIP3    H251014   0.451   6.490  15.902 -1.9797 -0.1060 -0.2999
 9867TIP3   OH251015   5.032   2.509  14.851  0.1336  0.6348  0.5798
 9867TIP3    H151016   4.997   2.584  14.898 -1.0219  1.8017 -1.9982
 9867TIP3    H251017   4.971   2.438  14.871 -0.9967  1.4076 -0.0199
 9868TIP3   OH251018   6.439   4.088  14.839 -0.3532  0.3625  0.2618
 9868TIP3    H151019   6.500   4.015  14.831 -1.1157 -0.0963 -2.0670
 9868TIP3    H251020   6.493   4.166  14.827  0.0203  0.0229 -0.3159
 9869TIP3   OH251021   0.574   5.237   5.045 -0.2428 -0.2574  0.4845
 9869TIP3    H151022   0.614   5.184   4.976  2.0289  0.3006  1.2816
 9869TIP3    H251023   0.534   5.311   4.999 -1.1790 -1.3080 -0.4251
 9870TIP3   OH251024   0.636   6.612   3.822 -0.3482  0.5498 -0.1668
 9870TIP3    H151025   0.617   6.584   3.911 -1.0982  1.1104 -0.1418
 9870TIP3    H251026   0.713   6.561   3.797 -1.4120 -1.2512  0.0227
 9871TIP3   OH251027   2.076   0.609  14.596  0.3363  0.6857 -0.4162
 9871TIP3    H151028   2.090   0.678  14.661  1.8710  1.5306 -1.5542
 9871TIP3    H251029   2.165   0.584  14.568 -0.2542  0.2603 -2.0495
 9872TIP3   OH251030   4.774   2.020   4.877 -0.0258 -0.0321  0.1992
 9872TIP3    H151031   4.761   2.080   4.951 -0.6280  0.9855 -0.7071
 9872TIP3    H251032   4.840   2.063   4.822  1.5991 -1.5158  0.8738
 9873TIP3   OH251033   3.689   5.596   4.906  0.1975 -0.1745 -0.1337
 9873TIP3    H151034   3.700   5.686   4.875  0.1691 -0.0317  0.2579
 9873TIP3    H251035   3.598   5.592   4.937 -0.5042 -0.9852 -2.1861
 9874TIP3   OH251036   0.859   6.262   0.841 -0.7482 -0.3051 -0.0121
 9874TIP3    H151037   0.883   6.176   0.805  0.0882  0.0565 -0.3258
 9874TIP3    H251038   0.932   6.319   0.819 -0.4571  0.0652  1.7722
 9875TIP3   OH251039   1.593   5.314  15.289  0.2698 -0.1135  0.2798
 9875TIP3    H151040   1.635   5.231  15.312  1.1763  0.6029  1.2611
 9875TIP3    H251041   1.504   5.289  15.263  0.1755 -1.2731  1.6261
 9876TIP3   OH251042   3.977   0.563  14.530 -0.5635 -0.6335 -0.3192
 9876TIP3    H151043   3.918   0.510  14.583 -0.2245 -0.3044  0.3998
 9876TIP3    H251044   3.957   0.653  14.555  2.5266 -0.5625  2.5348
 9877TIP3   OH251045   1.922   4.426   3.553  0.1093 -0.7934  0.0962
 9877TIP3    H151046   1.845   4.447   3.501  0.6064 -0.2883 -0.4626
 9877TIP3    H251047   1.970   4.362   3.500  0.8936  0.1341 -0.3431
 9878TIP3   OH251048   4.842   5.118  17.183  0.5384 -0.0104 -0.2850
 9878TIP3    H151049   4.791   5.049  17.141  0.9522 -1.0821  0.9321
 9878TIP3    H251050   4.921   5.126  17.130  0.4508 -0.4100 -0.4749
 9879TIP3   OH251051   0.367   0.459   2.956 -0.0086  0.0921 -0.4858
 9879TIP3    H151052   0.276   0.428   2.948  0.3859 -1.1748 -0.2805
 9879TIP3    H251053   0.375   0.486   3.047  0.0872 -0.6790 -0.2650
 9880TIP3   OH251054   0.384   2.152   4.452  0.0475 -0.3102  0.5877
 9880TIP3    H151055   0.327   2.086   4.411 -0.6394  0.0024  1.0318
 9880TIP3    H251056   0.453   2.167   4.387 -1.6224  0.9970 -0.9827
 9881TIP3   OH251057   6.099   5.754  15.112 -0.3495 -1.0136  0.5725
 9881TIP3    H151058   6.142   5.670  15.100  2.9625  0.6911 -0.7351
 9881TIP3    H251059   6.119   5.778  15.203 -0.3813 -1.1655  0.6202
 9882TIP3   OH251060   1.263   3.414  15.940 -0.0352  0.2613  0.0791
 9882TIP3    H151061   1.214   3.462  16.008  0.5963  0.6709  0.2566
 9882TIP3    H251062   1.204   3.413  15.864 -0.5888  0.1489  0.5066
 9883TIP3   OH251063   2.851   1.803   2.962  0.0427  0.2847 -0.0433
 9883TIP3    H151064   2.896   1.784   3.044  1.1900 -1.9341 -1.1153
 9883TIP3    H251065   2.878   1.733   2.902 -2.6448  0.4468 -1.6041
 9884TIP3   OH251066   0.398   4.209   3.926 -0.5993  0.0743  0.4241
 9884TIP3    H151067   0.317   4.218   3.978 -0.1530  0.3975  1.0871
 9884TIP3    H251068   0.422   4.299   3.904 -0.5721 -0.0393 -0.0179
 9885TIP3   OH251069   4.441   5.561  16.110 -0.2576  0.4626  0.2196
 9885TIP3    H151070   4.499   5.490  16.085 -1.3983 -0.9718  1.4620
 9885TIP3    H251071   4.382   5.573  16.036 -0.3402 -0.1965  0.1776
 9886TIP3   OH251072   6.233   2.125   2.032 -0.5184 -0.1133  0.2773
 9886TIP3    H151073   6.269   2.173   2.107 -0.3769 -0.6562  0.5634
 9886TIP3    H251074   6.177   2.057   2.071 -2.4986  1.1829 -0.1700
 9887TIP3   OH251075   6.350   6.024   4.717  0.8844 -0.2429 -0.0958
 9887TIP3    H151076   6.428   5.974   4.691  0.8443 -0.9104  0.9959
 9887TIP3    H251077   6.350   6.021   4.812 -0.3129  0.0085 -0.0696
 9888TIP3   OH251078   5.907   2.226   4.695 -0.2692  0.2059  0.5308
 9888TIP3    H151079   5.928   2.139   4.660  1.3904  1.1974 -1.1382
 9888TIP3    H251080   5.975   2.243   4.760  1.2343  1.3693 -1.2458
 9889TIP3   OH251081   2.640   0.289   0.505  0.1549  0.1054  0.6534
 9889TIP3    H151082   2.578   0.229   0.545 -1.2508  1.3182  0.3702
 9889TIP3    H251083   2.701   0.311   0.576  0.6819 -1.5933  0.7643
 9890TIP3   OH251084   2.774   1.458  11.666  0.2580  0.1733 -0.0454
 9890TIP3    H151085   2.725   1.377  11.649  0.1845 -0.1542  1.5811
 9890TIP3    H251086   2.716   1.509  11.723  0.9081  0.7381  0.1230
 9891TIP3   OH251087   4.479   1.490   5.652  0.3509  0.3681 -0.7911
 9891TIP3    H151088   4.575   1.483   5.652  0.3042 -1.3459  1.1760
 9891TIP3    H251089   4.461   1.568   5.704  0.6950 -0.3256  0.4032
 9892TIP3   OH251090   3.700   6.384   3.087 -0.2921 -0.4369  0.3151
 9892TIP3    H151091   3.607   6.389   3.106 -0.3466 -0.8470  0.1619
 9892TIP3    H251092   3.737   6.462   3.129 -0.5205 -0.9287  1.4742
 9893TIP3   OH251093   2.917   6.311  11.554 -0.5322  0.1825 -0.8194
 9893TIP3    H151094   2.978   6.278  11.621  0.2855  2.0124 -0.6132
 9893TIP3    H251095   2.837   6.260  11.568  0.5476 -1.4699 -0.3296
 9894TIP3   OH251096   2.688   5.373  15.396 -0.3637  0.7286  0.6133
 9894TIP3    H151097   2.740   5.343  15.471 -0.5644  2.8474  1.6806
 9894TIP3    H251098   2.660   5.461  15.420 -2.4990  0.5617 -0.9236
 9895TIP3   OH251099   2.814   4.117   0.559  0.0737  0.9042  0.0403
 9895TIP3    H151100   2.906   4.141   0.567  0.3534 -0.4177  1.1482
 9895TIP3    H251101   2.778   4.128   0.647  0.3942 -3.1066  0.8655
 9896TIP3   OH251102   6.452   6.726  13.319 -0.1464 -0.2033  0.4822
 9896TIP3    H151103   6.440   6.791  13.250  2.5642  1.7485  1.6694
 9896TIP3    H251104   6.365   6.717  13.358 -1.0464  1.0569 -1.1133
 9897TIP3   OH251105   0.754   3.376  12.252 -0.6407 -0.0985  0.1798
 9897TIP3    H151106   0.738   3.340  12.339  1.0819 -0.1891  0.4999
 9897TIP3    H251107   0.778   3.300  12.199  3.3601  0.3807  0.9387
 9898TIP3   OH251108   0.661   3.466   3.287 -0.3580 -0.6805 -0.1334
 9898TIP3    H151109   0.747   3.465   3.329 -0.0782 -0.1435 -0.6779
 9898TIP3    H251110   0.680   3.453   3.193 -0.9170 -1.1512 -0.1887
 9899TIP3   OH251111   2.500   0.655   4.912 -0.0732  0.1927  0.1633
 9899TIP3    H151112   2.497   0.735   4.964  0.0059  0.7330 -0.6531
 9899TIP3    H251113   2.470   0.586   4.972  0.5720  0.7022  1.0969
 9900TIP3   OH251114   2.033   1.844  17.348  1.0692 -0.5638 -0.3091
 9900TIP3    H151115   2.110   1.799  17.381  0.6554 -2.9221 -2.2934
 9900TIP3    H251116   2.061   1.882  17.265  0.4026 -0.3897 -0.4627
 9901TIP3   OH251117   0.427   0.148  13.324  0.3529  0.0526 -0.3887
 9901TIP3    H151118   0.463   0.103  13.248 -0.0411  0.1064 -0.6075
 9901TIP3    H251119   0.424   0.080  13.392  1.0759  0.1015 -0.2946
 9902TIP3   OH251120   4.541   1.240   0.456 -0.6975  0.5055  0.2635
 9902TIP3    H151121   4.575   1.165   0.407 -1.2816  0.1783  0.3512
 9902TIP3    H251122   4.597   1.313   0.429 -0.5523  0.1807 -0.3433
 9903TIP3   OH251123   5.092   0.317   6.445 -0.0672 -0.6945 -0.0837
 9903TIP3    H151124   5.031   0.391   6.451  0.1739 -0.5429  0.6387
 9903TIP3    H251125   5.043   0.243   6.482  0.1319 -0.6039  0.3691
 9904TIP3   OH251126   4.885   4.932   2.781  0.5331 -0.2266 -0.4780
 9904TIP3    H151127   4.844   4.868   2.839  0.3040 -0.5553 -0.9915
 9904TIP3    H251128   4.907   4.882   2.702 -0.1051  0.4312 -1.0881
 9905TIP3   OH251129   2.735   5.843  14.218  0.1466  0.2687 -0.2730
 9905TIP3    H151130   2.795   5.776  14.251  1.4806  1.0879 -0.9674
 9905TIP3    H251131   2.673   5.856  14.290  2.2578  1.1374  1.5104
 9906TIP3   OH251132   3.723   5.316   0.336  0.1981  0.1724 -0.7193
 9906TIP3    H151133   3.804   5.273   0.312  0.8748 -0.1182  1.8214
 9906TIP3    H251134   3.746   5.409   0.343  0.0688  0.2224 -0.9450
 9907TIP3   OH251135   6.188   5.104  11.969 -0.7876  0.0923  0.5450
 9907TIP3    H151136   6.265   5.161  11.965 -0.3174 -0.5424  0.4757
 9907TIP3    H251137   6.145   5.115  11.885 -0.8766  0.5878  0.6524
 9908TIP3   OH251138   6.608   0.855  16.830  0.3327  0.7079  0.3906
 9908TIP3    H151139   6.666   0.896  16.766  1.2280  1.4921  1.6570
 9908TIP3    H251140   6.666   0.826  16.900 -0.5710 -0.6157  0.6316
 9909TIP3   OH251141   4.519   4.593  11.471 -0.6834 -0.2280 -0.4631
 9909TIP3    H151142   4.557   4.585  11.384 -1.2283 -0.8863 -0.6562
 9909TIP3    H251143   4.528   4.685  11.493  0.4148 -0.2488 -0.7683
 9910TIP3   OH251144   6.306   4.720  15.790  0.2310 -0.4628  0.4830
 9910TIP3    H151145   6.346   4.670  15.719 -1.2948  2.3150 -2.5910
 9910TIP3    H251146   6.223   4.675  15.807  0.1393 -0.5870 -0.2435
 9911TIP3   OH251147   0.314   1.037  14.435  0.2893 -0.1806  0.2380
 9911TIP3    H151148   0.239   1.070  14.484 -0.3618  0.4048 -1.1019
 9911TIP3    H251149   0.285   1.037  14.343  2.0998  0.5942 -0.3763
 9912TIP3   OH251150   5.923   2.842  13.334  0.0506  0.1026 -0.0137
 9912TIP3    H151151   5.838   2.886  13.328  1.0456  1.9624 -1.1204
 9912TIP3    H251152   5.902   2.756  13.373 -2.2538  0.6600  0.1389
 9913TIP3   OH251153   4.971   1.761  15.946 -0.3175 -0.0888 -0.0270
 9913TIP3    H151154   4.881   1.757  15.977 -0.0294  0.4020  0.9043
 9913TIP3    H251155   4.964   1.760  15.850 -1.4092  1.6097  0.0062
 9914TIP3   OH251156   1.293   1.677   5.853 -0.1044 -0.4745  0.2711
 9914TIP3    H151157   1.254   1.726   5.926 -0.2029 -0.2158  0.0438
 9914TIP3    H251158   1.332   1.744   5.797  0.3493 -0.7038  0.3037
 9915TIP3   OH251159   5.204   6.015   0.811 -0.7554 -0.4257 -0.1453
 9915TIP3    H151160   5.293   6.022   0.846 -0.7430 -0.4517 -0.1717
 9915TIP3    H251161   5.197   5.925   0.779 -0.7068 -0.3525 -0.3675
 9916TIP3   OH251162   1.259   6.342  14.169 -0.4087  0.4886 -0.4987
 9916TIP3    H151163   1.263   6.252  14.137 -0.3206 -0.4153  1.8518
 9916TIP3    H251164   1.232   6.334  14.261 -0.0137  2.8374 -0.1026
 9917TIP3   OH251165   3.991   3.203   3.343  0.5772  0.2100 -0.1489
 9917TIP3    H151166   3.897   3.218   3.341  0.6040  0.3275 -0.7340
 9917TIP3    H251167   4.008   3.145   3.268  0.7402 -1.1564  0.9145
 9918TIP3   OH251168   0.977   1.572   5.969  0.0420 -0.0329  0.8452
 9918TIP3    H151169   0.981   1.534   5.881  0.4565  0.7693  0.5076
 9918TIP3    H251170   1.068   1.574   5.998  0.0421  0.7853  0.8136
 9919TIP3   OH251171   6.556   3.120  15.867 -0.0646 -0.3342 -0.6693
 9919TIP3    H151172   6.498   3.142  15.794 -1.6333 -2.0830 -0.0479
 9919TIP3    H251173   6.536   3.186  15.934 -0.1829  0.0238 -1.0573
 9920TIP3   OH251174   4.190   2.399  14.512  0.4648 -0.3866  0.5706
 9920TIP3    H151175   4.230   2.374  14.596 -1.7568  0.3226  1.9478
 9920TIP3    H251176   4.108   2.351  14.509  0.0918  0.2840 -0.7917
 9921TIP3   OH251177   5.848   5.886   4.183 -0.2372  0.0677  0.6737
 9921TIP3    H151178   5.792   5.848   4.115  0.9439  1.0129 -0.9178
 9921TIP3    H251179   5.924   5.829   4.186  0.7833  1.2749 -0.5441
 9922TIP3   OH251180   1.723   1.400   1.280  0.3583  0.2045 -0.5853
 9922TIP3    H151181   1.671   1.371   1.205 -2.2218 -0.8122  1.4623
 9922TIP3    H251182   1.675   1.475   1.315  0.7116 -0.1927  0.8245
 9923TIP3   OH251183   5.488   6.702  14.912 -0.3219 -0.2325  0.3473
 9923TIP3    H151184   5.436   6.623  14.899 -0.2281 -0.3669  0.7928
 9923TIP3    H251185   5.433   6.759  14.965 -0.9495  0.5647 -1.0753
 9924TIP3   OH251186   6.291   1.709  12.224  0.2439 -0.3586 -0.1251
 9924TIP3    H151187   6.297   1.629  12.172  0.0341 -0.6196  0.2509
 9924TIP3    H251188   6.213   1.752  12.192  0.2481 -0.4008 -0.1929
 9925TIP3   OH251189   6.645   6.260   2.116 -0.2401  0.1170  0.0271
 9925TIP3    H151190   6.706   6.309   2.171  0.1646 -1.2647  0.8609
 9925TIP3    H251191   6.565   6.255   2.168  0.1081 -1.1015  0.4868
 9926TIP3   OH251192   6.391   6.598   5.844  0.1501 -0.2541 -0.8314
 9926TIP3    H151193   6.312   6.634   5.885 -1.3896 -1.7125 -2.3672
 9926TIP3    H251194   6.422   6.532   5.906  0.2036  0.3443 -0.2077
 9927TIP3   OH251195   1.733   3.687   5.884 -0.1016  0.6237  0.6833
 9927TIP3    H151196   1.708   3.594   5.881 -0.0676  0.6367 -0.3508
 9927TIP3    H251197   1.713   3.720   5.796 -2.0391  2.1071  1.6205
 9928TIP3   OH251198   0.146   1.407   1.271 -0.4878 -0.3710  0.0595
 9928TIP3    H151199   0.149   1.316   1.301 -0.4643 -0.6456 -0.7483
 9928TIP3    H251200   0.059   1.417   1.232 -1.3586  0.6169  2.1102
 9929TIP3   OH251201   4.680   1.758  11.505 -0.0179 -0.0430 -0.2586
 9929TIP3    H151202   4.633   1.836  11.532 -0.0027  0.7772 -2.3847
 9929TIP3    H251203   4.612   1.701  11.469  0.3186  0.2828 -1.4556
 9930TIP3   OH251204   1.493   1.723   3.982  0.0689  0.6604 -0.0661
 9930TIP3    H151205   1.509   1.630   3.968 -1.9623  0.0431  1.3183
 9930TIP3    H251206   1.567   1.753   4.034  0.0979 -0.5127  0.6047
 9931TIP3   OH251207   0.791   5.601  14.041  0.2377 -0.3667 -0.7794
 9931TIP3    H151208   0.716   5.655  14.066  0.3608 -0.1302 -0.9154
 9931TIP3    H251209   0.868   5.653  14.065  0.3615  0.0156 -1.9432
 9932TIP3   OH251210   0.703   2.492  13.142 -0.1395 -0.2162  0.6479
 9932TIP3    H151211   0.716   2.401  13.170  2.0063  0.4797  2.1921
 9932TIP3    H251212   0.650   2.531  13.211 -1.2443 -0.3089 -0.1224
 9933TIP3   OH251213   4.653   0.912  11.209  1.0112  0.4286 -0.0158
 9933TIP3    H151214   4.661   0.847  11.140  1.0512 -0.4043  0.7522
 9933TIP3    H251215   4.561   0.908  11.235  0.1591  2.9877 -2.1187
 9934TIP3   OH251216   6.460   0.581   5.117  0.3384  0.4308  0.3949
 9934TIP3    H151217   6.532   0.553   5.173 -1.0778 -2.4933  0.9584
 9934TIP3    H251218   6.390   0.606   5.179 -1.1905 -2.6973  0.1302
 9935TIP3   OH251219   5.064   2.910   3.069  0.6846 -0.1572 -0.1412
 9935TIP3    H151220   5.042   2.894   3.161  0.4513  0.4152 -0.0924
 9935TIP3    H251221   5.152   2.875   3.059  1.1342  0.7459  0.5797
 9936TIP3   OH251222   0.761   2.254  13.277  0.2538  0.6056 -0.2627
 9936TIP3    H151223   0.763   2.168  13.234 -1.9007  0.9789 -1.2690
 9936TIP3    H251224   0.699   2.242  13.349  0.3897  1.1785 -0.0503
 9937TIP3   OH251225   0.439   1.305   4.490  0.0282 -0.0283 -0.8902
 9937TIP3    H151226   0.449   1.245   4.416 -2.9488  1.5367 -2.7632
 9937TIP3    H251227   0.420   1.248   4.564 -1.7838 -1.5745 -2.4063
 9938TIP3   OH251228   1.034   0.909   4.135  0.2429 -0.2544  0.0712
 9938TIP3    H151229   1.012   0.945   4.050 -1.1357  0.8428  0.8471
 9938TIP3    H251230   1.106   0.964   4.167  0.2265 -0.1644 -0.0485
 9939TIP3   OH251231   0.733   2.690  16.582  0.3736 -0.1565  0.1968
 9939TIP3    H151232   0.684   2.619  16.541 -0.1375 -0.2127  0.8995
 9939TIP3    H251233   0.715   2.682  16.675  2.3205 -0.6294  0.5790
 9940TIP3   OH251234   5.118   6.105  14.259  0.3749 -0.5751  0.7219
 9940TIP3    H151235   5.096   6.088  14.167  2.2487 -1.3398  0.3652
 9940TIP3    H251236   5.149   6.195  14.260 -1.1749 -0.0102  0.9473
 9941TIP3   OH251237   1.788   2.807  11.754  0.3050  0.0713  0.5494
 9941TIP3    H151238   1.735   2.874  11.711  1.6065 -0.1056 -1.4659
 9941TIP3    H251239   1.724   2.745  11.789 -0.8853 -0.1319 -1.7746
 9942TIP3   OH251240   2.945   0.682   5.867  0.1815 -0.0081  0.6194
 9942TIP3    H151241   3.018   0.694   5.927  0.7195 -1.8300  0.3788
 9942TIP3    H251242   2.871   0.726   5.910  1.0481  0.5264  1.5910
 9943TIP3   OH251243   3.306   5.882   3.296  0.1565  0.3637 -0.3435
 9943TIP3    H151244   3.336   5.972   3.309  1.0906  0.1590 -1.0084
 9943TIP3    H251245   3.247   5.866   3.370  0.2049  1.4171 -0.0576
 9944TIP3   OH251246   2.585   1.140   3.945  0.4265  0.2482 -0.1914
 9944TIP3    H151247   2.614   1.123   4.034  1.4879 -0.3447 -0.6279
 9944TIP3    H251248   2.610   1.061   3.896 -1.8921 -0.2881 -0.6312
 9945TIP3   OH251249   2.695   4.998  15.809 -0.5988  0.0695 -0.1689
 9945TIP3    H151250   2.781   4.996  15.768  0.3936  0.5344  1.8056
 9945TIP3    H251251   2.712   4.998  15.903 -2.7304  1.0104  0.2867
 9946TIP3   OH251252   4.421   2.849   0.661 -0.6404 -0.3898  0.2887
 9946TIP3    H151253   4.469   2.891   0.590 -1.1932 -0.6833 -0.2643
 9946TIP3    H251254   4.429   2.755   0.644  1.6051 -0.6265  2.1746
 9947TIP3   OH251255   5.329   2.369  13.323 -0.6224  0.1116 -0.1910
 9947TIP3    H151256   5.342   2.350  13.230 -1.8019  1.5322 -0.6978
 9947TIP3    H251257   5.272   2.298  13.354 -0.8421  0.0301 -0.7555
 9948TIP3   OH251258   1.622   2.976  13.383 -0.0581 -0.0038  0.2555
 9948TIP3    H151259   1.551   3.022  13.340  0.1034  0.0364  0.0310
 9948TIP3    H251260   1.621   2.888  13.345  0.2452  0.1080 -0.0232
 9949TIP3   OH251261   2.549   2.591   4.266  0.7010  0.4463  0.2544
 9949TIP3    H151262   2.634   2.634   4.269 -0.1197  2.3338 -1.1831
 9949TIP3    H251263   2.563   2.513   4.213  1.6330  0.4896  0.4297
 9950TIP3   OH251264   4.210   1.240  15.626 -0.1800 -0.3576  0.5473
 9950TIP3    H151265   4.154   1.167  15.651  0.8793 -1.4318 -0.0818
 9950TIP3    H251266   4.296   1.218  15.662  0.1872  0.5362  0.2604
 9951TIP3   OH251267   5.271   5.069  13.111 -0.4743 -0.1321  0.4519
 9951TIP3    H151268   5.207   5.043  13.044  0.4026 -0.4058 -0.3008
 9951TIP3    H251269   5.220   5.120  13.174 -1.3180  0.1634 -0.4420
 9952TIP3   OH251270   4.704   3.382   2.959  0.3764  0.4316 -1.2741
 9952TIP3    H151271   4.769   3.399   2.891  0.9349  2.5457 -0.3192
 9952TIP3    H251272   4.745   3.416   3.039  0.1269 -2.7225  0.3739
 9953TIP3   OH251273   1.468   0.426   3.591 -0.0103  0.3648 -0.4247
 9953TIP3    H151274   1.540   0.382   3.546  0.4248  1.8778 -1.2881
 9953TIP3    H251275   1.389   0.393   3.548  0.2063 -0.5493 -0.1485
 9954TIP3   OH251276   5.644   3.897   1.183 -0.3749 -0.1075  0.8660
 9954TIP3    H151277   5.571   3.959   1.186 -0.8377 -0.5609 -0.3064
 9954TIP3    H251278   5.681   3.909   1.095  0.3467 -0.5735  1.1030
 9955TIP3   OH251279   1.699   4.355   1.876 -0.2495 -0.0384 -0.4334
 9955TIP3    H151280   1.785   4.315   1.868  0.2880  1.3294 -1.8884
 9955TIP3    H251281   1.676   4.344   1.969  1.8841  0.3881  0.2054
 9956TIP3   OH251282   2.826   4.755   6.729 -0.0694  0.2789  0.0462
 9956TIP3    H151283   2.886   4.828   6.739  1.5935 -1.1495  1.0199
 9956TIP3    H251284   2.747   4.783   6.776 -0.2909  2.2459 -1.3910
 9957TIP3   OH251285   3.536   1.998   4.887 -0.5749 -0.2300 -0.0771
 9957TIP3    H151286   3.457   2.042   4.856  0.5998  1.6204 -0.6698
 9957TIP3    H251287   3.592   1.993   4.809  0.4528 -0.1371  0.6347
 9958TIP3   OH251288   0.013   0.110  17.327  0.1688  0.1846 -0.6051
 9958TIP3    H151289   0.021   0.024  17.368 -0.8074  0.2637 -0.2314
 9958TIP3    H251290   0.077   0.164  17.374  0.0835 -0.0849 -0.1760
 9959TIP3   OH251291   0.814   3.816  13.781  0.2157 -0.4716 -0.2357
 9959TIP3    H151292   0.882   3.884  13.784 -0.0215 -0.1940 -0.9419
 9959TIP3    H251293   0.806   3.794  13.689 -1.3996  0.2614 -0.3033
 9960TIP3   OH251294   1.802   0.419  13.204 -0.2418 -0.2213  0.2852
 9960TIP3    H151295   1.769   0.332  13.184  0.3378 -1.0214  2.4581
 9960TIP3    H251296   1.897   0.408  13.208  0.0228  1.0239 -1.4739
 9961TIP3   OH251297   6.093   3.662   1.054 -0.3518  0.1933 -0.4582
 9961TIP3    H151298   6.163   3.652   0.990  0.1802 -1.3598  0.3282
 9961TIP3    H251299   6.133   3.710   1.126 -0.0434 -0.8139  0.0502
 9962TIP3   OH251300   0.243   4.242   1.955  0.5107  0.0937  0.2780
 9962TIP3    H151301   0.249   4.334   1.928 -0.0427 -0.0296 -0.3033
 9962TIP3    H251302   0.300   4.195   1.894  0.4719  0.0057  0.3087
 9963TIP3   OH251303   5.291   4.310   1.810 -0.5229  0.8264  0.1225
 9963TIP3    H151304   5.237   4.232   1.820  0.1068  0.1480 -1.4439
 9963TIP3    H251305   5.376   4.277   1.781  0.7596  1.8815  2.4315
 9964TIP3   OH251306   6.601   1.524   3.578  0.1295  0.2034 -0.4373
 9964TIP3    H151307   6.591   1.490   3.489  0.9806  1.1918 -0.9271
 9964TIP3    H251308   6.517   1.566   3.597 -0.1980 -0.3563 -0.6032
 9965TIP3   OH251309   4.122   6.651   4.869  0.3990 -0.8779 -0.4925
 9965TIP3    H151310   4.175   6.707   4.926  0.9014 -0.3103 -1.4852
 9965TIP3    H251311   4.032   6.681   4.884  0.4041 -1.3726  0.6803
 9966TIP3   OH251312   4.853   5.000   2.358  0.3439 -0.5545 -0.2188
 9966TIP3    H151313   4.781   5.056   2.330  0.4796 -0.3960 -0.2508
 9966TIP3    H251314   4.878   4.951   2.279  0.7209 -0.1147 -0.3780
 9967TIP3   OH251315   4.028   0.929   5.829 -0.3969 -0.4095  0.1262
 9967TIP3    H151316   3.996   1.019   5.839  0.8339  0.0812 -0.2059
 9967TIP3    H251317   3.989   0.882   5.903 -0.3707  0.5988  0.8044
 9968TIP3   OH251318   6.174   2.081  14.170  0.8899 -0.5988 -0.2515
 9968TIP3    H151319   6.136   1.993  14.171 -1.3646  0.3103 -0.2545
 9968TIP3    H251320   6.170   2.108  14.079 -2.4239  1.0226  0.2201
 9969TIP3   OH251321   3.819   3.037   0.293 -0.4124  0.4197 -0.0983
 9969TIP3    H151322   3.913   3.020   0.280 -0.6548  0.5548 -2.4745
 9969TIP3    H251323   3.808   3.129   0.270 -1.1420  0.3999  0.1429
 9970TIP3   OH251324   2.532   6.347   5.340 -0.3926  0.3741  0.3460
 9970TIP3    H151325   2.628   6.341   5.335  0.1154  3.6244  2.8791
 9970TIP3    H251326   2.506   6.272   5.395  0.6523 -0.4752 -0.2676
 9971TIP3   OH251327   3.478   6.172   0.946 -0.4868 -0.3109 -0.2083
 9971TIP3    H151328   3.408   6.110   0.968 -0.0422 -0.3540  1.2157
 9971TIP3    H251329   3.553   6.142   0.997 -0.7526  2.4269  2.0530
 9972TIP3   OH251330   4.259   5.062  15.667 -0.5337 -0.2277  0.0100
 9972TIP3    H151331   4.339   5.113  15.674  0.1116 -0.9277 -1.6115
 9972TIP3    H251332   4.258   5.007  15.745  0.0334  0.5027  0.5410
 9973TIP3   OH251333   1.429   5.721  12.532  0.1695 -0.0284 -0.0826
 9973TIP3    H151334   1.476   5.744  12.613  1.0057  2.3084 -1.1559
 9973TIP3    H251335   1.393   5.804  12.501 -0.5549 -0.9703 -1.8729
 9974TIP3   OH251336   1.374   5.868  17.149  0.7004  0.2798  0.3113
 9974TIP3    H151337   1.291   5.913  17.162  1.3053  1.2594  0.8516
 9974TIP3    H251338   1.420   5.876  17.232  1.2622 -0.4260  0.0841
 9975TIP3   OH251339   3.326   0.888  12.388 -0.7343  0.1833 -0.0031
 9975TIP3    H151340   3.326   0.966  12.334 -0.4739  0.4373  0.3598
 9975TIP3    H251341   3.254   0.835  12.354 -1.1613  0.7556  0.0073
 9976TIP3   OH251342   5.662   4.012   0.874  0.2551 -0.2810  0.3471
 9976TIP3    H151343   5.631   3.962   0.799 -1.8481  0.8696  0.3882
 9976TIP3    H251344   5.748   3.975   0.893  0.0508 -1.8383 -1.4560
 9977TIP3   OH251345   3.405   3.083  15.152  0.0190  0.2526 -0.2910
 9977TIP3    H151346   3.443   3.169  15.171  0.2337  0.4278 -1.4391
 9977TIP3    H251347   3.428   3.030  15.228  0.4927  1.0145  0.1196
 9978TIP3   OH251348   6.403   3.944  17.238 -0.1317 -0.0345  0.3393
 9978TIP3    H151349   6.485   3.992  17.231  0.4717 -1.2515 -1.7119
 9978TIP3    H251350   6.403   3.909  17.327  2.5832 -1.6454 -0.1693
 9979TIP3   OH251351   2.675   1.541  11.969 -0.1388  0.0896 -0.6717
 9979TIP3    H151352   2.733   1.598  11.918 -1.1018  1.0290 -0.7687
 9979TIP3    H251353   2.605   1.600  11.998 -1.3118 -1.1008 -0.9966
 9980TIP3   OH251354   0.469   0.822  15.454  0.2999  0.4833 -0.2020
 9980TIP3    H151355   0.550   0.778  15.477  0.9619  1.2431 -0.9977
 9980TIP3    H251356   0.481   0.849  15.363 -0.6631  1.0104 -0.1908
 9981TIP3   OH251357   5.710   1.123   2.502 -0.0353  0.3423 -0.9672
 9981TIP3    H151358   5.673   1.148   2.587  0.9438 -1.1035 -0.0784
 9981TIP3    H251359   5.713   1.205   2.453  0.2942  1.4319  0.7528
 9982TIP3   OH251360   0.572   0.411  12.011  0.2572  0.3919 -0.0541
 9982TIP3    H151361   0.531   0.452  12.087  2.3288 -0.5220  1.6736
 9982TIP3    H251362   0.505   0.350  11.978  0.2686 -1.4791  3.0030
 9983TIP3   OH251363   3.251   4.997  12.727 -0.3368 -0.2380  0.1301
 9983TIP3    H151364   3.184   5.006  12.795 -0.4470  1.0226 -0.1172
 9983TIP3    H251365   3.328   4.966  12.774 -0.8166 -0.7900  0.5812
 9984TIP3   OH251366   3.612   1.728   1.708 -0.5466  0.0858 -0.1420
 9984TIP3    H151367   3.568   1.729   1.794  2.2558 -0.7778  1.4159
 9984TIP3    H251368   3.608   1.819   1.679  2.0792  1.4123  3.0201
 9985TIP3   OH251369   5.071   0.195   0.383 -0.7140  0.2234 -0.2805
 9985TIP3    H151370   5.047   0.214   0.474  0.1906  3.3507 -0.5803
 9985TIP3    H251371   5.167   0.196   0.383 -0.7071  0.1721 -1.2382
 9986TIP3   OH251372   5.700   5.430  15.433 -0.0715  0.0629 -0.1508
 9986TIP3    H151373   5.636   5.389  15.374 -0.4100  1.8020 -1.0345
 9986TIP3    H251374   5.753   5.486  15.376  0.1702  1.1173  1.0810
 9987TIP3   OH251375   2.249   5.783   4.327  0.3264 -0.2363 -0.2878
 9987TIP3    H151376   2.161   5.783   4.364 -0.0052  1.0409 -1.0004
 9987TIP3    H251377   2.275   5.875   4.326  0.7693 -0.3353 -2.1261
 9988TIP3   OH251378   0.052   4.056   5.475 -0.0793  0.1512  0.8184
 9988TIP3    H151379   0.080   4.055   5.384  0.7612  1.1523  1.0486
 9988TIP3    H251380   0.036   4.148   5.495 -2.2404 -0.2358  1.1165
 9989TIP3   OH251381   6.499   5.951   0.383 -0.1852  0.1385  0.0365
 9989TIP3    H151382   6.433   5.950   0.314 -0.9663 -0.5189  0.7651
 9989TIP3    H251383   6.493   5.864   0.423  1.0368  0.1167  0.2028
 9990TIP3   OH251384   4.582   3.395   5.525 -0.0237 -0.2179 -0.2053
 9990TIP3    H151385   4.660   3.416   5.576 -0.8504  0.1662  0.9375
 9990TIP3    H251386   4.576   3.466   5.460  0.4352 -0.1250 -0.1520
 9991TIP3   OH251387   1.472   2.213   2.586  0.0957 -0.2995 -0.6485
 9991TIP3    H151388   1.429   2.182   2.666  0.7128 -1.6620 -0.8213
 9991TIP3    H251389   1.412   2.188   2.515 -0.4855  0.9701 -0.6475
 9992TIP3   OH251390   3.921   1.335  12.673 -0.2133  0.1785  0.3882
 9992TIP3    H151391   3.856   1.397  12.641  1.2908  1.1179 -0.9725
 9992TIP3    H251392   3.987   1.389  12.716  1.0770 -0.4355 -0.7368
 9993TIP3   OH251393   0.746   0.273  11.735 -0.3168  0.2272  0.7588
 9993TIP3    H151394   0.725   0.367  11.736  0.7197  0.5251 -1.0712
 9993TIP3    H251395   0.816   0.265  11.671 -0.9422 -1.9381  0.2796
 9994TIP3   OH251396   3.311   3.504  10.388  0.1012  0.0366  0.1524
 9994TIP3    H151397   3.317   3.530  10.296 -1.9816  1.8778  0.4442
 9994TIP3    H251398   3.223   3.530  10.415  1.4251  1.9583  3.3310
 9995TIP3   OH251399   2.298   2.585   4.889 -0.3642 -0.0374  0.2390
 9995TIP3    H151400   2.264   2.660   4.841 -1.3786  0.0678  1.0872
 9995TIP3    H251401   2.393   2.591   4.879 -0.5507 -0.7069 -2.7522
 9996TIP3   OH251402   1.295   6.722   2.768 -0.3869  0.0132  0.0414
 9996TIP3    H151403   1.203   6.695   2.765 -0.8954  1.6211  0.4491
 9996TIP3    H251404   1.313   6.735   2.861  0.2314 -0.2075 -0.0463
 9997TIP3   OH251405   5.228   2.540   3.372 -0.1538 -0.6622 -0.1921
 9997TIP3    H151406   5.239   2.542   3.467  0.9932 -0.4889 -0.3136
 9997TIP3    H251407   5.279   2.464   3.343  1.1365  0.3977 -0.8389
 9998TIP3   OH251408   0.972   2.956  12.669 -0.2265  0.6826 -0.2993
 9998TIP3    H151409   1.010   2.939  12.755 -1.7055 -0.1304  0.2306
 9998TIP3    H251410   0.939   3.046  12.674 -2.9969 -0.2814  1.1235
 9999TIP3   OH251411   0.437   0.102   5.492  0.4985  0.0572  0.2354
 9999TIP3    H151412   0.406   0.063   5.411  1.1859 -0.8217  0.3797
 9999TIP3    H251413   0.516   0.053   5.514  1.7525  1.9003  0.1251
10000TIP3   OH251414   0.019   4.003   3.135 -0.5243  0.1853 -0.1418
10000TIP3    H151415   0.066   3.942   3.078 -0.5463  0.1098 -0.0785
10000TIP3    H251416   0.087   4.038   3.194 -0.6724 -0.4507  0.4166
10001TIP3   OH251417   5.364   5.661  16.056  0.6553 -0.0562  0.0304
10001TIP3    H151418   5.388   5.681  16.146  0.7755 -0.5647  0.1127
10001TIP3    H251419   5.278   5.620  16.062  1.1400 -1.1120  0.0281
10002TIP3   OH251420   0.187   4.656  15.433 -0.5620 -0.0578 -0.3337
10002TIP3    H151421   0.270   4.636  15.477 -1.5690 -2.0917  0.7752
10002TIP3    H251422   0.195   4.615  15.347  1.3083  3.7069 -2.2062
10003TIP3   OH251423   4.786   1.235  15.223 -0.2492  0.4467  0.2398
10003TIP3    H151424   4.823   1.316  15.187 -2.6306  1.3089 -0.4505
10003TIP3    H251425   4.760   1.258  15.312  2.8467 -0.8411  1.6448
10004TIP3   OH251426   2.219   4.495  12.008 -0.9352 -0.5205  0.4691
10004TIP3    H151427   2.132   4.464  12.035 -0.4782 -0.6227  1.8844
10004TIP3    H251428   2.202   4.575  11.959 -1.8623 -0.8458  0.2357
10005TIP3   OH251429   5.542   0.689  15.826 -0.1359 -0.2961 -0.2902
10005TIP3    H151430   5.515   0.598  15.818 -2.5541  0.0826  2.1791
10005TIP3    H251431   5.462   0.739  15.812  0.1864  1.1773  2.4367
10006TIP3   OH251432   6.687   5.725  15.241 -0.4436  0.1901 -0.1611
10006TIP3    H151433   6.600   5.743  15.275 -0.6635  0.5325 -0.8812
10006TIP3    H251434   6.686   5.631  15.220 -1.2121  0.5141 -1.7238
10007TIP3   OH251435   0.416   4.838   0.643 -0.0824 -0.7612 -0.2468
10007TIP3    H151436   0.433   4.780   0.569 -0.4365 -0.2158 -0.7688
10007TIP3    H251437   0.377   4.781   0.710  0.5197 -1.3154 -0.3644
10008TIP3   OH251438   0.129   5.327   0.390  0.7354  0.5003 -0.1443
10008TIP3    H151439   0.209   5.370   0.422 -0.7012  3.0913  0.2637
10008TIP3    H251440   0.109   5.371   0.307 -1.2760  1.3883  0.7216
10009TIP3   OH251441   1.787   4.745  16.016 -0.3210 -0.2305  0.1531
10009TIP3    H151442   1.719   4.802  16.051  0.5623  0.3881  0.9036
10009TIP3    H251443   1.748   4.657  16.019 -1.0843  0.1101  0.5610
10010TIP3   OH251444   3.947   5.199  16.515  0.4124 -0.2691  0.1690
10010TIP3    H151445   3.991   5.119  16.544 -0.7494 -1.7245 -1.7863
10010TIP3    H251446   4.019   5.254  16.483  1.0514 -2.3658 -2.4598
10011TIP3   OH251447   5.193   1.797  13.887  0.1812 -0.6899 -0.4795
10011TIP3    H151448   5.178   1.702  13.882  0.0719 -0.7046  0.0220
10011TIP3    H251449   5.287   1.806  13.901  0.1380 -0.7398 -0.1576
10012TIP3   OH251450   1.217   0.546   0.762  0.4320  0.2614  0.1638
10012TIP3    H151451   1.217   0.491   0.840 -0.1350  0.0250 -0.0025
10012TIP3    H251452   1.305   0.534   0.725 -0.7413 -3.5524 -1.9644
10013TIP3   OH251453   6.255   2.435   4.838 -0.1328 -0.2820  0.0595
10013TIP3    H151454   6.280   2.501   4.773 -0.3034 -0.1126  0.1629
10013TIP3    H251455   6.335   2.419   4.888 -0.1329 -0.0199  0.1473
10014TIP3   OH251456   2.456   2.640  12.993  0.0368 -0.4443  0.0105
10014TIP3    H151457   2.389   2.708  12.986 -0.2730 -0.8287 -0.9414
10014TIP3    H251458   2.421   2.567  12.943  1.7275 -0.1949 -1.6556
10015TIP3   OH251459   2.619   3.268   3.343 -0.5113 -0.8979  0.5041
10015TIP3    H151460   2.633   3.287   3.250 -0.9505  2.7910  1.0207
10015TIP3    H251461   2.594   3.176   3.345 -1.1396 -0.9715 -3.0917
10016TIP3   OH251462   5.830   5.144   3.562  0.2633 -0.1949 -0.1442
10016TIP3    H151463   5.885   5.178   3.633  0.7831 -1.4589  0.0960
10016TIP3    H251464   5.748   5.193   3.569  1.4348  1.9803 -0.7110
10017TIP3   OH251465   1.279   6.592  13.387 -0.5201  0.3313  0.1974
10017TIP3    H151466   1.202   6.536  13.394 -2.2113  2.4861 -0.1038
10017TIP3    H251467   1.334   6.567  13.461 -1.8065 -0.8526  0.7826
10018TIP3   OH251468   4.718   1.968   5.901  0.1727  0.5647 -0.0892
10018TIP3    H151469   4.659   2.043   5.906  0.3977  0.7543 -0.2803
10018TIP3    H251470   4.800   1.999   5.938 -0.1335  0.0044  1.1275
10019TIP3   OH251471   1.814   2.351  11.786 -0.2025  0.8167 -0.5702
10019TIP3    H151472   1.771   2.312  11.863  0.4237 -0.9021 -1.0548
10019TIP3    H251473   1.893   2.392  11.822  0.4100 -0.5104 -0.3398
10020TIP3   OH251474   5.909   0.089  14.375 -0.2199 -0.8835 -0.3661
10020TIP3    H151475   5.962   0.052  14.445 -0.2663 -0.9725 -0.3775
10020TIP3    H251476   5.952   0.171  14.353  0.6110 -1.5247 -1.1959
10021TIP3   OH251477   6.203   1.111   3.708  0.1674  0.1699  0.1621
10021TIP3    H151478   6.138   1.119   3.777  0.7567 -4.0929  1.4376
10021TIP3    H251479   6.261   1.186   3.721 -1.0154  0.7240  2.8662
10022TIP3   OH251480   5.527   1.688  14.363  0.2386  0.7015  0.0700
10022TIP3    H151481   5.553   1.779  14.348  0.9520  0.4348 -0.3600
10022TIP3    H251482   5.608   1.643  14.388 -0.0992  0.1744  0.2436
10023TIP3   OH251483   2.315   3.186   3.466  0.0122  0.0535  0.1184
10023TIP3    H151484   2.343   3.137   3.388  0.1619 -0.5069  0.5170
10023TIP3    H251485   2.309   3.119   3.535 -0.3047  0.5147  0.5391
10024TIP3   OH251486   4.981   0.423   0.643 -0.3733  0.8088  0.5108
10024TIP3    H151487   4.991   0.451   0.734 -0.4582 -0.1486  0.8191
10024TIP3    H251488   5.023   0.493   0.593  0.8957  0.7117  1.3626
10025TIP3   OH251489   4.943   5.998   4.457 -0.8221  0.0541 -0.0927
10025TIP3    H151490   4.899   6.069   4.505 -0.9503  0.3105 -0.5820
10025TIP3    H251491   5.008   6.042   4.403 -0.6000 -0.2457 -0.0724
10026TIP3   OH251492   5.710   0.279   2.821 -0.0555  0.5249  0.0672
10026TIP3    H151493   5.698   0.266   2.916 -0.1821 -0.1600 -0.0343
10026TIP3    H251494   5.637   0.334   2.795 -0.9538 -0.6138  0.0943
10027TIP3   OH251495   0.544   1.264   0.017 -0.6581  0.0627  0.3434
10027TIP3    H151496   0.608   1.198   0.042 -0.4517  0.2067  0.2017
10027TIP3    H251497   0.590   1.347   0.026 -0.6987  0.1410 -0.1392
10028TIP3   OH251498   3.170   0.584  17.277  0.3127 -0.3590  0.3251
10028TIP3    H151499   3.074   0.586  17.284  0.3008  0.6549  0.1050
10028TIP3    H251500   3.187   0.569  17.184  0.3954 -2.3526  0.6284
10029TIP3   OH251501   6.356   4.448   0.079 -0.4928 -0.1108 -0.3602
10029TIP3    H151502   6.275   4.477   0.037 -0.0204 -0.4248 -1.5435
10029TIP3    H251503   6.421   4.512   0.052 -0.1380 -0.4290 -0.2736
10030TIP3   OH251504   5.152   5.875  13.659 -0.1083 -0.2497 -0.0764
10030TIP3    H151505   5.139   5.781  13.673 -2.1741 -0.1837 -1.0904
10030TIP3    H251506   5.190   5.881  13.571  1.0599 -0.1654  0.4246
10031TIP3   OH251507   5.328   2.376  15.965 -0.5102  0.0602  0.1410
10031TIP3    H151508   5.235   2.392  15.951 -0.5606 -0.0494  0.3323
10031TIP3    H251509   5.373   2.429  15.900 -0.7729 -1.5393 -1.4012
10032TIP3   OH251510   6.146   6.114  15.921  0.2223  0.8414 -0.0702
10032TIP3    H151511   6.131   6.047  15.989 -1.7446 -1.1426 -2.2486
10032TIP3    H251512   6.239   6.107  15.900  0.9329  1.6229  2.4078
10033TIP3   OH251513   4.936   5.690  17.282 -0.2017 -0.8366  0.0346
10033TIP3    H151514   4.998   5.742  17.230 -1.4378  0.4695 -0.1816
10033TIP3    H251515   4.868   5.664  17.220 -0.2141 -1.7199  0.4084
10034TIP3   OH251516   6.423   0.361   4.559 -0.2493 -0.2277  0.3606
10034TIP3    H151517   6.397   0.313   4.480  1.4080 -1.3701  0.4667
10034TIP3    H251518   6.517   0.375   4.549 -0.1479  0.3145  1.7831
10035TIP3   OH251519   6.290   6.016  10.859  0.3532 -0.1514 -0.3620
10035TIP3    H151520   6.283   5.929  10.897 -0.1846  1.5957  4.1916
10035TIP3    H251521   6.383   6.027  10.839  0.7119 -1.2411  0.5931
10036TIP3   OH251522   6.676   3.391   1.425  1.4161  0.1533  0.2136
10036TIP3    H151523   6.725   3.455   1.374 -0.6324  0.8627 -0.9546
10036TIP3    H251524   6.630   3.442   1.492  2.2644 -0.5163  1.3671
10037TIP3   OH251525   4.247   4.984  11.702 -0.0977 -0.1237  0.1175
10037TIP3    H151526   4.255   4.985  11.607 -0.9145 -0.6941  0.0305
10037TIP3    H251527   4.241   4.891  11.725 -2.5460  0.0370  0.4547
10038TIP3   OH251528   3.739   1.485  15.149 -0.5001 -0.7824  0.1408
10038TIP3    H151529   3.656   1.473  15.196 -3.0398  1.4539 -3.2841
10038TIP3    H251530   3.735   1.424  15.076  0.0079  0.4694 -0.9867
10039TIP3   OH251531   5.664   4.882   2.890 -0.6179 -0.2943 -0.1433
10039TIP3    H151532   5.613   4.862   2.969  2.2261 -0.1306  1.8949
10039TIP3    H251533   5.667   4.977   2.886 -1.7374 -0.2806 -1.1924
10040TIP3   OH251534   2.419   1.585   2.742  0.0517 -0.0910 -0.1731
10040TIP3    H151535   2.344   1.642   2.730  0.1406  0.5349  1.9699
10040TIP3    H251536   2.390   1.500   2.707 -1.7368  0.0750  0.7964
10041TIP3   OH251537   5.924   2.453  15.449 -0.1485  0.1716 -0.3338
10041TIP3    H151538   5.986   2.464  15.521 -0.4449  0.6231 -0.1446
10041TIP3    H251539   5.840   2.480  15.486 -0.3888 -0.0679 -0.7049
10042TIP3   OH251540   6.097   3.225   2.184 -0.6753  0.2671 -0.1616
10042TIP3    H151541   6.104   3.300   2.243  0.5567 -0.0189  0.0985
10042TIP3    H251542   6.155   3.247   2.111  1.3725 -1.2475  0.8895
10043TIP3   OH251543   4.363   2.198  15.340  0.6833 -0.8030  0.0573
10043TIP3    H151544   4.399   2.114  15.312  1.4288 -0.1455 -1.0639
10043TIP3    H251545   4.438   2.257  15.339 -0.2562  0.4627 -1.6716
10044TIP3   OH251546   1.731   1.718   6.515 -0.0578 -0.4337 -1.3569
10044TIP3    H151547   1.676   1.665   6.573  0.9136 -1.9981 -1.8125
10044TIP3    H251548   1.820   1.694   6.538  0.3730 -0.2780 -2.7652
10045TIP3   OH251549   5.841   0.961  13.860 -0.0051 -0.0672 -0.2857
10045TIP3    H151550   5.883   0.875  13.862 -1.1946 -0.6816 -0.7999
10045TIP3    H251551   5.897   1.014  13.803  1.3998 -0.1035  0.9860
10046TIP3   OH251552   1.569   1.122   5.371  0.1346 -0.0947 -0.4702
10046TIP3    H151553   1.583   1.099   5.463 -1.8113 -2.5842 -0.6806
10046TIP3    H251554   1.596   1.044   5.323 -0.8242  0.3788 -1.8259
10047TIP3   OH251555   4.687   4.560  15.895  0.2096  0.6778 -0.7571
10047TIP3    H151556   4.608   4.561  15.842 -0.0528 -0.1423 -0.3912
10047TIP3    H251557   4.666   4.616  15.971 -0.6030 -0.7978  0.1429
10048TIP3   OH251558   1.313   5.106   0.836  0.0227 -0.3148  0.1412
10048TIP3    H151559   1.229   5.135   0.801 -0.1010 -0.3464  0.4138
10048TIP3    H251560   1.343   5.040   0.774  0.1492  0.1502 -0.3051
10049TIP3   OH251561   5.261   4.211  16.782  0.0644  0.5418 -0.2205
10049TIP3    H151562   5.324   4.147  16.749 -0.2616  0.1244 -0.0307
10049TIP3    H251563   5.187   4.159  16.813 -0.0348  0.9811  0.3022
10050TIP3   OH251564   4.620   0.857  16.066  0.1384  0.7130 -0.6356
10050TIP3    H151565   4.527   0.863  16.084  0.5532  1.7117  1.4790
10050TIP3    H251566   4.635   0.765  16.044 -0.8939 -0.2174  2.1625
10051TIP3   OH251567   0.715   1.178   3.786  0.1252  0.8981 -0.7022
10051TIP3    H151568   0.678   1.103   3.833 -0.4464  0.9838 -1.0012
10051TIP3    H251569   0.749   1.140   3.705  1.0531  0.7598 -0.2513
10052TIP3   OH251570   0.909   2.281   4.723 -0.1391  0.2960  0.7282
10052TIP3    H151571   0.955   2.198   4.710 -0.0202  0.3490  0.8107
10052TIP3    H251572   0.967   2.332   4.781 -0.8022 -0.0606  1.7426
10053TIP3   OH251573   4.928   0.299   3.204 -0.1961 -0.0779  1.0230
10053TIP3    H151574   4.938   0.271   3.295 -0.6255  0.0236  1.1030
10053TIP3    H251575   4.905   0.391   3.209  1.2558  0.3227  0.7550
10054TIP3   OH251576   3.986   1.107   1.875 -0.0685  0.6232 -0.4205
10054TIP3    H151577   3.903   1.065   1.897  0.0510  0.3390 -0.4979
10054TIP3    H251578   3.977   1.133   1.783 -0.4378  1.4930 -0.1486
10055TIP3   OH251579   1.871   0.210   3.654  0.1187 -0.2886 -0.6247
10055TIP3    H151580   1.827   0.261   3.721  2.6528  0.0209  0.9128
10055TIP3    H251581   1.898   0.129   3.698  1.6260 -0.1863 -1.2957
10056TIP3   OH251582   2.234   4.101  12.037  0.4137 -0.1508  0.4132
10056TIP3    H151583   2.288   4.092  12.116  1.2827  2.2670  0.1603
10056TIP3    H251584   2.250   4.020  11.988  4.0532  0.4832  0.2529
10057TIP3   OH251585   1.137   6.245  16.771 -0.3553  0.1516  0.5120
10057TIP3    H151586   1.135   6.151  16.754 -0.9236 -0.1562  2.1396
10057TIP3    H251587   1.113   6.253  16.863 -1.4322  1.9743  0.1122
10058TIP3   OH251588   0.602   6.321  15.480  1.1745  0.6944 -0.0121
10058TIP3    H151589   0.651   6.247  15.516  1.1125  1.4360  1.7024
10058TIP3    H251590   0.511   6.302  15.499  1.1261  1.0500  0.1234
10059TIP3   OH251591   0.028   2.628  15.597  0.2957  0.1813 -0.1375
10059TIP3    H151592   0.075   2.557  15.641  0.7013  0.4669 -0.1052
10059TIP3    H251593   0.094   2.671  15.542 -0.2167 -0.2170 -1.0975
10060TIP3   OH251594   3.429   3.781  14.919 -0.3216 -0.2840  0.7201
10060TIP3    H151595   3.334   3.791  14.914 -0.1254  1.3884 -0.6220
10060TIP3    H251596   3.463   3.869  14.901  1.4899 -1.1066 -0.1044
10061TIP3   OH251597   0.901   3.675   0.674  0.0187  0.7978 -0.0996
10061TIP3    H151598   0.915   3.764   0.640 -0.0912  1.4707  1.5255
10061TIP3    H251599   0.969   3.664   0.740 -0.0506 -0.3028 -0.1981
10062TIP3   OH251600   5.897   1.176   4.624  0.1061  0.6336 -0.0049
10062TIP3    H151601   5.835   1.120   4.671  1.6436 -0.4561  0.8494
10062TIP3    H251602   5.844   1.248   4.590 -1.6411 -0.3610  0.4728
10063TIP3   OH251603   6.145   5.273  16.537  0.1645 -0.1884 -0.5998
10063TIP3    H151604   6.237   5.290  16.553  0.3712 -3.0204  2.3686
10063TIP3    H251605   6.101   5.356  16.559  1.8686  0.7131 -0.4454
10064TIP3   OH251606   2.920   2.484   6.327 -0.0130  0.2579 -0.4831
10064TIP3    H151607   2.883   2.400   6.299 -1.3628  0.6515  0.0581
10064TIP3    H251608   3.008   2.463   6.357 -0.0546 -0.8334 -1.0692
10065TIP3   OH251609   5.861   6.311  13.444 -0.3821 -0.0359 -0.7108
10065TIP3    H151610   5.805   6.322  13.368 -0.2650 -0.3816 -0.8489
10065TIP3    H251611   5.942   6.356  13.421 -0.7535  0.8471 -0.3375
10066TIP3   OH251612   3.240   1.210  11.264  0.6887  0.3110 -0.5168
10066TIP3    H151613   3.272   1.181  11.349 -0.9529  2.8011  1.0682
10066TIP3    H251614   3.319   1.225  11.212  1.8489  0.9660  1.3578
10067TIP3   OH251615   1.456   0.178  14.993  0.0490 -0.0180 -0.1502
10067TIP3    H151616   1.470   0.201  14.901  0.2739 -1.4069 -0.4783
10067TIP3    H251617   1.522   0.111  15.011  1.4322  1.7083  1.6497
10068TIP3   OH251618   5.337   5.414  16.596 -0.0409  0.1655  0.2049
10068TIP3    H151619   5.372   5.501  16.617  3.6255 -1.1505  0.3103
10068TIP3    H251620   5.403   5.375  16.539 -2.7203 -1.7567 -1.8376
10069TIP3   OH251621   1.649   4.628  11.799  0.0609 -0.0129 -0.2821
10069TIP3    H151622   1.587   4.653  11.731 -1.1320  1.5982  1.3011
10069TIP3    H251623   1.735   4.643  11.760 -0.5738  0.3550 -1.5929
10070TIP3   OH251624   4.101   5.855  15.895 -0.6535 -0.0832 -0.3289
10070TIP3    H151625   4.070   5.878  15.808 -0.7854 -2.4368 -0.9680
10070TIP3    H251626   4.187   5.817  15.881  0.9906  2.7432  1.0318
10071TIP3   OH251627   6.427   4.880  17.046  0.1094  0.1592  0.5969
10071TIP3    H151628   6.440   4.962  17.093  0.8839 -0.4343  1.4435
10071TIP3    H251629   6.466   4.896  16.960  0.8200  0.4612  0.9734
10072TIP3   OH251630   5.519   5.196  11.462  0.4049 -0.1656 -0.4696
10072TIP3    H151631   5.577   5.270  11.449  0.7030 -0.4990 -1.1262
10072TIP3    H251632   5.431   5.233  11.462  0.6312  0.6279  2.5637
10073TIP3   OH251633   5.000   5.588   4.823  0.4734  0.2566 -0.4210
10073TIP3    H151634   4.981   5.648   4.895  4.0309 -0.3343  1.2193
10073TIP3    H251635   5.006   5.644   4.746 -0.7373  1.2980  0.2035
10074TIP3   OH251636   1.106   4.980   4.915  0.5104 -0.7967  0.7649
10074TIP3    H151637   1.064   4.938   4.991  2.2621 -0.9179  1.7263
10074TIP3    H251638   1.103   5.073   4.935 -0.3718 -0.7014  0.2373
10075TIP3   OH251639   1.740   4.110  16.983 -0.2829  0.1466 -0.0365
10075TIP3    H151640   1.805   4.050  16.946 -1.9285 -0.2437 -2.5497
10075TIP3    H251641   1.746   4.096  17.077  3.8142  0.7880 -0.0422
10076TIP3   OH251642   4.844   3.395   3.310  0.0893 -0.2263  0.1193
10076TIP3    H151643   4.889   3.330   3.255  0.1345  0.4423 -0.6515
10076TIP3    H251644   4.783   3.343   3.362  0.5837 -0.9643 -0.0171
10077TIP3   OH251645   0.357   4.875  16.982 -0.1354 -0.0508 -0.0671
10077TIP3    H151646   0.309   4.958  16.973  0.4772  0.2222 -1.0572
10077TIP3    H251647   0.293   4.813  17.015 -0.1075  1.2973  2.7591
10078TIP3   OH251648   2.185   3.070   2.719 -0.2096  0.0488  0.1150
10078TIP3    H151649   2.209   2.990   2.674 -0.4383 -1.1160  1.9389
10078TIP3    H251650   2.090   3.065   2.730 -0.1021  0.0442  1.1490
10079TIP3   OH251651   5.622   1.850  12.861  0.0287  0.5912 -0.0254
10079TIP3    H151652   5.699   1.905  12.846  0.3159  0.9291  2.3558
10079TIP3    H251653   5.656   1.761  12.860  0.1872  0.6549 -0.4172
10080TIP3   OH251654   6.611   3.918  12.085 -0.4672  0.3452 -0.1362
10080TIP3    H151655   6.527   3.872  12.085 -0.2161 -0.1313 -0.1455
10080TIP3    H251656   6.595   3.999  12.038 -0.9230  0.2558 -0.1356
10081TIP3   OH251657   1.389   1.523  14.555 -0.3939 -0.8168  0.3967
10081TIP3    H151658   1.461   1.465  14.529  0.7227  0.4162  0.5981
10081TIP3    H251659   1.393   1.595  14.492 -0.9766 -0.3682  0.8660
10082TIP3   OH251660   1.448   0.017   1.601 -0.0741 -0.1986 -0.2337
10082TIP3    H151661   1.529   0.027   1.650 -1.0156  0.9365  1.1443
10082TIP3    H251662   1.382   0.061   1.653 -1.6135 -1.1214 -1.3071
10083TIP3   OH251663   2.088   2.278   1.666  0.4756  0.5982  0.1429
10083TIP3    H151664   2.132   2.265   1.583  2.2497 -0.0839  1.1379
10083TIP3    H251665   2.036   2.358   1.654 -0.8632 -0.5211 -2.1964
10084TIP3   OH251666   6.706   6.652  14.456 -0.7842 -0.5746 -0.5162
10084TIP3    H151667   6.772   6.693  14.400  0.5686  0.0669  1.4549
10084TIP3    H251668   6.719   6.558  14.445  1.2633 -0.4846  0.6406
10085TIP3   OH251669   1.976   4.098  11.468  0.1226 -0.1571 -0.0191
10085TIP3    H151670   1.929   4.181  11.462  1.8704  0.8700 -0.1870
10085TIP3    H251671   2.051   4.108  11.410  0.4788 -1.7956  0.1019
10086TIP3   OH251672   0.893   6.684   6.566 -0.4871  0.1250 -0.1126
10086TIP3    H151673   0.907   6.726   6.652  1.2266 -0.1034 -0.2356
10086TIP3    H251674   0.924   6.749   6.503  2.5290 -1.3146 -0.2900
10087TIP3   OH251675   3.194   4.551   5.626  0.0627  0.1156  0.1966
10087TIP3    H151676   3.227   4.540   5.537  1.1826  0.3152  0.5690
10087TIP3    H251677   3.138   4.475   5.641 -1.2356  0.7663 -1.1341
10088TIP3   OH251678   0.155   0.793   0.783  0.1617  0.2493 -0.3076
10088TIP3    H151679   0.210   0.715   0.788 -1.4025 -0.8199  1.2737
10088TIP3    H251680   0.203   0.859   0.834 -0.3216 -0.9168  1.7908
10089TIP3   OH251681   2.674   5.871  16.928  0.6055 -0.3172 -0.7629
10089TIP3    H151682   2.629   5.792  16.959  0.4740  0.3988  0.9748
10089TIP3    H251683   2.605   5.936  16.918  0.7283 -0.3498 -2.1000
10090TIP3   OH251684   4.163   2.572  13.026  0.7903 -0.2558 -0.5697
10090TIP3    H151685   4.083   2.624  13.020  0.2697 -0.9562  0.1683
10090TIP3    H251686   4.186   2.573  13.119 -0.0021 -2.4445 -0.2793
10091TIP3   OH251687   5.799   5.538   4.207 -0.1565 -0.2054  0.2375
10091TIP3    H151688   5.825   5.599   4.276 -2.2677  0.2219  0.7367
10091TIP3    H251689   5.724   5.580   4.165 -1.2965 -2.1692  0.1909
10092TIP3   OH251690   3.208   0.189  12.321 -0.0811  0.0078  0.2821
10092TIP3    H151691   3.157   0.133  12.262 -0.1366  0.5328 -0.1750
10092TIP3    H251692   3.297   0.154  12.316 -0.3111 -0.6809  0.7994
10093TIP3   OH251693   0.657   5.820  12.491 -0.1903 -0.4414 -0.1253
10093TIP3    H151694   0.725   5.814  12.424  0.6857  1.5600  0.5036
10093TIP3    H251695   0.695   5.776  12.567 -0.2629 -0.6931 -0.2306
10094TIP3   OH251696   5.443   5.285   1.749 -0.3464  0.1164  0.1439
10094TIP3    H151697   5.527   5.295   1.706  0.0576 -0.1234  0.8611
10094TIP3    H251698   5.463   5.283   1.842 -0.9782 -1.5071  0.2770
10095TIP3   OH251699   0.846   3.367  16.044  0.3925  0.7774 -0.3517
10095TIP3    H151700   0.784   3.320  16.100  0.1864  1.9758  0.4783
10095TIP3    H251701   0.805   3.369  15.958 -0.4490  1.0075  0.0433
10096TIP3   OH251702   6.703   0.146   4.318 -0.0696  0.4108  0.0457
10096TIP3    H151703   6.764   0.169   4.388  0.7354 -0.3755 -0.3663
10096TIP3    H251704   6.622   0.122   4.363  1.2413 -2.8199  1.0206
10097TIP3   OH251705   0.502   0.175  11.576 -0.1897 -0.2708 -0.4342
10097TIP3    H151706   0.547   0.201  11.496 -1.3444  1.9775 -0.4338
10097TIP3    H251707   0.567   0.184  11.645  0.2494 -0.2089 -0.8509
10098TIP3   OH251708   3.828   4.583   4.077 -0.1790 -0.0026 -0.4734
10098TIP3    H151709   3.888   4.647   4.038  0.7365 -1.4187 -1.4779
10098TIP3    H251710   3.875   4.550   4.154  0.1552 -0.7919 -1.0078
10099TIP3   OH251711   6.697   3.717   4.209 -0.0082 -0.0866 -0.4666
10099TIP3    H151712   6.776   3.716   4.155  0.8082  0.4120  0.6542
10099TIP3    H251713   6.645   3.643   4.178  1.9129 -1.8117  0.2162
10100TIP3   OH251714   5.373   1.649   3.616  0.2312 -0.0957 -0.3365
10100TIP3    H151715   5.404   1.730   3.656 -0.0746 -0.5024  0.7756
10100TIP3    H251716   5.291   1.630   3.661  0.5915 -1.3199 -0.1341
10101TIP3   OH251717   3.423   1.324   6.341  0.1581 -0.2480  0.2502
10101TIP3    H151718   3.361   1.301   6.272  0.2640 -1.3261  0.4867
10101TIP3    H251719   3.372   1.318   6.422 -0.2419  2.0253  0.2393
10102TIP3   OH251720   0.627   4.847  17.303 -0.3482  0.0179 -0.1605
10102TIP3    H151721   0.707   4.849  17.357  0.2946  0.4543 -1.1048
10102TIP3    H251722   0.588   4.933  17.315 -1.6670 -0.7713  1.6969
10103TIP3   OH251723   2.327   0.304   5.577  0.5734  0.7544 -0.5563
10103TIP3    H151724   2.402   0.361   5.595  0.3009  0.9483  0.0204
10103TIP3    H251725   2.365   0.227   5.536  1.0362  1.0477 -0.6937
10104TIP3   OH251726   6.492   4.378  15.682  0.2944 -0.2918 -0.4265
10104TIP3    H151727   6.475   4.442  15.612  1.5831  1.8681  1.1217
10104TIP3    H251728   6.587   4.380  15.694  0.1040 -0.5616  1.4099
10105TIP3   OH251729   3.987   3.063   5.515 -0.8365  0.1461 -0.2645
10105TIP3    H151730   3.959   3.067   5.607  2.0560  0.8866  0.6991
10105TIP3    H251731   4.063   3.005   5.516 -1.6201 -1.0026 -2.5047
10106TIP3   OH251732   6.377   1.574   3.347 -0.1387  0.2515 -0.3597
10106TIP3    H151733   6.359   1.623   3.427 -0.1891 -0.1110 -0.1494
10106TIP3    H251734   6.451   1.518   3.369 -0.0359  0.2825 -0.6208
10107TIP3   OH251735   3.049   6.051  12.741 -0.3044 -0.2324 -0.0577
10107TIP3    H151736   3.040   6.036  12.647 -0.4848 -0.0183 -0.0753
10107TIP3    H251737   2.988   5.988  12.780  2.1734 -2.7545  0.0990
10108TIP3   OH251738   3.570   1.362   0.434 -0.0859  0.1234 -0.0113
10108TIP3    H151739   3.475   1.362   0.418 -0.1404  0.3428  0.2953
10108TIP3    H251740   3.593   1.455   0.434 -0.1913  0.1769  1.7375
10109TIP3   OH251741   0.230   2.543  14.045 -0.9945 -0.5210 -0.4663
10109TIP3    H151742   0.187   2.592  13.974 -1.3549 -0.7440 -0.4091
10109TIP3    H251743   0.236   2.454  14.010  1.2975 -0.0982 -1.3023
10110TIP3   OH251744   2.527   5.226  12.794  0.9167  0.3794 -0.0335
10110TIP3    H151745   2.581   5.240  12.716  2.1679 -0.7639  0.5857
10110TIP3    H251746   2.582   5.254  12.867  0.0508  0.7011  0.5068
10111TIP3   OH251747   3.460   2.639  13.770  0.6917  0.1618 -0.3541
10111TIP3    H151748   3.434   2.721  13.811 -0.3272 -0.4319  0.2187
10111TIP3    H251749   3.556   2.640  13.773  0.6875 -0.1665  2.7346
10112TIP3   OH251750   0.105   2.911  10.852 -0.2061 -0.5995 -0.0808
10112TIP3    H151751   0.133   2.926  10.942 -0.2923 -0.0148 -0.1484
10112TIP3    H251752   0.143   2.825  10.829  1.6492  0.1982 -0.2093
10113TIP3   OH251753   3.818   3.256  12.025 -0.1996 -0.2722 -0.0964
10113TIP3    H151754   3.895   3.202  12.042  0.1102  0.2930  0.3208
10113TIP3    H251755   3.760   3.200  11.974  0.5221 -0.6761 -0.4794
10114TIP3   OH251756   2.703   6.069  13.420 -0.3098  0.3825  0.0554
10114TIP3    H151757   2.692   6.059  13.325  0.8188  0.6492 -0.1079
10114TIP3    H251758   2.652   6.148  13.442  2.3788  2.5448 -0.9522
10115TIP3   OH251759   5.106   1.800  15.459  0.3883  0.0300  0.0693
10115TIP3    H151760   5.046   1.850  15.403 -0.8035 -0.0621  1.2145
10115TIP3    H251761   5.167   1.866  15.493 -1.6622  0.9662  2.2135
10116TIP3   OH251762   2.541   2.159   1.449  0.5139  0.0101  0.1445
10116TIP3    H151763   2.588   2.088   1.493 -0.6415 -0.3031  0.9348
10116TIP3    H251764   2.476   2.115   1.394  0.9924  0.4383 -0.7931
10117TIP3   OH251765   5.140   3.459   3.533  0.2975 -0.2734 -0.1701
10117TIP3    H151766   5.132   3.463   3.628 -1.1330  0.2905 -0.2947
10117TIP3    H251767   5.230   3.488   3.515  0.9485 -1.4353  1.0521
10118TIP3   OH251768   4.088   4.965  16.742  0.6172  0.1342 -0.4340
10118TIP3    H151769   4.078   5.060  16.746  1.4941  0.2499 -0.6769
10118TIP3    H251770   4.060   4.934  16.828  3.0129  0.9085  0.7208
10119TIP3   OH251771   5.522   0.035  11.938 -0.4275 -0.0518 -0.0690
10119TIP3    H151772   5.506   0.076  11.853 -0.9088  1.4898  0.7130
10119TIP3    H251773   5.576   0.099  11.985  0.5606 -1.2614  0.4867
10120TIP3   OH251774   3.295   2.401   0.658  0.5922 -0.0475 -0.4247
10120TIP3    H151775   3.344   2.362   0.585 -1.4203 -2.1221 -0.8054
10120TIP3    H251776   3.257   2.481   0.621  0.0516 -0.7844 -1.5203
10121TIP3   OH251777   1.344   3.915  12.087  0.0533 -0.1411  0.3926
10121TIP3    H151778   1.272   3.910  12.023  0.8692  1.4486 -0.7407
10121TIP3    H251779   1.423   3.899  12.035  0.6636  0.2827  1.1698
10122TIP3   OH251780   0.226   0.669   3.145  0.9434 -0.5373  0.4249
10122TIP3    H151781   0.294   0.707   3.200  0.9255 -0.9334  0.7235
10122TIP3    H251782   0.202   0.588   3.189  1.0421 -0.9392 -0.2521
10123TIP3   OH251783   4.276   4.756  11.345  0.0566  0.0575 -0.1556
10123TIP3    H151784   4.189   4.725  11.369 -0.8309  0.9552 -1.9666
10123TIP3    H251785   4.335   4.713  11.406 -1.6449 -0.6540  1.0599
10124TIP3   OH251786   4.467   3.966  13.970  0.5577 -0.0522  0.6041
10124TIP3    H151787   4.532   4.033  13.947  0.9289 -0.1931  1.2112
10124TIP3    H251788   4.460   3.912  13.892 -0.9375  1.6133 -0.4812
10125TIP3   OH251789   1.940   4.646  13.316 -0.3252 -0.1011  0.2507
10125TIP3    H151790   1.885   4.664  13.392 -1.6305  0.8137 -0.8695
10125TIP3    H251791   2.004   4.717  13.316 -0.6496  0.1979  0.2172
10126TIP3   OH251792   2.405   1.325   2.950  0.2453  0.7439 -0.0391
10126TIP3    H151793   2.411   1.322   3.045 -1.4192 -0.7386  0.0540
10126TIP3    H251794   2.364   1.409   2.931  1.1880  1.3412  0.4762
10127TIP3   OH251795   0.728   1.249   7.055  1.1091 -0.3013 -0.0165
10127TIP3    H151796   0.735   1.286   7.143  1.0427  0.7667 -0.4405
10127TIP3    H251797   0.767   1.316   6.998  1.5149 -1.1506 -0.7568
10128TIP3   OH251798   6.366   0.900   1.238  0.2947  0.0258  0.9169
10128TIP3    H151799   6.322   0.983   1.255  1.6847  0.8212  0.6939
10128TIP3    H251800   6.388   0.867   1.325 -0.2976 -0.1530  1.0075
10129TIP3   OH251801   5.641   6.074  15.870 -0.8370 -0.3907 -0.1010
10129TIP3    H151802   5.584   6.093  15.795 -0.3731 -0.2575 -0.4262
10129TIP3    H251803   5.653   5.979  15.867 -1.2479 -0.4502  0.1201
10130TIP3   OH251804   0.549   2.175   1.457  0.4959 -0.0359 -0.1568
10130TIP3    H151805   0.619   2.233   1.429  0.7420  0.2720  1.0561
10130TIP3    H251806   0.473   2.201   1.404  0.4847  1.6915  0.6681
10131TIP3   OH251807   0.439   0.323   3.458  0.7131 -0.1219  0.4475
10131TIP3    H151808   0.515   0.277   3.423  1.8659  0.4262  2.0935
10131TIP3    H251809   0.472   0.367   3.537  0.0691  4.6483 -1.6038
10132TIP3   OH251810   3.844   4.105  15.393  0.0811  0.0901 -0.0194
10132TIP3    H151811   3.858   4.084  15.485  0.2696 -0.8614 -0.2558
10132TIP3    H251812   3.882   4.031  15.345  0.8842  1.0370 -0.8933
10133TIP3   OH251813   5.934   5.142   4.092 -0.0950 -0.0050 -0.2235
10133TIP3    H151814   5.942   5.046   4.094  1.3789  0.0862  2.0076
10133TIP3    H251815   5.955   5.169   4.181 -1.2541  2.3815 -0.6120
10134TIP3   OH251816   4.800   5.137  12.993  0.1077  0.2684 -0.2057
10134TIP3    H151817   4.721   5.167  12.949 -1.2937 -1.3082  1.1205
10134TIP3    H251818   4.864   5.125  12.923 -1.7439 -1.2982 -1.7195
10135TIP3   OH251819   2.659   2.749   1.395 -0.0871 -0.1891  0.4866
10135TIP3    H151820   2.567   2.737   1.418 -0.3436 -0.8564 -0.7664
10135TIP3    H251821   2.707   2.729   1.475 -1.0843  1.8207  1.6539
10136TIP3   OH251822   4.186   2.901   0.488  0.2968  0.8694  0.1088
10136TIP3    H151823   4.122   2.949   0.541  0.0988 -0.3634  1.0448
10136TIP3    H251824   4.246   2.863   0.552  0.0588 -0.6415 -0.5224
10137TIP3   OH251825   5.760   6.748   5.225 -0.2672 -0.2932  0.3863
10137TIP3    H151826   5.813   6.672   5.247 -0.0665 -0.1632  0.3512
10137TIP3    H251827   5.805   6.787   5.150  0.9244  1.1593  1.7806
10138TIP3   OH251828   3.641   3.210   4.502 -0.6570 -0.1602  0.1540
10138TIP3    H151829   3.658   3.262   4.580 -0.3776  0.9266 -0.6081
10138TIP3    H251830   3.676   3.123   4.522  0.5197  0.4423  0.7813
10139TIP3   OH251831   3.375   2.416  13.625 -0.3041  0.2456 -0.2559
10139TIP3    H151832   3.432   2.347  13.659 -1.8120  0.1029  2.2346
10139TIP3    H251833   3.408   2.496  13.665 -1.7485  0.1568  1.2511
10140TIP3   OH251834   5.034   4.256   4.522  0.5443  0.3183  0.2352
10140TIP3    H151835   5.034   4.314   4.598 -1.2178  1.7883 -0.8254
10140TIP3    H251836   5.024   4.168   4.558  2.4546  0.6919  1.8250
10141TIP3   OH251837   4.516   5.318  11.828  0.0957 -0.3030  0.0283
10141TIP3    H151838   4.505   5.263  11.750  0.7539  0.5623 -0.6873
10141TIP3    H251839   4.453   5.282  11.891  1.9199 -3.2600  0.3671
10142TIP3   OH251840   1.570   4.947  16.522 -0.3850 -0.3308  0.5762
10142TIP3    H151841   1.629   5.017  16.495 -0.2121 -1.0707 -1.1117
10142TIP3    H251842   1.624   4.868  16.518 -1.2079 -0.8812 -0.0123
10143TIP3   OH251843   1.352   0.070  12.317  0.0160  0.0995  0.3737
10143TIP3    H151844   1.343   0.137  12.384  0.3172  0.3629  0.1551
10143TIP3    H251845   1.332   0.115  12.235  2.8201  0.6660 -0.1293
10144TIP3   OH251846   1.810   3.011   5.122  0.0281  0.0217  0.2788
10144TIP3    H151847   1.835   3.074   5.055 -1.1284  0.4487  0.2281
10144TIP3    H251848   1.841   2.926   5.088  0.0417  0.3222 -0.4813
10145TIP3   OH251849   1.249   0.430  15.424 -0.4867  0.0763  0.3820
10145TIP3    H151850   1.341   0.454  15.440 -0.0706 -1.0549 -0.2039
10145TIP3    H251851   1.199   0.488  15.481  0.6296  0.2463  1.2188
10146TIP3   OH251852   4.666   6.370   1.950 -0.2398  0.2860  0.9113
10146TIP3    H151853   4.593   6.332   1.997  0.0714 -0.2183  0.9962
10146TIP3    H251854   4.726   6.296   1.934 -0.0194  0.5769  0.3404
10147TIP3   OH251855   4.029   4.468  17.300  0.0583 -0.0667  0.4811
10147TIP3    H151856   4.062   4.381  17.322  0.9714  0.2850  0.5620
10147TIP3    H251857   3.934   4.459  17.299  0.1574 -1.5316 -1.3869
10148TIP3   OH251858   6.442   2.994   0.513 -0.2794 -0.4360 -0.3905
10148TIP3    H151859   6.498   2.937   0.565  0.3304 -0.0005 -0.5527
10148TIP3    H251860   6.460   2.969   0.422 -0.1855 -0.1599 -0.4520
10149TIP3   OH251861   2.429   4.485   3.961  0.5291  0.0906  0.0193
10149TIP3    H151862   2.483   4.406   3.967 -0.7809 -1.4468 -4.2404
10149TIP3    H251863   2.468   4.536   3.890 -1.3079  0.8927 -0.4813
10150TIP3   OH251864   6.411   2.356   5.542 -0.3321  0.4345  0.2272
10150TIP3    H151865   6.434   2.430   5.599 -0.2862 -0.4876  1.4512
10150TIP3    H251866   6.469   2.365   5.467 -1.1564  2.3165 -0.2456
10151TIP3   OH251867   3.906   2.199  10.261  0.4963  0.5223 -0.3100
10151TIP3    H151868   3.922   2.155  10.177 -3.3606 -0.7576 -0.5580
10151TIP3    H251869   3.877   2.287  10.237 -0.3248  0.2515 -0.3349
10152TIP3   OH251870   6.615   2.191  14.972  0.2607  0.0289  0.1894
10152TIP3    H151871   6.536   2.201  14.919  0.1967 -1.5390 -0.0611
10152TIP3    H251872   6.686   2.218  14.914  0.1303 -1.0806 -0.5223
10153TIP3   OH251873   4.425   3.751   1.483  0.3076  0.0744  0.4489
10153TIP3    H151874   4.429   3.659   1.457 -0.6612 -0.6858  2.7145
10153TIP3    H251875   4.467   3.798   1.411 -1.0683 -1.9055 -1.8134
10154TIP3   OH251876   4.313   2.823  13.660  0.3480 -0.3670 -0.1350
10154TIP3    H151877   4.294   2.824  13.754 -0.4905  0.6205 -0.2974
10154TIP3    H251878   4.273   2.742  13.628 -1.0275  0.2112  0.0533
10155TIP3   OH251879   6.204   3.937  14.730  0.3816  0.2870  0.2860
10155TIP3    H151880   6.118   3.926  14.690  1.1500 -1.5811 -1.0125
10155TIP3    H251881   6.194   3.903  14.819  0.0295 -0.9452 -0.2087
10156TIP3   OH251882   5.831   6.709  10.359 -0.0037  0.3435  0.0654
10156TIP3    H151883   5.850   6.626  10.403  0.0718  0.9906  1.2980
10156TIP3    H251884   5.793   6.684  10.275 -0.8149 -0.9420  0.7933
10157TIP3   OH251885   1.141   6.696   6.001 -0.0537 -0.2619  0.3542
10157TIP3    H151886   1.208   6.740   6.053 -1.2456  0.4042  1.3853
10157TIP3    H251887   1.121   6.756   5.929 -2.5068  1.5816  2.3906
10158TIP3   OH251888   2.448   0.825  13.781  0.5544  1.0008  0.3688
10158TIP3    H151889   2.479   0.869  13.861  0.0950 -0.9429  1.6847
10158TIP3    H251890   2.366   0.783  13.808 -0.1829  1.1921 -1.4566
10159TIP3   OH251891   4.976   0.307   3.480 -0.7703 -0.1150  0.6471
10159TIP3    H151892   4.887   0.341   3.470 -1.8223 -2.8009 -0.1787
10159TIP3    H251893   4.970   0.247   3.554 -0.1217 -1.6159 -0.4607
10160TIP3   OH251894   5.118   3.507  12.065 -0.2410 -0.2363 -0.0345
10160TIP3    H151895   5.092   3.569  12.133 -0.5910  0.2619 -0.6219
10160TIP3    H251896   5.038   3.457  12.047  0.1187 -1.1081  0.6772
10161TIP3   OH251897   1.224   2.370   5.708  0.4032  0.0372 -0.2288
10161TIP3    H151898   1.252   2.459   5.728  0.5317 -0.4024  1.9071
10161TIP3    H251899   1.266   2.316   5.776 -0.3515 -1.5282 -0.9346
10162TIP3   OH251900   0.235   5.077  13.796  0.3961  0.5807 -0.0234
10162TIP3    H151901   0.198   5.004  13.846 -0.4520  0.5856 -0.6057
10162TIP3    H251902   0.180   5.082  13.717  0.6837  1.5963 -0.1791
10163TIP3   OH251903   5.980   4.838   5.243 -0.3837  0.2484 -0.1375
10163TIP3    H151904   6.037   4.786   5.299  0.1383  0.3049 -0.6065
10163TIP3    H251905   5.979   4.925   5.284  0.8181  0.5732 -0.7658
10164TIP3   OH251906   6.722   0.494   0.728 -0.3969  0.5695 -0.2186
10164TIP3    H151907   6.689   0.555   0.793 -0.1474  0.9264 -0.4206
10164TIP3    H251908   6.817   0.494   0.741 -0.5253 -1.3569  1.1563
10165TIP3   OH251909   5.880   3.209  12.007  0.3968 -0.2173  0.1059
10165TIP3    H151910   5.912   3.286  12.054  1.4133  0.3103 -1.3933
10165TIP3    H251911   5.957   3.175  11.961 -0.1263 -1.9136  0.4377
10166TIP3   OH251912   1.724   4.236   4.860 -0.2654 -0.6565  0.3690
10166TIP3    H151913   1.800   4.289   4.837 -1.6318 -0.0133 -3.4182
10166TIP3    H251914   1.751   4.146   4.840 -0.7571 -0.3090 -2.2115
10167TIP3   OH251915   5.236   4.067  13.994  0.5231 -0.1964 -0.1669
10167TIP3    H151916   5.192   4.032  13.916  0.9110 -1.0147 -0.0328
10167TIP3    H251917   5.216   4.161  13.993  1.0678 -0.0677 -1.6199
10168TIP3   OH251918   3.332   1.173   2.921  0.2403  0.5969  0.4170
10168TIP3    H151919   3.330   1.262   2.954 -1.3058  0.1086  1.7568
10168TIP3    H251920   3.376   1.180   2.836 -0.9692  2.8289 -0.0913
10169TIP3   OH251921   5.904   2.580   3.525 -0.4131  0.2683 -0.0208
10169TIP3    H151922   5.834   2.645   3.518  1.3645  2.5093  1.6629
10169TIP3    H251923   5.942   2.578   3.437 -1.0924  0.7819 -0.3450
10170TIP3   OH251924   3.005   6.022  12.464  0.2863  0.2490 -0.0858
10170TIP3    H151925   3.045   6.093  12.413  0.5098 -1.7573 -2.9565
10170TIP3    H251926   2.920   6.006  12.422 -0.0555 -0.7424  0.9160
10171TIP3   OH251927   1.950   1.797   0.764 -0.0062 -0.0755  0.5225
10171TIP3    H151928   2.006   1.797   0.842 -0.4764  0.5363  0.8630
10171TIP3    H251929   1.999   1.745   0.700 -0.7754 -2.8463  2.0486
10172TIP3   OH251930   2.565   5.494   2.480  0.3367 -0.2318  0.4942
10172TIP3    H151931   2.583   5.587   2.491 -0.2054 -0.1006  0.2879
10172TIP3    H251932   2.549   5.462   2.568  1.1908 -0.2746  0.6421
10173TIP3   OH251933   2.464   3.724   3.356 -0.2195  0.1056 -0.2848
10173TIP3    H151934   2.471   3.773   3.438 -1.7488  0.8954 -0.5861
10173TIP3    H251935   2.475   3.790   3.288 -1.6302 -0.0550 -0.6970
10174TIP3   OH251936   4.699   2.344  11.456 -0.1986  0.2445 -0.0953
10174TIP3    H151937   4.674   2.358  11.547 -0.2746  1.1544 -0.2530
10174TIP3    H251938   4.761   2.414  11.436  2.1322 -1.6283  0.1142
10175TIP3   OH251939   4.245   1.108  12.349  0.1342  0.1423  0.4634
10175TIP3    H151940   4.242   1.173  12.420 -0.5405 -1.3617  1.8903
10175TIP3    H251941   4.187   1.038  12.379  2.3687 -2.0653 -0.0428
10176TIP3   OH251942   4.847   4.700  14.173 -0.4405  0.1101  0.5852
10176TIP3    H151943   4.859   4.789  14.142 -1.5744  0.2633  0.5492
10176TIP3    H251944   4.917   4.686  14.236 -1.5140  1.7931  2.2588
10177TIP3   OH251945   1.106   2.799   5.787  0.3457  0.4665  0.3585
10177TIP3    H151946   1.105   2.840   5.700  0.6795  0.6815  0.4522
10177TIP3    H251947   1.198   2.775   5.801 -0.2002 -2.8260 -0.8456
10178TIP3   OH251948   1.406   3.780   1.894 -0.0364  0.1480 -0.1184
10178TIP3    H151949   1.321   3.816   1.920 -0.3955 -0.1352 -0.8826
10178TIP3    H251950   1.452   3.767   1.977 -0.8524 -0.0007  0.3266
10179TIP3   OH251951   0.586   3.107  13.320  0.0798  0.0263  0.1197
10179TIP3    H151952   0.664   3.058  13.292 -1.0120 -1.8167  0.1319
10179TIP3    H251953   0.541   3.130  13.238  0.5811  1.0538  0.1147
10180TIP3   OH251954   1.122   3.080  13.185 -0.2152 -0.5494  0.1149
10180TIP3    H151955   1.112   2.986  13.195 -2.6060 -0.1453  2.3970
10180TIP3    H251956   1.034   3.113  13.171  0.6364  1.3491 -1.2792
10181TIP3   OH251957   0.331   3.587   0.269 -0.4443 -0.2297  0.0730
10181TIP3    H151958   0.355   3.679   0.278 -2.7253  0.3330  1.3156
10181TIP3    H251959   0.240   3.589   0.239 -0.4012 -2.0982 -0.2817
10182TIP3   OH251960   1.804   4.241  15.995 -0.3651 -0.1610  0.0843
10182TIP3    H151961   1.808   4.273  15.905  0.1892  1.1254  0.5308
10182TIP3    H251962   1.876   4.179  16.001 -1.4722 -1.5899 -0.8114
10183TIP3   OH251963   0.115   4.402  17.100 -0.2261  0.2519  0.4599
10183TIP3    H151964   0.188   4.406  17.162  1.1094 -0.9482 -0.9544
10183TIP3    H251965   0.153   4.430  17.017 -0.4239 -3.4611 -1.0579
10184TIP3   OH251966   5.616   4.134   2.083 -0.2060  0.0429 -0.4008
10184TIP3    H151967   5.537   4.184   2.103  0.9310  1.8584 -0.2089
10184TIP3    H251968   5.632   4.081   2.161  0.3939  1.9271  0.8104
10185TIP3   OH251969   0.198   1.511  13.832  0.2665  0.2539 -0.0791
10185TIP3    H151970   0.175   1.492  13.741 -0.8862 -0.4325  0.3316
10185TIP3    H251971   0.183   1.605  13.841  1.6835  0.5913 -0.9342
10186TIP3   OH251972   0.118   2.615   3.006 -0.1293 -0.5756  0.3774
10186TIP3    H151973   0.040   2.561   3.018  0.5198 -1.7117 -0.3496
10186TIP3    H251974   0.160   2.580   2.928  0.6794  0.5553  0.2798
10187TIP3   OH251975   1.336   1.959   3.884  0.5065  0.3479 -0.4562
10187TIP3    H151976   1.380   1.886   3.927 -1.9527 -1.0958 -0.2097
10187TIP3    H251977   1.362   1.952   3.792  0.7481 -0.5001 -0.3339
10188TIP3   OH251978   3.834   2.506  11.058 -0.0628 -0.0821 -0.4436
10188TIP3    H151979   3.875   2.546  10.981  0.1608  0.8751  0.1586
10188TIP3    H251980   3.821   2.415  11.033  1.0557 -0.0543 -1.2021
10189TIP3   OH251981   4.649   6.114  11.491 -0.7946 -0.2464 -0.5564
10189TIP3    H151982   4.619   6.135  11.403  0.2906 -0.3542 -0.9709
10189TIP3    H251983   4.734   6.072  11.478 -0.7737 -0.5768  0.5254
10190TIP3   OH251984   3.477   4.989  15.755  0.1467 -0.4145  0.5758
10190TIP3    H151985   3.520   4.930  15.817 -0.1132 -2.9560 -1.4743
10190TIP3    H251986   3.385   4.989  15.782  0.6637  1.8977  2.6177
10191TIP3   OH251987   1.494   6.611   4.812 -0.0559 -0.3084  0.2286
10191TIP3    H151988   1.428   6.680   4.811 -0.6046 -0.8221  0.7109
10191TIP3    H251989   1.462   6.546   4.749  0.2816 -0.2992  0.0406
10192TIP3   OH251990   1.975   0.744   2.159 -0.6877  0.5818  0.0126
10192TIP3    H151991   1.886   0.711   2.149 -1.5986  2.2952  1.8200
10192TIP3    H251992   2.027   0.667   2.181 -2.0453 -0.2061  0.5682
10193TIP3   OH251993   1.737   0.439   1.358 -0.3965 -0.0594  0.0648
10193TIP3    H151994   1.738   0.467   1.267 -0.7680 -0.7002 -0.1438
10193TIP3    H251995   1.829   0.438   1.384 -0.2851  0.0594 -0.3178
10194TIP3   OH251996   2.370   2.375   1.498 -0.4274 -0.1130  0.0049
10194TIP3    H151997   2.414   2.293   1.516 -1.7972 -0.5504  1.5848
10194TIP3    H251998   2.334   2.365   1.410 -0.0903 -0.9595 -0.0384
10195TIP3   OH251999   4.914   4.385   1.869 -0.0520 -0.1893 -0.3695
10195TIP3    H152000   4.907   4.322   1.797  2.0139 -3.0512  1.6924
10195TIP3    H252001   4.923   4.331   1.947  2.1336  2.6836  1.5842
10196TIP3   OH252002   3.559   1.680  16.151  0.3096  0.1790  0.5218
10196TIP3    H152003   3.534   1.768  16.123  0.0624 -0.1782 -0.4453
10196TIP3    H252004   3.642   1.691  16.196  1.3038  0.6809 -1.3469
10197TIP3   OH252005   5.119   6.075   0.034  0.1098 -0.1864  0.3356
10197TIP3    H152006   5.094   6.067   0.126 -1.7240  0.0598 -0.1026
10197TIP3    H252007   5.078   6.157   0.005  2.1138  0.6707 -0.2841
10198TIP3   OH252008   4.770   4.318  16.018 -0.2760 -0.2857  0.5397
10198TIP3    H152009   4.733   4.386  15.962  1.8439  0.2627 -0.2922
10198TIP3    H252010   4.757   4.349  16.107 -0.5099  0.5679  0.2148
10199TIP3   OH252011   3.699   3.797  15.071  0.5793  0.1929 -0.5060
10199TIP3    H152012   3.685   3.704  15.087  1.4127  0.1897  0.2453
10199TIP3    H252013   3.706   3.804  14.975 -0.9085 -0.2966 -0.6635
10200TIP3   OH252014   5.411   4.773   0.773 -0.0089  0.2196  0.2044
10200TIP3    H152015   5.362   4.828   0.834 -1.1043  1.1402 -1.4393
10200TIP3    H252016   5.366   4.689   0.775 -0.4783  0.4699  0.1270
10201TIP3   OH252017   3.201   3.448   4.618  0.1411 -0.4635 -0.0068
10201TIP3    H152018   3.166   3.375   4.670  0.1784 -0.1860  0.4197
10201TIP3    H252019   3.275   3.411   4.571 -0.0551 -0.7877 -0.0645
10202TIP3   OH252020   5.377   0.516   0.458  0.0827 -0.4516  0.7396
10202TIP3    H152021   5.324   0.584   0.416  0.8739  0.6992  1.5557
10202TIP3    H252022   5.463   0.556   0.467  1.2955 -2.4465 -1.0234
10203TIP3   OH252023   2.400   6.505  16.905  0.1265 -0.2077  0.0870
10203TIP3    H152024   2.492   6.480  16.896 -0.1449 -1.1153 -0.2340
10203TIP3    H252025   2.386   6.572  16.839  0.9167  0.9953  1.0933
10204TIP3   OH252026   4.549   3.021   5.866  0.0479  0.1279  0.0177
10204TIP3    H152027   4.527   3.035   5.958 -0.6390  3.4513 -0.5079
10204TIP3    H252028   4.631   3.070   5.854  0.1598 -0.3279 -1.1363
10205TIP3   OH252029   3.432   0.088  11.272 -0.3194  0.8779  0.2463
10205TIP3    H152030   3.468   0.004  11.245 -0.2811  0.9379  0.1098
10205TIP3    H252031   3.419   0.137  11.190 -1.3140  0.6188  0.2380
10206TIP3   OH252032   2.110   1.604  15.264  0.1110 -0.4978  0.3321
10206TIP3    H152033   2.049   1.538  15.230 -0.3551 -0.1342  0.4626
10206TIP3    H252034   2.065   1.643  15.338 -0.3774  1.1979 -0.8014
10207TIP3   OH252035   4.231   1.664  15.617  0.0054  0.0030 -0.3536
10207TIP3    H152036   4.250   1.721  15.542  0.4643  0.0480 -0.2027
10207TIP3    H252037   4.188   1.721  15.680 -0.6523 -0.1011 -0.6983
10208TIP3   OH252038   4.857   5.695  16.071  0.1112  0.1010  0.2778
10208TIP3    H152039   4.777   5.725  16.028 -0.2826  0.0001  0.9244
10208TIP3    H252040   4.843   5.713  16.164  1.8046  2.3229  0.1874
10209TIP3   OH252041   0.421   4.289   1.741 -0.3002  0.0378 -0.2458
10209TIP3    H152042   0.373   4.313   1.662  1.7143  1.2574 -1.1815
10209TIP3    H252043   0.475   4.366   1.761  1.4489 -1.3119  0.5746
10210TIP3   OH252044   0.921   3.320  17.395 -0.1069 -0.3520 -0.0661
10210TIP3    H152045   0.939   3.233  17.429  0.5302 -0.1147  0.2126
10210TIP3    H252046   0.856   3.357  17.455 -0.2803 -0.5816 -0.1117
10211TIP3   OH252047   2.442   4.827  16.604  0.7538 -0.0380 -0.2647
10211TIP3    H152048   2.393   4.745  16.614  1.1028 -0.3434 -0.9267
10211TIP3    H252049   2.432   4.872  16.688  0.0491 -0.4800 -0.1034
10212TIP3   OH252050   0.866   1.734  11.296 -0.2229  0.3278 -0.7867
10212TIP3    H152051   0.943   1.691  11.334  0.8113 -0.4597 -3.5208
10212TIP3    H252052   0.805   1.663  11.277 -0.6630  0.6771 -0.7101
10213TIP3   OH252053   2.890   4.495  12.738 -0.0979 -0.6390 -0.2123
10213TIP3    H152054   2.816   4.484  12.679 -1.9235 -1.6567  2.1080
10213TIP3    H252055   2.879   4.583  12.774 -1.0409 -1.2929  1.1655
10214TIP3   OH252056   6.509   0.111  16.772 -0.0971  0.0374  0.4327
10214TIP3    H152057   6.421   0.133  16.741 -0.4550 -0.0540  1.3471
10214TIP3    H252058   6.509   0.139  16.864  0.6019 -0.5980  0.6300
10215TIP3   OH252059   5.990   5.726  10.773 -0.2597 -0.7699 -0.2994
10215TIP3    H152060   5.931   5.781  10.824  1.3339 -0.5594  1.4213
10215TIP3    H252061   5.947   5.717  10.688 -3.1990 -1.4013  1.1324
10216TIP3   OH252062   3.595   5.916  13.609 -0.0414  0.2184 -1.0915
10216TIP3    H152063   3.547   5.940  13.689  5.5583  0.9850  2.6380
10216TIP3    H252064   3.619   6.000  13.570  2.3897  0.1611  0.1341
10217TIP3   OH252065   1.083   3.639  14.164  0.2091 -0.4898 -0.4771
10217TIP3    H152066   1.158   3.602  14.211  1.9079  2.0062 -0.9751
10217TIP3    H252067   1.114   3.648  14.074 -1.2972 -0.8482 -1.0557
10218TIP3   OH252068   1.365   3.909   0.791  0.0914 -0.1476 -0.0841
10218TIP3    H152069   1.442   3.910   0.847  0.9188  0.2479 -1.2032
10218TIP3    H252070   1.303   3.968   0.835  1.2376  1.2424 -0.2521
10219TIP3   OH252071   2.615   5.460   5.056 -0.0263 -0.1460 -0.3333
10219TIP3    H152072   2.620   5.441   5.150 -1.5197  1.4696  0.1334
10219TIP3    H252073   2.549   5.400   5.023 -2.2614  1.6991  0.4671
10220TIP3   OH252074   1.335   2.190   5.909 -0.3199  0.0997  0.2704
10220TIP3    H152075   1.428   2.198   5.886 -0.3545 -0.5176 -0.1234
10220TIP3    H252076   1.326   2.099   5.937 -1.0721 -0.2257 -0.9745
10221TIP3   OH252077   4.572   6.069   3.694  0.2893  0.1543  0.3696
10221TIP3    H152078   4.634   6.136   3.666  0.4805  0.2276  0.9581
10221TIP3    H252079   4.486   6.112   3.688  0.3729  0.3214  0.3605
10222TIP3   OH252080   1.052   2.635   2.908  0.2511 -0.7529  0.0807
10222TIP3    H152081   1.099   2.685   2.842  0.4442  0.2765  0.9730
10222TIP3    H252082   1.111   2.562   2.929 -0.1402 -1.5478 -1.4036
10223TIP3   OH252083   5.170   6.100   4.357  0.5520 -0.4238 -0.0302
10223TIP3    H152084   5.210   6.186   4.371 -1.0760  0.4960 -0.7967
10223TIP3    H252085   5.194   6.050   4.435  0.2080  1.2444  1.2000
10224TIP3   OH252086   5.800   0.769  17.165 -0.5117 -0.1202 -0.2530
10224TIP3    H152087   5.712   0.752  17.130  0.1012 -0.9430 -1.4839
10224TIP3    H252088   5.826   0.687  17.207  0.9079 -1.0751 -2.7657
10225TIP3   OH252089   2.756   0.216  16.588 -0.7748 -0.0190  0.6678
10225TIP3    H152090   2.691   0.243  16.523  0.2243 -0.3774 -0.5197
10225TIP3    H252091   2.705   0.198  16.667 -2.2261 -0.9833 -0.4354
10226TIP3   OH252092   2.842   5.558  12.894 -0.4877 -0.3219 -0.1138
10226TIP3    H152093   2.839   5.484  12.833 -1.9177 -0.9961  0.7036
10226TIP3    H252094   2.754   5.560  12.932 -0.0654  0.9951  0.8373
10227TIP3   OH252095   6.541   3.227   3.941 -0.5047  0.3303  0.2577
10227TIP3    H152096   6.492   3.145   3.940  0.6788 -0.4072 -0.8810
10227TIP3    H252097   6.502   3.279   3.871  0.6769 -0.5185 -1.0980
10228TIP3   OH252098   2.303   2.320   4.095  0.2056  0.1723  0.0578
10228TIP3    H152099   2.242   2.247   4.082  0.7737 -0.6882  1.8022
10228TIP3    H252100   2.266   2.392   4.045 -1.2994 -0.8261 -0.3308
10229TIP3   OH252101   4.453   2.756  11.179 -0.2223 -0.5682  0.3765
10229TIP3    H152102   4.501   2.742  11.097 -1.5364 -1.2608 -0.3025
10229TIP3    H252103   4.364   2.777  11.151 -0.5679 -0.3367  1.6261
10230TIP3   OH252104   1.482   1.214   6.768 -0.2730 -0.3094 -0.1852
10230TIP3    H152105   1.509   1.124   6.747 -0.6369 -1.4319  3.4336
10230TIP3    H252106   1.388   1.215   6.754 -1.3311 -2.4236  4.6679
10231TIP3   OH252107   2.019   4.216  16.242  0.0285 -0.2027  0.2604
10231TIP3    H152108   2.003   4.274  16.167 -0.2983 -0.3604  0.2028
10231TIP3    H252109   2.113   4.222  16.258 -0.1864  1.4092  1.1356
10232TIP3   OH252110   2.468   2.537  13.516  0.1552  0.1703  0.0865
10232TIP3    H152111   2.385   2.582  13.533 -0.4443 -0.1094 -1.7807
10232TIP3    H252112   2.457   2.451  13.557 -1.5377 -0.7896 -2.1278
10233TIP3   OH252113   5.038   4.194   1.032  0.5239  0.4454 -0.1521
10233TIP3    H152114   5.012   4.130   1.098  1.1814  1.1584  0.8174
10233TIP3    H252115   4.983   4.270   1.048 -1.1451 -0.2517 -2.0962
10234TIP3   OH252116   1.107   1.979  16.185 -0.3757 -0.5715  0.1701
10234TIP3    H152117   1.082   2.019  16.268 -2.1587 -2.1703  0.4731
10234TIP3    H252118   1.202   1.974  16.188 -0.1093  2.6511  0.5026
10235TIP3   OH252119   5.257   4.684   0.563 -0.0012  0.4744 -0.2047
10235TIP3    H152120   5.342   4.714   0.595  0.0069 -1.0566  1.3166
10235TIP3    H252121   5.269   4.591   0.543 -1.1295  0.4060 -0.6753
10236TIP3   OH252122   2.722   6.693   6.505 -0.4976 -0.5756 -0.0379
10236TIP3    H152123   2.800   6.680   6.452 -0.4412 -1.6295  0.2849
10236TIP3    H252124   2.735   6.779   6.546  1.1258 -1.3052  1.0505
10237TIP3   OH252125   5.010   3.259  16.384 -0.8952  0.5837 -0.0711
10237TIP3    H152126   4.974   3.333  16.336  1.2519  1.1537 -0.8893
10237TIP3    H252127   4.962   3.183  16.351 -0.6723  1.1863 -1.8528
10238TIP3   OH252128   6.614   2.521  10.850 -0.1589  0.2423 -0.6594
10238TIP3    H152129   6.610   2.440  10.799 -1.3375  0.1038 -0.3674
10238TIP3    H252130   6.536   2.569  10.825 -0.9343  0.0504  1.1988
10239TIP3   OH252131   1.869   0.848  10.330  0.1238 -0.1500 -0.4888
10239TIP3    H152132   1.822   0.924  10.295  0.1444  0.1832  0.1909
10239TIP3    H252133   1.960   0.876  10.333  0.1658 -0.2895 -0.4715
10240TIP3   OH252134   1.422   2.602   4.426 -0.5811  0.5206 -0.5754
10240TIP3    H152135   1.488   2.535   4.408  0.0796  1.0879 -0.3079
10240TIP3    H252136   1.470   2.685   4.419 -0.8500  0.8816  1.2990
10241TIP3   OH252137   5.360   0.185   0.957 -0.7204  0.4143  0.1597
10241TIP3    H152138   5.286   0.238   0.987 -1.3851 -1.0841  1.3287
10241TIP3    H252139   5.410   0.166   1.036  0.6673  0.9827 -0.5506
10242TIP3   OH252140   4.616   0.876  12.731 -0.0314 -0.2463  0.3223
10242TIP3    H152141   4.689   0.913  12.780  0.0706 -1.1322  0.8743
10242TIP3    H252142   4.548   0.862  12.796 -0.1639 -0.7569  0.0816
10243TIP3   OH252143   4.658   2.466   2.723 -0.4161 -0.4737 -0.0758
10243TIP3    H152144   4.609   2.547   2.737 -0.2493 -0.6208  1.4532
10243TIP3    H252145   4.710   2.483   2.644 -0.7832  0.6983 -0.0853
10244TIP3   OH252146   1.164   2.656   2.292  0.7537 -0.0421  0.1177
10244TIP3    H152147   1.175   2.737   2.341  0.9464 -0.2157  0.3694
10244TIP3    H252148   1.070   2.651   2.273  0.9616  1.0526 -1.3374
10245TIP3   OH252149   5.542   3.853   4.810 -0.2850  1.2465 -0.1314
10245TIP3    H152150   5.599   3.792   4.858  0.3303  1.5722 -0.4249
10245TIP3    H252151   5.454   3.817   4.819 -0.0736  0.8932  0.5951
10246TIP3   OH252152   4.163   2.093  12.306  0.0710  0.6254  0.4641
10246TIP3    H152153   4.159   2.188  12.299 -0.9820  0.4708 -1.5855
10246TIP3    H252154   4.149   2.061  12.217  2.5822 -1.4285  0.6623
10247TIP3   OH252155   6.512   0.193  13.902  0.4255 -0.1840  0.3674
10247TIP3    H152156   6.594   0.213  13.856 -0.0436  1.2040  0.0857
10247TIP3    H252157   6.449   0.178  13.832  0.2717 -0.5281  0.5803
10248TIP3   OH252158   0.343   6.535   4.554  0.1465  0.0578  0.2354
10248TIP3    H152159   0.292   6.459   4.524 -1.0791  0.7518  0.4931
10248TIP3    H252160   0.368   6.513   4.643  0.9925 -0.6180 -0.1503
10249TIP3   OH252161   0.988   4.729  14.812 -0.3351  0.0831 -0.0602
10249TIP3    H152162   1.055   4.780  14.767  1.1738 -0.2153  1.7171
10249TIP3    H252163   0.937   4.793  14.861  0.0430  0.1385  0.2739
10250TIP3   OH252164   2.433   3.099  14.337  0.2989  0.1175 -0.5046
10250TIP3    H152165   2.421   3.124  14.246 -2.2144 -2.5802 -1.0623
10250TIP3    H252166   2.432   3.003  14.336  0.6905 -0.0065  2.3121
10251TIP3   OH252167   6.008   6.642  14.971  0.5026  0.4677  0.3533
10251TIP3    H152168   5.956   6.723  14.964  2.2375  1.5092 -1.2284
10251TIP3    H252169   6.034   6.639  15.063 -3.3705 -0.8631  1.6321
10252TIP3   OH252170   1.909   4.892  12.002  0.2931 -0.6131  0.1774
10252TIP3    H152171   1.925   4.985  12.011  0.1532 -0.6739  1.0918
10252TIP3    H252172   1.983   4.850  12.047  1.9561 -1.0199 -2.6632
10253TIP3   OH252173   0.542   1.981   0.166  0.2217 -0.2348 -0.0195
10253TIP3    H152174   0.524   1.914   0.232 -0.2244 -0.2399 -0.1438
10253TIP3    H252175   0.636   2.001   0.177 -0.2386  1.2308  2.0039
10254TIP3   OH252176   6.715   3.631  14.383 -0.2852  0.3503  0.0446
10254TIP3    H152177   6.777   3.699  14.357  2.3067 -2.1349 -0.7754
10254TIP3    H252178   6.709   3.639  14.479  0.6628  1.1418  0.0521
10255TIP3   OH252179   3.199   4.235   5.328 -0.2525  0.5810  0.3411
10255TIP3    H152180   3.193   4.197   5.241 -1.0636  0.8439  0.2752
10255TIP3    H252181   3.233   4.323   5.314 -2.1706  1.3255  0.0715
10256TIP3   OH252182   2.635   4.963  14.819  0.0790  0.1403 -0.3039
10256TIP3    H152183   2.696   5.021  14.865  0.3328 -0.2758 -0.1100
10256TIP3    H252184   2.631   4.885  14.873 -0.2141 -0.0479 -0.5981
10257TIP3   OH252185   6.663   2.094   5.792  0.2909 -0.0162 -0.2154
10257TIP3    H152186   6.738   2.051   5.833  1.6322  1.2096 -1.3030
10257TIP3    H252187   6.683   2.187   5.797 -0.8940  0.3064 -1.0615
10258TIP3   OH252188   2.384   1.476  12.079  0.1956  0.0351  0.2784
10258TIP3    H152189   2.381   1.553  12.136 -0.0896  0.1059  0.1716
10258TIP3    H252190   2.416   1.405  12.135  2.7409  0.7154 -0.1824
10259TIP3   OH252191   1.494   1.106  11.617  0.0681  0.4727  0.5828
10259TIP3    H152192   1.463   1.114  11.707 -0.2227 -0.7855  0.6143
10259TIP3    H252193   1.585   1.078  11.625 -0.2723 -0.7246  0.5131
10260TIP3   OH252194   6.028   4.872   3.476  0.1213 -0.4541  0.3238
10260TIP3    H152195   6.113   4.841   3.506 -0.6799 -1.2075  1.9342
10260TIP3    H252196   6.005   4.943   3.536 -0.0478  0.2841 -0.5944
10261TIP3   OH252197   5.008   4.156  12.411  0.2027  0.0963  0.1586
10261TIP3    H152198   5.004   4.060  12.407  0.8159  0.0062  1.3928
10261TIP3    H252199   5.046   4.175  12.496 -2.8066  1.5307  1.3175
10262TIP3   OH252200   1.457   2.463  11.895  0.2824  0.2136  0.0816
10262TIP3    H152201   1.447   2.433  11.805  3.0221 -0.1824 -0.1780
10262TIP3    H252202   1.490   2.553  11.886 -1.6636  1.0451  0.7734
10263TIP3   OH252203   4.830   4.031  15.107 -0.7888 -0.3127 -0.2223
10263TIP3    H152204   4.820   3.974  15.184 -0.9746 -0.5089 -0.3916
10263TIP3    H252205   4.811   4.119  15.139 -0.3474 -0.3251  0.0780
10264TIP3   OH252206   3.353   5.619   0.938  0.4841  0.1460  0.1074
10264TIP3    H152207   3.340   5.527   0.915 -1.6352  0.0374  1.3964
10264TIP3    H252208   3.363   5.663   0.854 -1.9207 -0.8631 -0.8313
10265TIP3   OH252209   3.128   2.312   0.267  0.2944 -0.3672  0.4116
10265TIP3    H152210   3.151   2.247   0.334 -2.9247 -0.1976  1.8995
10265TIP3    H252211   3.169   2.393   0.298 -0.7937 -0.3873  2.0452
10266TIP3   OH252212   2.502   4.842   4.025  0.2780  0.3100  0.0697
10266TIP3    H152213   2.412   4.833   3.994  1.1772  1.1626 -3.1612
10266TIP3    H252214   2.535   4.753   4.030 -0.9827 -0.1119  2.4261
10267TIP3   OH252215   3.536   2.930   4.162 -0.0584 -0.0843  0.1706
10267TIP3    H152216   3.544   2.909   4.255  1.0479  0.5174  0.2288
10267TIP3    H252217   3.526   3.025   4.160  2.9964  0.3271 -0.4143
10268TIP3   OH252218   4.982   5.530   0.946  0.6060 -0.3291  0.0207
10268TIP3    H152219   4.999   5.624   0.954  0.3334 -0.2617 -0.1753
10268TIP3    H252220   4.898   5.525   0.900  0.3329 -0.6612  0.5508
10269TIP3   OH252221   2.296   1.606  13.265 -0.9377 -0.3722 -0.4083
10269TIP3    H152222   2.354   1.590  13.191  0.3232 -0.4514  0.5758
10269TIP3    H252223   2.249   1.523  13.277  0.9039 -1.3173  0.6323
10270TIP3   OH252224   6.665   3.288   4.555  0.4298  0.4113 -0.4341
10270TIP3    H152225   6.657   3.226   4.483 -0.2865  0.5742 -0.5080
10270TIP3    H252226   6.574   3.307   4.581  0.6842  0.0094  0.8115
10271TIP3   OH252227   5.493   3.848   1.431  0.1301 -0.2545 -0.2075
10271TIP3    H152228   5.517   3.939   1.417  0.2740 -0.1009  0.9477
10271TIP3    H252229   5.527   3.802   1.353  0.0745  0.6576 -0.7873
10272TIP3   OH252230   4.164   1.686   5.822  0.1777 -0.5616 -0.1898
10272TIP3    H152231   4.201   1.668   5.908 -0.6087 -0.1966  0.2362
10272TIP3    H252232   4.167   1.781   5.814  2.2948 -0.6787 -1.5123
10273TIP3   OH252233   0.720   6.567  14.983  0.4624 -0.2725 -0.5537
10273TIP3    H152234   0.802   6.596  15.024 -2.3447  1.2479  4.9714
10273TIP3    H252235   0.723   6.472  14.990  1.1932 -0.1732  1.0879
10274TIP3   OH252236   4.864   1.891   0.916  0.1623  0.3017 -0.5322
10274TIP3    H152237   4.861   1.964   0.978  0.4811  0.6810 -0.9577
10274TIP3    H252238   4.779   1.893   0.873 -0.2230 -0.2241  0.1777
10275TIP3   OH252239   5.484   6.156   0.181  0.6996  0.3732 -0.0660
10275TIP3    H152240   5.408   6.121   0.228  2.4588 -0.6779  2.1880
10275TIP3    H252241   5.447   6.192   0.100 -1.7711 -3.2941 -0.8207
10276TIP3   OH252242   3.964   0.828   6.068  0.3210  0.3792 -0.9032
10276TIP3    H152243   3.962   0.740   6.107  2.2772  1.1281  1.1473
10276TIP3    H252244   3.882   0.869   6.095  1.4618  0.7607  2.4654
10277TIP3   OH252245   0.043   2.921   5.724  0.4448 -0.1043 -0.2426
10277TIP3    H152246   0.021   2.998   5.776  0.2893 -0.1745 -0.2061
10277TIP3    H252247   0.135   2.904   5.744  0.9958  1.1130 -1.5617
10278TIP3   OH252248   5.709   5.539   5.540  0.1305 -0.2860 -0.2688
10278TIP3    H152249   5.639   5.509   5.598  0.8812  0.8037  1.2650
10278TIP3    H252250   5.756   5.604   5.591  1.0570  0.4624 -2.0019
10279TIP3   OH252251   2.904   2.999   2.551 -0.2098  0.4663  0.0685
10279TIP3    H152252   2.901   2.990   2.646 -0.7953  0.1941  0.0313
10279TIP3    H252253   2.814   3.023   2.527 -0.2726 -0.2868 -0.4903
10280TIP3   OH252254   4.867   5.314  15.158 -0.3780 -0.3414  0.0333
10280TIP3    H152255   4.867   5.287  15.066  2.8823  0.8816 -0.4564
10280TIP3    H252256   4.829   5.402  15.157 -2.6459 -1.2273  0.3362
10281TIP3   OH252257   1.524   1.942  16.868  0.0522 -0.1820  0.1091
10281TIP3    H152258   1.486   2.029  16.872 -1.1849 -0.6878 -0.3180
10281TIP3    H252259   1.454   1.885  16.836  1.2890 -1.0539 -1.2312
10282TIP3   OH252260   0.030   2.685  11.983 -0.0469  0.0539 -0.2572
10282TIP3    H152261  -0.044   2.679  12.044  0.3848 -1.7905  0.1569
10282TIP3    H252262  -0.010   2.710  11.899 -1.0308 -0.1076  0.1467
10283TIP3   OH252263   3.813   4.247   4.709 -0.3144 -0.1702 -0.6196
10283TIP3    H152264   3.757   4.244   4.787 -0.2812  1.9582 -0.4536
10283TIP3    H252265   3.876   4.317   4.727  1.2095 -1.2287 -1.6021
10284TIP3   OH252266   4.203   1.987  13.240 -0.3580 -0.2311  0.2705
10284TIP3    H152267   4.247   2.068  13.212 -0.3993 -0.1242  0.5208
10284TIP3    H252268   4.275   1.927  13.261 -0.2751 -0.8498 -1.5456
10285TIP3   OH252269   2.900   5.615   5.146 -0.1116 -0.0899 -0.4849
10285TIP3    H152270   2.971   5.679   5.149 -0.4488  0.2678 -0.0742
10285TIP3    H252271   2.891   5.584   5.236 -0.4450 -0.1729 -0.5443
10286TIP3   OH252272   2.047   5.450  13.563 -0.1408  0.4795 -0.4871
10286TIP3    H152273   2.068   5.535  13.524 -1.1962  0.1455 -1.8744
10286TIP3    H252274   1.995   5.471  13.640  0.1531  1.0990 -0.4543
10287TIP3   OH252275   4.034   0.890  10.932 -0.4844  0.5696  0.7987
10287TIP3    H152276   4.063   0.849  11.013  1.7539 -0.5840 -0.4834
10287TIP3    H252277   4.097   0.961  10.917 -0.6311  0.5220 -0.0959
10288TIP3   OH252278   0.846   4.633   3.359  0.3869  0.1965  0.5031
10288TIP3    H152279   0.803   4.719   3.354 -2.6733 -1.2184  0.4107
10288TIP3    H252280   0.846   4.601   3.269  0.3179 -0.4327  0.7243
10289TIP3   OH252281   2.582   5.639  16.437  0.2258  0.0543 -0.2921
10289TIP3    H152282   2.516   5.709  16.430 -0.0501 -0.3060 -1.7888
10289TIP3    H252283   2.659   5.683  16.473 -0.3187  0.8539 -0.0539
10290TIP3   OH252284   3.308   3.633  14.542 -0.4507 -0.1894  0.5915
10290TIP3    H152285   3.237   3.696  14.531  1.0315  1.5325  0.4578
10290TIP3    H252286   3.291   3.591  14.626 -3.3703 -2.2054 -0.8466
10291TIP3   OH252287   2.816   4.189   6.311 -0.8705  0.6729  0.1493
10291TIP3    H152288   2.904   4.225   6.309  0.0236 -1.4530 -1.5419
10291TIP3    H252289   2.793   4.173   6.220 -1.9935 -1.0977  0.6751
10292TIP3   OH252290   6.513   6.240  14.212  0.2653 -0.3956  0.0048
10292TIP3    H152291   6.451   6.265  14.280  2.6139 -0.6263  2.4318
10292TIP3    H252292   6.527   6.320  14.161  0.7360  0.7575  1.8239
10293TIP3   OH252293   0.251   2.279  14.275 -0.6154  0.7067 -0.0380
10293TIP3    H152294   0.270   2.263  14.183 -1.4040 -1.6462  0.1335
10293TIP3    H252295   0.188   2.351  14.275  1.1852  2.3917 -1.1330
10294TIP3   OH252296   2.697   1.532   5.020 -0.1804  0.1373  0.0608
10294TIP3    H152297   2.759   1.587   4.972  0.3037 -2.1631 -2.1191
10294TIP3    H252298   2.731   1.530   5.109  0.5946  2.1118 -0.1226
10295TIP3   OH252299   6.237   0.504  11.245  0.0075  0.4559  0.3931
10295TIP3    H152300   6.170   0.543  11.189  0.0841 -0.2713 -0.2254
10295TIP3    H252301   6.213   0.411  11.251  0.6149  0.3093  0.6576
10296TIP3   OH252302   1.367   6.735  11.486 -0.1852  0.0480  0.0269
10296TIP3    H152303   1.453   6.694  11.493 -0.0980  0.5231  2.6102
10296TIP3    H252304   1.385   6.829  11.473 -0.3788 -0.0812 -1.4383
10297TIP3   OH252305   0.206   6.316   1.817 -0.4274 -0.4133  0.0866
10297TIP3    H152306   0.248   6.327   1.903 -1.1977  0.2942  0.3871
10297TIP3    H252307   0.277   6.329   1.754  0.1639 -1.0105  0.6009
10298TIP3   OH252308   3.578   6.011   5.118  0.4742  0.3724 -0.2317
10298TIP3    H152309   3.502   5.993   5.173  1.0163  1.4721  0.9075
10298TIP3    H252310   3.541   6.046   5.037 -0.2178  2.5738  0.9549
10299TIP3   OH252311   6.492   6.138   5.029  0.0502  0.2039 -0.1135
10299TIP3    H152312   6.585   6.157   5.030  0.7270 -2.4699  1.9960
10299TIP3    H252313   6.484   6.059   4.976 -1.0267  0.4198 -0.2944
10300TIP3   OH252314   2.342   6.520   3.657  0.3183  0.4433 -0.4798
10300TIP3    H152315   2.318   6.527   3.565  0.8144 -1.0407 -0.7472
10300TIP3    H252316   2.433   6.490   3.656  0.2839  0.2744  0.4840
10301TIP3   OH252317   5.364   3.377   0.577 -0.2978 -0.2002  0.6616
10301TIP3    H152318   5.341   3.430   0.501 -0.8702  1.3610  1.8651
10301TIP3    H252319   5.400   3.296   0.540  1.9654  1.5523 -1.2827
10302TIP3   OH252320   2.247   6.085   0.228  0.0732  0.2172 -0.2181
10302TIP3    H152321   2.159   6.077   0.191  0.1650 -1.0248 -0.1959
10302TIP3    H252322   2.235   6.138   0.307 -0.7915 -0.6372  0.2347
10303TIP3   OH252323   6.530   5.673   5.967 -1.1227 -0.9631  0.3252
10303TIP3    H152324   6.550   5.699   6.057  0.1525  3.2864 -0.9551
10303TIP3    H252325   6.611   5.634   5.935 -0.6968 -0.1166  0.3306
10304TIP3   OH252326   4.408   4.272   5.327 -0.5213 -0.4522 -0.1739
10304TIP3    H152327   4.452   4.187   5.323 -0.6871 -0.5732  0.5775
10304TIP3    H252328   4.433   4.309   5.411 -3.4522 -1.4212  1.2717
10305TIP3   OH252329   2.322   3.760  13.205  0.3379 -0.1514  0.6637
10305TIP3    H152330   2.251   3.703  13.233  1.8341 -1.4493  2.0605
10305TIP3    H252331   2.402   3.712  13.229  1.6869  1.2728 -0.7643
10306TIP3   OH252332   2.137   3.838  16.528  0.0022 -0.3933  0.1933
10306TIP3    H152333   2.123   3.862  16.436  1.7176  0.5511  0.1314
10306TIP3    H252334   2.188   3.758  16.525  2.0388  0.8321  0.2261
10307TIP3   OH252335   5.175   5.078  14.891 -0.4417  0.0579  0.6462
10307TIP3    H152336   5.175   5.052  14.799  0.1870  1.0598  0.3479
10307TIP3    H252337   5.088   5.115  14.905 -0.5684 -0.1738  0.4817
10308TIP3   OH252338   0.922   3.543  11.505  0.1767 -0.1083 -1.0325
10308TIP3    H152339   0.846   3.518  11.452 -0.9567  3.9216 -1.6475
10308TIP3    H252340   0.885   3.564  11.591  0.8478  0.1528 -0.8021
10309TIP3   OH252341   0.098   2.025   0.486  0.5344  0.1605 -0.6633
10309TIP3    H152342   0.151   1.996   0.411  1.0100  4.5492 -2.3752
10309TIP3    H252343   0.161   2.069   0.543 -0.6150  2.0664 -0.7861
10310TIP3   OH252344   6.239   1.467  11.291 -0.0629  0.4251  0.3648
10310TIP3    H152345   6.284   1.485  11.208  2.4386 -0.7241  1.3610
10310TIP3    H252346   6.146   1.468  11.269  0.4629  1.7854 -2.0902
10311TIP3   OH252347   0.806   4.373   5.058 -0.2472 -0.0247  0.1215
10311TIP3    H152348   0.801   4.309   5.129  0.2687 -0.2835 -0.0717
10311TIP3    H252349   0.859   4.330   4.991 -2.0617 -0.4414 -1.1171
10312TIP3   OH252350   5.224   1.002  13.528 -0.7061  0.3550  0.2676
10312TIP3    H152351   5.253   0.960  13.609 -1.0290  0.0084  0.2073
10312TIP3    H252352   5.241   1.095  13.542 -0.4668  0.2629  0.6087
10313TIP3   OH252353   0.608   3.027   1.813  0.0693 -0.3183 -0.4629
10313TIP3    H152354   0.568   2.990   1.735  0.7897 -1.7902 -0.1772
10313TIP3    H252355   0.574   2.974   1.885 -0.6205  1.0448  0.2612
10314TIP3   OH252356   3.542   3.777   3.765 -0.1644  0.3055  0.2876
10314TIP3    H152357   3.533   3.743   3.854  0.5494  0.5328  0.4485
10314TIP3    H252358   3.575   3.703   3.714  0.2431  0.4123  0.3919
10315TIP3   OH252359   4.861   0.162  11.576  0.4968 -0.0052 -0.6468
10315TIP3    H152360   4.874   0.243  11.528  0.7320 -0.4387 -1.3283
10315TIP3    H252361   4.767   0.144  11.569  0.5799 -0.2239 -1.2026
10316TIP3   OH252362   0.037   3.303  14.511  0.1067 -0.2923 -0.0688
10316TIP3    H152363   0.030   3.326  14.419 -0.9700 -0.3020 -0.0018
10316TIP3    H252364   0.112   3.353  14.543  1.0350 -0.9677 -1.1393
10317TIP3   OH252365   5.564   1.341  15.682  0.0156  0.0340 -0.4502
10317TIP3    H152366   5.526   1.254  15.692  0.7489 -0.4763 -1.7705
10317TIP3    H252367   5.659   1.325  15.683  0.1525  0.7562 -1.1122
10318TIP3   OH252368   6.084   3.630   2.155 -0.3233 -0.5514 -0.0088
10318TIP3    H152369   6.100   3.724   2.155 -1.0166 -0.3903 -1.7963
10318TIP3    H252370   6.026   3.615   2.080 -0.9881 -2.2862  0.7807
10319TIP3   OH252371   6.577   0.312   1.558  0.2622 -0.7431  0.3061
10319TIP3    H152372   6.617   0.292   1.642  1.7081 -0.3392 -0.2460
10319TIP3    H252373   6.629   0.384   1.523 -1.7112  0.6482  0.0519
10320TIP3   OH252374   2.310   3.949  14.050 -0.4672  0.0906 -0.1530
10320TIP3    H152375   2.312   3.901  13.967  1.7750 -0.7575  0.3224
10320TIP3    H252376   2.337   4.038  14.026  1.2739 -0.4269 -0.2122
10321TIP3   OH252377   2.478   5.452   0.726  0.5963  0.6998 -0.0796
10321TIP3    H152378   2.526   5.377   0.691 -0.0850  0.4547 -0.5097
10321TIP3    H252379   2.517   5.468   0.812  1.6397  0.6979 -0.5507
10322TIP3   OH252380   5.989   1.385  13.207  0.3725 -0.2639 -0.3045
10322TIP3    H152381   6.023   1.430  13.284  0.2035 -0.8651  0.1294
10322TIP3    H252382   6.050   1.312  13.193  0.6205  0.0667 -0.9729
10323TIP3   OH252383   3.185   4.772   3.666  0.2467  0.6033  0.0573
10323TIP3    H152384   3.188   4.682   3.698 -1.6881  0.2676 -0.5633
10323TIP3    H252385   3.101   4.805   3.696  0.8011  2.1302  0.0128
10324TIP3   OH252386   4.145   5.745   5.106 -0.3918  0.0732 -0.0935
10324TIP3    H152387   4.193   5.690   5.168 -1.3240  0.0938  0.6734
10324TIP3    H252388   4.192   5.828   5.106  0.0234 -0.1586  0.0462
10325TIP3   OH252389   2.987   3.770  14.191  0.1201 -0.2037 -0.2493
10325TIP3    H152390   2.998   3.865  14.183 -0.7443 -0.2286 -2.5322
10325TIP3    H252391   3.004   3.752  14.283  3.3388  1.7513 -0.2746
10326TIP3   OH252392   2.994   0.812  13.601  0.1958 -0.0936 -0.0060
10326TIP3    H152393   2.983   0.887  13.543 -3.6846  0.6003  1.2835
10326TIP3    H252394   2.974   0.736  13.546 -0.4083  0.2776 -0.3098
10327TIP3   OH252395   0.350   6.555   0.659 -0.0189 -0.1576  0.1934
10327TIP3    H152396   0.420   6.555   0.594 -2.3157 -0.4393 -2.4723
10327TIP3    H252397   0.368   6.633   0.713  2.2549 -0.1922 -0.3906
10328TIP3   OH252398   5.749   1.936   4.480 -0.2681  0.4065 -0.4451
10328TIP3    H152399   5.761   1.863   4.540  0.3137  0.8711  0.0232
10328TIP3    H252400   5.831   1.985   4.484  0.7823 -0.8663 -3.5009
10329TIP3   OH252401   6.203   3.542  15.548  0.5540  0.0552 -0.3366
10329TIP3    H152402   6.132   3.495  15.593  0.8316 -1.0961 -1.0599
10329TIP3    H252403   6.159   3.615  15.504  0.2266  0.9955  1.4706
10330TIP3   OH252404   3.038   1.927   5.950 -0.0558 -0.0333 -0.1207
10330TIP3    H152405   2.970   1.922   5.882  0.6256  1.0649 -0.9079
10330TIP3    H252406   3.085   2.008   5.931  1.7324 -0.9702  0.1688
10331TIP3   OH252407   5.162   1.901   1.482  0.2701 -0.2169 -0.5930
10331TIP3    H152408   5.251   1.865   1.477  1.3301  2.0061  0.6977
10331TIP3    H252409   5.130   1.873   1.567 -0.1269 -0.6796 -0.8900
10332TIP3   OH252410   5.844   3.552   0.477  0.1565  0.3819 -0.6658
10332TIP3    H152411   5.783   3.525   0.546  1.4922 -0.7968  0.1067
10332TIP3    H252412   5.900   3.617   0.519  1.0417 -0.4171 -0.5714
10333TIP3   OH252413   4.666   5.748  12.843 -0.1700  0.1123 -0.7106
10333TIP3    H152414   4.714   5.665  12.835  1.5438  1.2235 -4.4233
10333TIP3    H252415   4.731   5.810  12.875 -0.7934  0.4908 -0.1776
10334TIP3   OH252416   4.453   0.762  12.909  0.0275 -0.1203  0.3490
10334TIP3    H152417   4.499   0.691  12.864  1.0594 -0.2629  1.5695
10334TIP3    H252418   4.448   0.733  13.000  2.0280  2.0562  1.2595
10335TIP3   OH252419   6.298   2.856   0.778  0.3700  0.5109 -0.1429
10335TIP3    H152420   6.390   2.851   0.754  0.7841  2.4517  0.9218
10335TIP3    H252421   6.264   2.768   0.759  2.5048 -0.3595 -0.1857
10336TIP3   OH252422   4.857   6.573   5.821 -0.2453 -0.1331  0.8784
10336TIP3    H152423   4.842   6.592   5.914 -0.7760  0.6855  0.6329
10336TIP3    H252424   4.933   6.625   5.797 -0.3255 -0.0664  0.7672
10337TIP3   OH252425   1.223   4.420   2.081  0.1439 -0.8467 -0.0233
10337TIP3    H152426   1.197   4.410   2.173  0.3150  1.0518  0.2857
10337TIP3    H252427   1.301   4.476   2.084 -1.2395  1.3305 -1.3909
10338TIP3   OH252428   5.975   1.090   1.685 -0.1346  0.7748 -0.5152
10338TIP3    H152429   6.045   1.027   1.671 -0.4259  0.4712 -0.6240
10338TIP3    H252430   5.895   1.044   1.659 -0.3280  1.2639 -0.8136
10339TIP3   OH252431   2.742   0.925   3.875  0.4901  0.1296  0.8190
10339TIP3    H152432   2.775   0.846   3.917  0.8190  0.0300  0.3813
10339TIP3    H252433   2.818   0.983   3.870  0.6287 -0.1253 -0.2537
10340TIP3   OH252434   0.628   1.564   5.511 -0.3956  0.1642 -0.7893
10340TIP3    H152435   0.619   1.494   5.575  2.1161  0.2867 -0.2019
10340TIP3    H252436   0.687   1.529   5.444  1.9541  2.0055  0.1421
10341TIP3   OH252437   3.340   1.946  11.277 -0.4783  0.4129  0.0293
10341TIP3    H152438   3.309   1.984  11.195 -0.8274  0.0093 -0.0298
10341TIP3    H252439   3.434   1.964  11.278 -0.3688 -0.0788 -0.7336
10342TIP3   OH252440   3.108   3.848  13.708  0.2176  0.4050 -0.1995
10342TIP3    H152441   3.132   3.771  13.759 -1.3649  0.0589  0.0835
10342TIP3    H252442   3.089   3.815  13.621 -1.9143  0.1806  0.2924
10343TIP3   OH252443   2.638   3.388   3.096 -0.1255  0.1154  0.3739
10343TIP3    H152444   2.730   3.411   3.081  0.0081 -0.2062  0.6838
10343TIP3    H252445   2.597   3.470   3.125  0.1227  0.2004  0.4910
10344TIP3   OH252446   2.785   4.652  11.492 -0.5504 -0.2163  0.1198
10344TIP3    H152447   2.858   4.620  11.545 -0.4926 -0.2434  0.0238
10344TIP3    H252448   2.789   4.600  11.412 -0.0301  0.4969 -0.3395
10345TIP3   OH252449   2.496   4.958  16.861 -0.3122  0.4440 -0.1451
10345TIP3    H152450   2.528   5.047  16.844 -2.1634  1.1047 -0.4478
10345TIP3    H252451   2.565   4.918  16.913  1.2506  1.5377 -1.2784
10346TIP3   OH252452   6.261   2.442  12.810 -0.7732 -0.3028 -0.4292
10346TIP3    H152453   6.180   2.476  12.847 -0.0733 -0.0403  0.9734
10346TIP3    H252454   6.272   2.357  12.852  1.0999  0.8828  1.7446
10347TIP3   OH252455   6.211   6.427   3.439 -0.0925  0.1178 -0.0415
10347TIP3    H152456   6.259   6.363   3.386  0.0573 -1.3879  1.8363
10347TIP3    H252457   6.277   6.494   3.460  0.4975 -0.5415  0.2565
10348TIP3   OH252458   1.488   1.857   2.065  0.3479  0.0498 -0.0727
10348TIP3    H152459   1.525   1.843   2.152  3.2781  0.8110 -1.0668
10348TIP3    H252460   1.541   1.928   2.028 -1.7711  0.7582 -1.9610
10349TIP3   OH252461   0.720   1.543   2.685 -1.0103  0.3611 -0.5059
10349TIP3    H152462   0.723   1.591   2.767 -1.4733  1.6502 -1.2155
10349TIP3    H252463   0.791   1.479   2.692 -0.5385  0.9708  0.5700
10350TIP3   OH252464   4.182   0.863   2.404  0.0952 -0.5446 -0.1144
10350TIP3    H152465   4.110   0.803   2.385 -0.1071 -0.5479  0.6207
10350TIP3    H252466   4.183   0.870   2.499 -0.1632  0.9537 -0.1889
10351TIP3   OH252467   4.027   0.707   0.856  0.1675 -0.5374 -0.3414
10351TIP3    H152468   4.110   0.711   0.903 -0.6666  1.4889  1.0766
10351TIP3    H252469   3.961   0.691   0.923 -0.6299 -2.7938 -1.5153
10352TIP3   OH252470   5.233   0.037   1.329  0.2024  0.1677  0.1292
10352TIP3    H152471   5.147  -0.002   1.347  0.2743  0.5782  1.4563
10352TIP3    H252472   5.222   0.082   1.245 -0.6610 -0.3933 -0.0699
10353TIP3   OH252473   5.926   4.105   0.104 -0.2029 -0.3123 -0.4732
10353TIP3    H152474   5.993   4.111   0.036  1.1739 -0.0520  0.8440
10353TIP3    H252475   5.888   4.018   0.093  0.3402 -0.4613 -1.2536
10354TIP3   OH252476   5.758   4.318  15.526 -0.1050 -0.2275 -0.3369
10354TIP3    H152477   5.754   4.222  15.536 -1.3217 -0.2836 -1.0982
10354TIP3    H252478   5.797   4.331  15.440 -0.5936 -0.0629 -0.5364
10355TIP3   OH252479   3.860   3.508   3.296 -0.5790  0.1830  0.1570
10355TIP3    H152480   3.819   3.595   3.291 -1.2443 -0.1734 -3.5391
10355TIP3    H252481   3.789   3.451   3.325 -1.4181  0.2958 -1.5593
10356TIP3   OH252482   2.352   1.914  14.071 -0.2365  0.0992 -0.3847
10356TIP3    H152483   2.305   1.998  14.073 -0.5456 -0.0930  0.7721
10356TIP3    H252484   2.364   1.891  14.163 -0.9620 -1.5780 -0.6694
10357TIP3   OH252485   3.220   4.141  13.662  0.2072  0.1835 -0.2446
10357TIP3    H152486   3.152   4.087  13.701  2.5523 -2.2200  0.9167
10357TIP3    H252487   3.244   4.094  13.582 -0.2744  1.6491 -1.2804
10358TIP3   OH252488   5.452   1.200  12.038 -0.5338  0.1239 -0.1845
10358TIP3    H152489   5.476   1.267  11.974 -0.7476 -0.2141 -0.6214
10358TIP3    H252490   5.362   1.176  12.016 -0.0418 -1.2136 -0.8377
10359TIP3   OH252491   0.433   1.719   5.076 -0.0880 -0.4190  0.1014
10359TIP3    H152492   0.341   1.703   5.053 -0.5714  0.1464  1.5207
10359TIP3    H252493   0.464   1.634   5.109 -0.3186 -0.4262  0.3007
10360TIP3   OH252494   0.563   1.256  14.076  0.0050  0.1300 -0.1764
10360TIP3    H152495   0.574   1.169  14.039  0.1836  0.5406 -1.1329
10360TIP3    H252496   0.637   1.307  14.040  1.1601  0.1480  2.0716
10361TIP3   OH252497   3.814   1.126  15.164 -0.0845 -0.0444 -0.1633
10361TIP3    H152498   3.857   1.169  15.090  2.5310 -0.9937  0.6914
10361TIP3    H252499   3.862   1.159  15.241  1.0301 -3.1987  0.6267
10362TIP3   OH252500   5.551   4.227  16.585  0.0217 -0.3088 -0.3889
10362TIP3    H152501   5.578   4.291  16.520  0.0139  0.7446  0.6040
10362TIP3    H252502   5.603   4.249  16.663 -0.0377 -1.4657 -0.0049
10363TIP3   OH252503   3.377   3.243   1.967  0.1370  0.5178 -0.5483
10363TIP3    H152504   3.403   3.255   1.876 -0.3106  0.4715 -0.6862
10363TIP3    H252505   3.293   3.197   1.962  0.8123 -0.7995 -0.0714
10364TIP3   OH252506   3.644   5.004   2.136  0.2623  0.0858 -0.1278
10364TIP3    H152507   3.700   5.059   2.081  0.8536  0.0730  0.4441
10364TIP3    H252508   3.656   5.039   2.224  0.1996 -0.5931  0.1560
10365TIP3   OH252509   5.235   6.638  17.097  0.8877  0.0855  0.1079
10365TIP3    H152510   5.239   6.548  17.065  2.7908  0.1920 -0.0833
10365TIP3    H252511   5.162   6.677  17.049 -0.2932 -1.4590  0.5588
10366TIP3   OH252512   4.496   5.587   0.225 -0.0210  0.8345 -0.2278
10366TIP3    H152513   4.491   5.531   0.148 -1.1549  0.6143 -0.0080
10366TIP3    H252514   4.578   5.636   0.214 -0.0708  0.6634 -1.4689
10367TIP3   OH252515   6.471   3.999   5.313  0.3559 -0.1674 -0.1418
10367TIP3    H152516   6.484   3.911   5.280  1.4337 -0.7982  1.7667
10367TIP3    H252517   6.558   4.039   5.311 -0.5801  2.3327 -4.4909
10368TIP3   OH252518   0.762   5.265   2.166 -0.7138 -0.2098  0.2127
10368TIP3    H152519   0.731   5.272   2.075 -0.4070  0.3328  0.1475
10368TIP3    H252520   0.727   5.343   2.209 -2.2487 -1.2601  0.9955
10369TIP3   OH252521   0.392   4.151  12.820 -0.2510 -0.5159 -0.0284
10369TIP3    H152522   0.347   4.083  12.772 -1.5921 -0.1208  0.6102
10369TIP3    H252523   0.474   4.165  12.772 -0.8594 -1.1696 -1.2946
10370TIP3   OH252524   0.888   2.588  16.339 -0.0791 -0.3021 -0.2609
10370TIP3    H152525   0.946   2.653  16.299  0.6897 -1.4604 -1.1127
10370TIP3    H252526   0.823   2.640  16.386  0.7103  1.0702 -0.6060
10371TIP3   OH252527   5.861   1.855  11.908  0.3914 -0.4570  0.0236
10371TIP3    H152528   5.846   1.883  11.818  0.8602  0.0395  0.0905
10371TIP3    H252529   5.850   1.935  11.960  1.0293 -0.5399  0.2971
10372TIP3   OH252530   4.241   0.534  13.609 -0.2383 -0.4252 -0.8228
10372TIP3    H152531   4.175   0.467  13.623 -0.7726  0.2201 -0.1569
10372TIP3    H252532   4.198   0.616  13.632  0.4236  0.1457 -1.5417
10373TIP3   OH252533   4.366   3.427   1.228  0.2778 -0.1810  0.4714
10373TIP3    H152534   4.433   3.362   1.208  0.0640 -0.2888  0.1080
10373TIP3    H252535   4.284   3.388   1.197  0.1245  0.1949  0.3996
10374TIP3   OH252536   5.523   2.272  16.414  0.1486  0.1954  0.2560
10374TIP3    H152537   5.469   2.314  16.482 -0.9818  0.1931 -0.6237
10374TIP3    H252538   5.530   2.181  16.442  0.2135  0.3304  0.6894
10375TIP3   OH252539   6.373   1.300  14.901  0.2070 -0.4985  0.5575
10375TIP3    H152540   6.460   1.292  14.941 -0.8684 -1.0537  2.9083
10375TIP3    H252541   6.322   1.353  14.962 -1.7595 -2.1239  0.4489
10376TIP3   OH252542   1.833   3.763  14.192 -0.3831  0.2722  0.1453
10376TIP3    H152543   1.760   3.803  14.240 -1.3141 -0.4976 -0.5765
10376TIP3    H252544   1.874   3.836  14.146 -2.2458  0.4576 -1.4004
10377TIP3   OH252545   3.708   2.919  13.363  0.2631 -0.0326 -0.3881
10377TIP3    H152546   3.673   2.965  13.440 -1.0386  0.1157 -1.0456
10377TIP3    H252547   3.733   2.989  13.303  1.7770 -0.1359  0.0774
10378TIP3   OH252548   2.070   3.531   1.396  0.3549 -0.2154 -0.0745
10378TIP3    H152549   2.029   3.550   1.481  1.3473  1.7840  0.0310
10378TIP3    H252550   2.022   3.585   1.334  0.4666 -0.6710 -0.5611
10379TIP3   OH252551   5.512   1.064  15.661 -0.8788  0.1160  0.5085
10379TIP3    H152552   5.468   1.080  15.578 -0.2067 -0.4516  0.0272
10379TIP3    H252553   5.591   1.014  15.637  0.6484  2.0769  1.1868
10380TIP3   OH252554   2.060   2.007  12.250 -0.1583 -0.0859 -0.6230
10380TIP3    H152555   2.041   2.065  12.324  1.5638 -1.1675  0.7506
10380TIP3    H252556   2.140   2.044  12.211  0.3892 -0.9541 -0.3436
10381TIP3   OH252557   2.750   0.362   1.164 -0.5613  0.4761 -0.6400
10381TIP3    H152558   2.776   0.400   1.248  3.1935 -3.2334  0.1857
10381TIP3    H252559   2.799   0.412   1.099  3.2052 -1.6175  0.3041
10382TIP3   OH252560   3.008   0.777   1.032 -0.1189 -0.1079 -0.4365
10382TIP3    H152561   2.972   0.848   0.979  2.0190  1.6523  0.3177
10382TIP3    H252562   3.020   0.816   1.119  0.9612 -1.4571  0.0425
10383TIP3   OH252563   5.119   5.718  15.409 -0.9658 -0.3066  0.3436
10383TIP3    H152564   5.082   5.672  15.485 -1.6455  0.7041  0.6447
10383TIP3    H252565   5.058   5.699  15.337 -1.9188  1.0363  0.7465
10384TIP3   OH252566   4.056   0.255   0.468  0.2733 -0.0636 -0.0667
10384TIP3    H152567   4.000   0.180   0.449  0.7571 -0.4077 -0.1603
10384TIP3    H252568   4.019   0.294   0.547 -0.4109  0.0347 -0.4289
10385TIP3   OH252569   3.462   3.365  15.675 -0.2602 -0.6003  0.0562
10385TIP3    H152570   3.419   3.416  15.744 -2.3180 -1.3813 -0.5654
10385TIP3    H252571   3.435   3.408  15.594 -0.6428 -1.6432 -0.3900
10386TIP3   OH252572   5.817   0.869   2.482  0.6243  0.5356 -0.3107
10386TIP3    H152573   5.835   0.853   2.575  2.0962  2.7642 -0.1619
10386TIP3    H252574   5.761   0.946   2.482 -3.5431 -2.1329 -1.1548
10387TIP3   OH252575   0.000   4.992  14.965  0.4745  0.0748 -0.4845
10387TIP3    H152576   0.026   5.058  15.030  0.5760  0.3611 -0.8098
10387TIP3    H252577   0.080   4.942  14.949  0.2818 -0.4371  0.1104
10388TIP3   OH252578   5.759   4.006   5.555  0.5511 -0.0866 -0.0158
10388TIP3    H152579   5.746   3.953   5.476  0.3977 -0.9106  0.5483
10388TIP3    H252580   5.792   4.090   5.523  2.6334 -1.1420 -0.8306
10389TIP3   OH252581   4.241   0.195  16.466 -0.5410  0.0876  0.4050
10389TIP3    H152582   4.241   0.216  16.559 -0.4620 -1.9861  0.8993
10389TIP3    H252583   4.270   0.104  16.460 -1.1985 -0.0633 -1.5905
10390TIP3   OH252584   1.894   3.128  17.092  0.1275 -0.3523  0.0383
10390TIP3    H152585   1.852   3.043  17.083  1.4727 -1.0312 -0.0846
10390TIP3    H252586   1.839   3.175  17.155  0.6097 -2.1525  1.9302
10391TIP3   OH252587   4.681   3.126   4.609 -0.1090 -0.2642 -0.8878
10391TIP3    H152588   4.751   3.066   4.637  0.9664  1.6843  0.9920
10391TIP3    H252589   4.600   3.077   4.621  0.7448 -1.4662  0.2197
10392TIP3   OH252590   1.724   3.220  17.287  0.0639 -0.1348  0.4206
10392TIP3    H152591   1.807   3.242  17.332  1.3514 -2.1438 -0.8514
10392TIP3    H252592   1.700   3.135  17.323  0.2376 -1.0029 -1.4520
10393TIP3   OH252593   1.555   3.106   1.730  0.6812  0.2846  0.5321
10393TIP3    H152594   1.471   3.128   1.771  2.0548  3.8704  1.8653
10393TIP3    H252595   1.617   3.108   1.803  1.9906 -2.4408 -0.3978
10394TIP3   OH252596   3.900   4.428   2.646  0.2697  0.0998 -0.3960
10394TIP3    H152597   3.886   4.520   2.665  2.4692  0.5220 -0.6112
10394TIP3    H252598   3.886   4.384   2.730 -0.3247  0.6858 -0.1856
10395TIP3   OH252599   4.559   4.189  14.247  0.0931  0.3747  0.3690
10395TIP3    H152600   4.625   4.255  14.266  1.5533 -0.3675 -1.7644
10395TIP3    H252601   4.478   4.239  14.234  1.1838  1.8282 -1.3565
10396TIP3   OH252602   1.631   3.432  16.847 -0.6975 -0.0397  0.2230
10396TIP3    H152603   1.692   3.365  16.878 -1.8451 -1.0944  0.3046
10396TIP3    H252604   1.674   3.515  16.867  1.2950 -0.7131 -0.8825
10397TIP3   OH252605   2.442   0.067   1.646 -0.4845 -0.3871  0.8764
10397TIP3    H152606   2.385   0.090   1.720 -1.0686  0.5790  0.1504
10397TIP3    H252607   2.529   0.094   1.673 -0.7825  0.4722  1.0080
10398TIP3   OH252608   0.507   0.596  17.296 -0.8658 -0.2085  0.0779
10398TIP3    H152609   0.487   0.686  17.271 -2.2761 -0.3340  0.6504
10398TIP3    H252610   0.529   0.552  17.214 -0.6333  0.5418 -0.2641
10399TIP3   OH252611   2.685   5.193   5.229  0.0488  0.1880 -0.5125
10399TIP3    H152612   2.713   5.175   5.318  1.1402 -2.3535 -1.2831
10399TIP3    H252613   2.754   5.249   5.192  0.3665 -0.0142 -0.2242
10400TIP3   OH252614   6.578   4.234   1.389 -0.4614 -0.1892 -0.3578
10400TIP3    H152615   6.651   4.231   1.452 -0.0295  1.8412 -0.7050
10400TIP3    H252616   6.603   4.303   1.327 -2.0879 -0.3732 -1.2494
10401TIP3   OH252617   5.279   0.888  12.768  0.5455 -0.1522  0.7513
10401TIP3    H152618   5.251   0.854  12.683  0.8552 -0.3384  0.7241
10401TIP3    H252619   5.306   0.978  12.750  2.2681 -0.7191  0.3117
10402TIP3   OH252620   6.437   3.931   2.104 -0.1157 -0.2608 -0.5008
10402TIP3    H152621   6.515   3.981   2.128 -1.1979  1.4104 -0.2603
10402TIP3    H252622   6.466   3.840   2.103  2.0752  0.3792 -1.4419
10403TIP3   OH252623   3.155   3.586   0.590 -0.2965  0.4949 -0.1417
10403TIP3    H152624   3.230   3.645   0.596 -0.2854  0.4422  0.3260
10403TIP3    H252625   3.093   3.632   0.534  0.6492 -0.0864 -1.7385
10404TIP3   OH252626   4.886   0.519  17.329 -0.4129 -0.9282 -0.3059
10404TIP3    H152627   4.896   0.594  17.387  0.7159 -1.9988  0.9587
10404TIP3    H252628   4.793   0.496  17.336 -0.8528  0.5150 -0.9808
10405TIP3   OH252629   4.003   3.750  13.898  0.1067 -0.2441  0.7767
10405TIP3    H152630   3.929   3.690  13.892 -0.2412  0.2827 -0.4048
10405TIP3    H252631   4.008   3.791  13.812  1.1138  0.5120  1.1769
10406TIP3   OH252632   2.487   5.659   4.857 -0.5371  0.3322  0.1106
10406TIP3    H152633   2.563   5.664   4.915  0.6161 -1.1368 -1.1898
10406TIP3    H252634   2.525   5.660   4.769 -2.0609 -0.0901 -0.5670
10407TIP3   OH252635   4.903   1.641  15.666  0.0686  0.2252 -0.1964
10407TIP3    H152636   4.979   1.623  15.611  1.4091 -2.1756  2.2339
10407TIP3    H252637   4.860   1.556  15.676 -2.2983  1.3102 -0.4891
10408TIP3   OH252638   5.380   3.822  16.248  0.0058 -0.5472  0.6597
10408TIP3    H152639   5.337   3.898  16.209 -0.6607 -1.0771  0.3287
10408TIP3    H252640   5.451   3.858  16.301  0.4468  0.2377 -0.4306
10409TIP3   OH252641   3.714   2.091   4.426 -0.1116 -0.6833  0.2024
10409TIP3    H152642   3.740   2.110   4.336 -1.3029 -0.1131 -0.0496
10409TIP3    H252643   3.782   2.034   4.460  0.3798 -0.8635 -1.0462
10410TIP3   OH252644   1.632   2.412  15.256 -0.3841  0.3370  0.3252
10410TIP3    H152645   1.615   2.321  15.281  0.3481  0.0080 -0.2994
10410TIP3    H252646   1.689   2.446  15.325 -0.7150  0.3393  0.5954
10411TIP3   OH252647   2.364   2.894   4.995  0.2399 -0.0655  0.3176
10411TIP3    H152648   2.413   2.926   4.919  0.6809 -0.7543  0.2987
10411TIP3    H252649   2.432   2.863   5.055 -0.1721 -1.7741 -0.0393
10412TIP3   OH252650   2.772   1.603   0.854  0.2278  1.0449  0.1333
10412TIP3    H152651   2.777   1.575   0.945  2.9177 -1.4313 -0.6013
10412TIP3    H252652   2.680   1.596   0.831 -0.8313  3.4256  3.0184
10413TIP3   OH252653   6.014   1.880  16.429 -0.0404  0.2614  0.1983
10413TIP3    H152654   6.012   1.865  16.524  1.0104 -1.3711  0.0106
10413TIP3    H252655   5.930   1.846  16.398 -0.2018  0.3837  0.4957
10414TIP3   OH252656   5.361   3.352  17.307  0.3664 -0.3295 -0.0916
10414TIP3    H152657   5.353   3.354  17.402 -1.5499  2.8997 -0.1698
10414TIP3    H252658   5.298   3.286  17.278  0.1505 -0.5393  0.8327
10415TIP3   OH252659   1.275   6.526  12.286  0.4795 -0.6404 -0.1006
10415TIP3    H152660   1.271   6.619  12.310  2.0732 -0.4527 -0.4064
10415TIP3    H252661   1.216   6.483  12.347 -0.3415  0.5782  0.0129
10416TIP3   OH252662   5.386   6.260   3.887 -0.3614 -0.5051  0.7610
10416TIP3    H152663   5.403   6.334   3.945  1.3268  0.8523 -1.2870
10416TIP3    H252664   5.425   6.185   3.932 -0.1988  0.2585  1.9372
10417TIP3   OH252665   2.808   1.666  13.606  0.3098 -0.4204  0.3333
10417TIP3    H152666   2.813   1.696  13.697 -0.4385 -1.0409  0.6007
10417TIP3    H252667   2.768   1.579  13.613 -1.2488  0.1649 -0.6911
10418TIP3   OH252668   1.409   1.452   2.460  0.0387 -0.3113 -0.1403
10418TIP3    H152669   1.425   1.542   2.432  0.9829 -0.3776  0.1251
10418TIP3    H252670   1.314   1.444   2.465 -0.0859  0.3425 -1.2069
10419TIP3   OH252671   0.885   3.604  12.837 -0.6550 -0.6008 -0.3139
10419TIP3    H152672   0.968   3.648  12.818 -0.4276 -0.6863  0.4601
10419TIP3    H252673   0.836   3.609  12.755  0.1122 -0.5471 -0.7772
10420TIP3   OH252674   5.073   2.593  13.170 -0.0589  0.7985  0.0665
10420TIP3    H152675   5.164   2.597  13.141 -0.4371  0.6545 -1.1718
10420TIP3    H252676   5.028   2.663  13.122 -0.7759  0.3041 -0.0048
10421TIP3   OH252677   3.529   3.027   1.553  0.1541 -0.8026  0.2031
10421TIP3    H152678   3.593   3.001   1.619 -1.1638 -2.4674  0.9033
10421TIP3    H252679   3.548   3.119   1.536  1.3806 -0.6871  1.9359
10422TIP3   OH252680   0.652   5.581   4.733 -0.0961 -0.1393 -0.1106
10422TIP3    H152681   0.672   5.493   4.701  1.1438 -0.1522  0.6360
10422TIP3    H252682   0.675   5.640   4.661  1.6612 -0.2440  0.3133
10423TIP3   OH252683   1.030   3.397  14.755  0.4343 -0.3446 -0.1954
10423TIP3    H152684   0.977   3.440  14.822  0.7453  0.0185 -0.1773
10423TIP3    H252685   1.045   3.309  14.790  1.6499  0.2282  0.8378
10424TIP3   OH252686   1.342   3.330  13.684  0.4608 -0.0882  0.9050
10424TIP3    H152687   1.287   3.311  13.607 -0.8997 -1.6443  2.1926
10424TIP3    H252688   1.280   3.353  13.753  1.6801  1.5679  1.5305
10425TIP3   OH252689   5.019   0.816   0.510  0.8679 -0.0584 -0.1398
10425TIP3    H152690   4.933   0.814   0.467  1.0801  0.0315 -0.5711
10425TIP3    H252691   5.034   0.909   0.527  0.2574 -0.1798  1.2105
10426TIP3   OH252692   2.841   4.515   4.473 -0.8134 -0.5127 -0.1052
10426TIP3    H152693   2.909   4.511   4.540  0.0326  0.2363 -0.8940
10426TIP3    H252694   2.776   4.451   4.501 -0.0208 -0.8907  0.9256
10427TIP3   OH252695   1.319   5.627   3.873 -0.2865  0.5931  0.1935
10427TIP3    H152696   1.405   5.586   3.884 -0.1250  0.9590  0.3125
10427TIP3    H252697   1.266   5.560   3.828 -0.1722  0.0789  0.8124
10428TIP3   OH252698   2.259   5.871  16.903  0.2548  0.1170 -0.1557
10428TIP3    H152699   2.200   5.876  16.978  0.6560 -2.3523  0.4101
10428TIP3    H252700   2.208   5.905  16.829 -1.1413 -0.0454  0.7064
10429TIP3   OH252701   0.628   4.155   6.172  0.1061 -0.0345 -0.1360
10429TIP3    H152702   0.554   4.213   6.154  1.3833  0.9911 -2.5019
10429TIP3    H252703   0.606   4.113   6.255 -2.0367  1.9570  0.3962
10430TIP3   OH252704   5.771   5.004   0.336 -0.0196 -0.9358 -0.4667
10430TIP3    H152705   5.683   4.996   0.373  0.0250 -0.6178 -0.2859
10430TIP3    H252706   5.792   4.917   0.303 -0.2258 -1.1192 -0.1137
10431TIP3   OH252707   3.737   1.467  11.985 -0.2828 -0.2302 -0.3098
10431TIP3    H152708   3.779   1.385  11.959 -1.8176 -1.0874 -0.2190
10431TIP3    H252709   3.647   1.441  12.009 -2.0326  1.9059 -3.7869
10432TIP3   OH252710   3.244   0.466   1.216  0.5740  0.2321 -0.8575
10432TIP3    H152711   3.193   0.480   1.136  0.7534 -1.4613 -1.3063
10432TIP3    H252712   3.222   0.541   1.272  0.0291  1.1675 -2.2633
10433TIP3   OH252713   0.659   4.679   2.666  0.4446  1.0510 -0.2088
10433TIP3    H152714   0.676   4.588   2.640  0.3846  0.3884  1.8838
10433TIP3    H252715   0.701   4.688   2.751 -0.5624  2.6340  0.1698
10434TIP3   OH252716   2.837   2.950  13.416  0.3368 -0.2374  0.0923
10434TIP3    H152717   2.839   2.858  13.442 -0.1637 -0.2038  0.2547
10434TIP3    H252718   2.896   2.955  13.340  1.2554 -0.4686  0.7794
10435TIP3   OH252719   6.053   2.866   2.686 -0.5027  0.5059 -0.4602
10435TIP3    H152720   6.149   2.875   2.684 -0.3417 -0.0350  2.0173
10435TIP3    H252721   6.021   2.956   2.683  0.2186  0.8572  1.1982
10436TIP3   OH252722   3.064   4.298   5.629  0.2943  0.4408 -0.0917
10436TIP3    H152723   3.016   4.225   5.667  0.2952  0.2170 -0.5168
10436TIP3    H252724   3.086   4.270   5.540  0.1636  1.0179 -0.3142
10437TIP3   OH252725   2.484   2.629  15.959  0.0327  0.2061 -0.0225
10437TIP3    H152726   2.411   2.614  16.019  0.0129 -0.8866 -0.2910
10437TIP3    H252727   2.544   2.686  16.008 -0.5158  0.2674  0.5923
10438TIP3   OH252728   3.211   6.690   1.590 -0.4366 -0.0551 -0.8099
10438TIP3    H152729   3.135   6.725   1.543  0.3395 -0.0782 -2.1305
10438TIP3    H252730   3.266   6.767   1.607 -0.6332 -0.0719 -0.0790
10439TIP3   OH252731   5.605   5.544   1.876 -0.1410 -0.8334 -0.2035
10439TIP3    H152732   5.591   5.472   1.938  1.1377  0.8541  2.1415
10439TIP3    H252733   5.560   5.619   1.915  0.5391  0.2497 -1.4227
10440TIP3   OH252734   2.243   0.686  13.896 -0.4413  0.6520 -0.1444
10440TIP3    H152735   2.191   0.625  13.845  0.8121  0.4846 -1.2691
10440TIP3    H252736   2.262   0.638  13.977  0.4075 -0.4274 -0.9516
10441TIP3   OH252737   4.580   4.269   3.836 -0.6780 -0.1348  0.7231
10441TIP3    H152738   4.497   4.248   3.792 -0.8067 -0.6308  1.1794
10441TIP3    H252739   4.636   4.302   3.767 -0.6534 -1.5291  0.0336
10442TIP3   OH252740   6.034   0.897   1.411 -0.2179  0.4717 -0.5834
10442TIP3    H152741   5.976   0.825   1.433  0.5064 -0.0777 -0.4372
10442TIP3    H252742   5.982   0.953   1.353 -0.3815 -0.8196 -1.7315
10443TIP3   OH252743   3.388   1.233  17.242  0.0207  0.3768  0.2447
10443TIP3    H152744   3.393   1.245  17.147  0.6884  1.0748  0.3550
10443TIP3    H252745   3.308   1.183  17.256 -1.3047  2.1605 -0.5146
10444TIP3   OH252746   4.359   2.113   3.277  0.5956 -0.0877  0.0002
10444TIP3    H152747   4.385   2.187   3.331  1.2717 -1.7599  2.1513
10444TIP3    H252748   4.287   2.146   3.223 -0.2877  1.6958  2.1020
10445TIP3   OH252749   4.269   1.821  11.389 -0.3193 -0.1330  0.0728
10445TIP3    H152750   4.293   1.842  11.479 -1.1114  0.3897  0.1753
10445TIP3    H252751   4.338   1.762  11.359 -0.1575 -0.4901  1.0875
10446TIP3   OH252752   4.109   5.262   3.138 -0.2792  0.2865 -0.0479
10446TIP3    H152753   4.098   5.168   3.121  0.9194  0.1645 -0.1780
10446TIP3    H252754   4.053   5.305   3.074 -0.8510 -0.3376  0.0241
10447TIP3   OH252755   0.846   1.270  15.727  0.3285  0.3239 -0.1253
10447TIP3    H152756   0.793   1.192  15.712  0.2920 -0.7080  4.2080
10447TIP3    H252757   0.850   1.312  15.641 -2.6738 -2.4932 -1.9009
10448TIP3   OH252758   4.095   1.122  13.809 -0.0795  0.4207  0.0861
10448TIP3    H152759   4.040   1.044  13.808  1.2595 -0.5487 -1.2299
10448TIP3    H252760   4.034   1.194  13.788 -1.4582 -0.1148  2.0039
10449TIP3   OH252761   0.077   1.745   3.142  0.2495 -0.5851  0.5792
10449TIP3    H152762  -0.014   1.714   3.141  0.0262  0.0605 -0.3113
10449TIP3    H252763   0.097   1.763   3.050  0.2418  2.2282  1.0591
10450TIP3   OH252764   0.342   1.347   3.687  0.2384 -0.5576 -0.1693
10450TIP3    H152765   0.380   1.435   3.696 -1.7742  0.2160  1.8606
10450TIP3    H252766   0.271   1.359   3.623 -1.1849 -0.1979  1.3995
10451TIP3   OH252767   5.679   0.123  14.250  0.7858  0.0370  0.5446
10451TIP3    H152768   5.760   0.136  14.299  0.1744 -0.9870  1.8927
10451TIP3    H252769   5.686   0.034  14.216  1.6300  1.0324 -2.1652
10452TIP3   OH252770   6.354   2.216  16.886  0.1564  0.6584  0.0552
10452TIP3    H152771   6.349   2.283  16.954  1.1091  0.1390  0.6578
10452TIP3    H252772   6.448   2.204  16.870 -0.0325  1.4921 -2.1035
10453TIP3   OH252773   2.992   6.130   2.711 -0.4513 -0.4940 -0.4945
10453TIP3    H152774   2.948   6.117   2.796 -0.3774 -0.8229 -0.5030
10453TIP3    H252775   3.080   6.094   2.724 -0.2313  0.0235 -0.5242
10454TIP3   OH252776   3.184   5.710   4.901 -0.4599  0.0310 -0.9832
10454TIP3    H152777   3.256   5.770   4.921 -1.4323  0.8696  0.1026
10454TIP3    H252778   3.223   5.623   4.910  0.3094  0.4615  0.1223
10455TIP3   OH252779   1.177   0.111  15.032 -0.6722 -0.5373 -0.5292
10455TIP3    H152780   1.269   0.137  15.038 -0.6330 -0.6900 -0.4605
10455TIP3    H252781   1.161   0.102  14.938 -0.2538 -1.7731 -0.5060
10456TIP3   OH252782   2.160   1.348  13.278 -0.3594 -0.2101 -0.3256
10456TIP3    H152783   2.094   1.334  13.210 -0.2057 -0.9708 -0.3277
10456TIP3    H252784   2.149   1.274  13.337 -0.9017  0.7551  0.8336
10457TIP3   OH252785   2.166   3.215  13.057 -0.4781  0.0903  0.1188
10457TIP3    H152786   2.201   3.227  13.146  0.0857 -1.4869  0.1371
10457TIP3    H252787   2.122   3.130  13.059  1.5020 -1.0747 -1.6705
10458TIP3   OH252788   2.041   2.770  14.793  0.0349  0.2218 -0.4329
10458TIP3    H152789   2.041   2.681  14.757  0.7619  0.3563 -0.7784
10458TIP3    H252790   2.125   2.807  14.765 -0.5333  1.2342 -0.8247
10459TIP3   OH252791   3.533   6.002   2.376 -0.0804  0.7663 -0.3378
10459TIP3    H152792   3.502   5.912   2.370  1.2838  0.2949 -0.6496
10459TIP3    H252793   3.548   6.016   2.470 -0.3462  0.7005 -0.2831
10460TIP3   OH252794   5.772   4.631   4.063 -0.5212  0.0262  0.2614
10460TIP3    H152795   5.684   4.636   4.102 -0.0964 -0.4609  1.3199
10460TIP3    H252796   5.819   4.568   4.118 -0.0469 -1.1060 -1.3675
10461TIP3   OH252797   3.535   1.948   0.988  0.1091  0.0309  0.4341
10461TIP3    H152798   3.568   1.910   0.907 -1.0402  0.6105 -0.3338
10461TIP3    H252799   3.610   1.946   1.048  0.2552 -2.9113  0.2744
10462TIP3   OH252800   2.988   6.618  17.126 -0.0946  0.1828  0.1622
10462TIP3    H152801   2.935   6.543  17.101  2.0299 -1.5318  0.5598
10462TIP3    H252802   3.033   6.644  17.045  0.2513  0.0952  0.3212
10463TIP3   OH252803   0.014   1.915   2.790  0.1067 -0.3642 -0.2201
10463TIP3    H152804   0.062   1.845   2.834 -0.1949  0.9398  2.3456
10463TIP3    H252805  -0.077   1.886   2.790  0.2921 -1.0335 -1.4482
10464TIP3   OH252806   0.745   5.945   5.315  0.1469  0.1250 -0.3072
10464TIP3    H152807   0.682   6.016   5.307 -0.6268 -0.4014  0.8571
10464TIP3    H252808   0.743   5.921   5.408  1.6964 -0.2433 -0.3382
10465TIP3   OH252809   0.669   4.947  11.496  0.1769 -0.0026 -0.3506
10465TIP3    H152810   0.749   4.898  11.513  0.0194 -0.0143  0.4030
10465TIP3    H252811   0.681   4.984  11.408  0.4561 -1.0594 -0.7688
10466TIP3   OH252812   3.338   6.112   4.992 -0.0253 -0.1480  0.6504
10466TIP3    H152813   3.310   6.197   5.025 -1.5199 -0.2951 -0.1595
10466TIP3    H252814   3.260   6.057   4.996  0.4401 -0.9503 -0.5234
10467TIP3   OH252815   3.869   2.009   2.043 -0.9334 -0.2166  0.2740
10467TIP3    H152816   3.802   2.077   2.033 -1.2432 -0.5757 -0.1081
10467TIP3    H252817   3.893   1.986   1.953 -0.4256 -0.2184  0.4099
10468TIP3   OH252818   0.898   6.277  12.930 -0.4007 -0.1555  0.7989
10468TIP3    H152819   0.828   6.293  12.867  0.7835 -2.9140 -1.4440
10468TIP3    H252820   0.856   6.225  12.999 -1.1719  0.7869  1.0642
10469TIP3   OH252821   4.974   5.603   4.348 -0.3255 -0.2490  0.1483
10469TIP3    H152822   4.926   5.649   4.417 -0.0642 -1.6836  1.3544
10469TIP3    H252823   4.924   5.522   4.335  0.9609 -1.1277  0.4440
10470TIP3   OH252824   1.308   4.583  15.259  0.6350  0.1233  0.1469
10470TIP3    H152825   1.238   4.518  15.254  1.5442 -0.9748  1.2621
10470TIP3    H252826   1.268   4.658  15.304  0.2099 -0.5456  0.9106
10471TIP3   OH252827   5.308   0.830   0.605  1.1809 -0.8242 -0.1615
10471TIP3    H152828   5.219   0.809   0.576  0.2496  0.5977  1.4968
10471TIP3    H252829   5.342   0.889   0.537 -1.1741  2.9300  1.5674
10472TIP3   OH252830   2.059   5.282   3.314 -0.0569  1.1718 -0.1659
10472TIP3    H152831   2.080   5.232   3.393 -0.8269 -0.0902 -0.7197
10472TIP3    H252832   2.142   5.286   3.266 -0.2239 -0.7868 -0.7258
10473TIP3   OH252833   2.520   6.339  14.125  0.8410  0.4696  0.0068
10473TIP3    H152834   2.587   6.276  14.099 -0.0790 -0.9288  0.8474
10473TIP3    H252835   2.451   6.329  14.058  0.7158  0.6203  0.1136
10474TIP3   OH252836   0.492   4.706   3.552  0.0554 -0.5233  0.3774
10474TIP3    H152837   0.429   4.671   3.615 -0.3091 -0.4469  0.0593
10474TIP3    H252838   0.516   4.791   3.587 -1.0752  0.0540 -0.2074
10475TIP3   OH252839   0.097   3.053   3.421 -0.0187 -0.0398 -0.3833
10475TIP3    H152840   0.117   3.095   3.337 -1.6495  1.4045 -0.1064
10475TIP3    H252841   0.139   3.110   3.487 -1.2961  0.5794 -0.0734
10476TIP3   OH252842   6.200   0.018   2.491 -0.1255  0.5053 -0.7412
10476TIP3    H152843   6.139  -0.037   2.540  0.8881 -1.0666 -1.1862
10476TIP3    H252844   6.147   0.091   2.459 -1.0590  1.0477  1.7599
10477TIP3   OH252845   4.791   3.790   4.626 -0.2716  0.1043  0.1777
10477TIP3    H152846   4.726   3.737   4.673  0.9072 -0.0944  1.6822
10477TIP3    H252847   4.741   3.864   4.592 -1.3869 -0.3401  0.7936
10478TIP3   OH252848   5.398   6.323  17.341 -0.9771 -0.4675 -0.1351
10478TIP3    H152849   5.481   6.334  17.294 -0.3258 -3.1485  0.2421
10478TIP3    H252850   5.349   6.403  17.321  1.2805  0.7582 -1.1824
10479TIP3   OH252851   1.266   5.347   2.182 -0.1003 -0.2632 -0.4049
10479TIP3    H152852   1.239   5.400   2.107  1.4067  2.1818  0.6152
10479TIP3    H252853   1.353   5.315   2.159  0.1982  0.1650  0.0804
10480TIP3   OH252854   3.819   3.339   3.004 -0.0814 -0.5334 -0.6082
10480TIP3    H152855   3.826   3.407   2.938 -0.5878  0.8856  0.7384
10480TIP3    H252856   3.875   3.368   3.076 -2.3538 -0.1124  1.1045
10481TIP3   OH252857   5.775   0.354   3.418 -0.3639  0.0713 -0.0462
10481TIP3    H152858   5.855   0.407   3.419  0.1149 -0.6479  0.7345
10481TIP3    H252859   5.800   0.272   3.459 -2.0744  0.6826  2.4617
10482TIP3   OH252860   0.630   6.525  14.563 -0.3485 -0.1696 -0.4235
10482TIP3    H152861   0.672   6.446  14.532 -1.0237 -1.0803  0.8887
10482TIP3    H252862   0.697   6.570  14.615  0.1017  0.2539 -1.3486
10483TIP3   OH252863   6.053   3.175   6.505 -0.2901 -0.1062  0.3303
10483TIP3    H152864   6.059   3.235   6.430  0.6751 -1.8428 -1.0714
10483TIP3    H252865   6.014   3.095   6.468  0.6793 -1.1856  1.5552
10484TIP3   OH252866   1.553   3.747   0.033 -0.4235 -0.3965 -0.1730
10484TIP3    H152867   1.615   3.805   0.077  1.4942 -0.4370 -2.6245
10484TIP3    H252868   1.500   3.711   0.104 -0.3939  2.7523  1.6628
10485TIP3   OH252869   6.127   5.394  13.517 -0.3717 -0.3029  0.0560
10485TIP3    H152870   6.068   5.322  13.540 -2.4542  1.7112  1.4844
10485TIP3    H252871   6.068   5.464  13.489  1.4944  1.2951 -0.0357
10486TIP3   OH252872   2.337   0.063  15.380 -0.0080  0.0209 -0.1503
10486TIP3    H152873   2.249   0.069  15.343 -0.4273 -1.7787  0.4486
10486TIP3    H252874   2.326   0.008  15.457  0.8702  3.3971  2.6302
10487TIP3   OH252875   3.097   5.070   0.213  0.6115 -0.1292  0.2728
10487TIP3    H152876   3.192   5.071   0.200  0.5146 -0.2632 -0.4775
10487TIP3    H252877   3.074   4.977   0.213  0.3053 -0.0752 -0.9706
10488TIP3   OH252878   1.672   5.131  11.982 -0.6845  0.1877 -0.1011
10488TIP3    H152879   1.756   5.087  11.983 -0.7049  0.1511  0.0081
10488TIP3    H252880   1.609   5.063  11.958 -0.9399 -0.2401  1.6371
10489TIP3   OH252881   4.726   0.503   1.759  0.3750  0.6380  0.6972
10489TIP3    H152882   4.693   0.540   1.677  0.4866 -1.0433 -0.1366
10489TIP3    H252883   4.759   0.417   1.735 -1.4573 -0.7777  2.8758
10490TIP3   OH252884   5.099   0.725  11.545  0.1605 -0.1691 -0.0360
10490TIP3    H152885   5.013   0.695  11.575  0.3853  0.3525  1.2228
10490TIP3    H252886   5.083   0.813  11.511  0.1183 -0.2417 -0.2014
10491TIP3   OH252887   5.270   2.540  12.932 -0.7231  0.2853 -0.8014
10491TIP3    H152888   5.338   2.607  12.937 -0.6826  0.2196 -0.4542
10491TIP3    H252889   5.233   2.550  12.844 -0.3079  0.3608 -0.9693
10492TIP3   OH252890   4.787   3.847  15.316 -0.0194 -0.0628 -0.0401
10492TIP3    H152891   4.705   3.874  15.358 -0.4732  0.0241 -0.9545
10492TIP3    H252892   4.853   3.853  15.386  0.2196  4.4988 -0.3626
10493TIP3   OH252893   4.308   4.974   3.414 -0.0137 -0.1303  0.0557
10493TIP3    H152894   4.247   4.941   3.348 -0.0579  0.8104 -0.3910
10493TIP3    H252895   4.371   4.904   3.425 -0.5236 -0.6603 -0.3223
10494TIP3   OH252896   5.076   0.459   0.247  0.1210  0.2892  0.2807
10494TIP3    H152897   5.114   0.438   0.162 -1.0398  0.3710 -0.2749
10494TIP3    H252898   5.092   0.382   0.300 -3.0810 -1.7331 -1.3773
10495TIP3   OH252899   3.651   5.241   4.275  0.1118 -0.2096  0.2910
10495TIP3    H152900   3.673   5.156   4.313 -2.9222 -0.8830  0.8475
10495TIP3    H252901   3.656   5.302   4.349  0.8285 -0.1775  0.2229
10496TIP3   OH252902   1.880   0.001  10.687 -0.5470  0.0105  0.2167
10496TIP3    H152903   1.797  -0.045  10.674 -1.6518  1.3738  1.9079
10496TIP3    H252904   1.857   0.094  10.680  0.5555  0.4662  1.9340
10497TIP3   OH252905   0.096   6.286  13.411 -1.0037 -0.3721  0.1306
10497TIP3    H152906   0.069   6.312  13.499 -3.4719  1.2919 -1.0060
10497TIP3    H252907   0.019   6.246  13.373 -0.6485  0.7563 -1.9158
10498TIP3   OH252908   3.401   1.844  10.089  0.6980  0.0519 -0.6197
10498TIP3    H152909   3.424   1.912  10.152  0.7684 -1.6078  1.2423
10498TIP3    H252910   3.318   1.809  10.122  0.3496 -0.3747 -1.8936
10499TIP3   OH252911   0.087   6.200   2.705 -0.3720 -0.2255  0.0220
10499TIP3    H152912   0.054   6.289   2.717  0.8998  0.3715 -0.6473
10499TIP3    H252913   0.035   6.165   2.632 -1.5224 -0.4001  0.8986
10500TIP3   OH252914   0.694   5.612  14.323  0.4223  0.4492  0.1850
10500TIP3    H152915   0.638   5.618  14.400 -2.7241  1.8644 -1.9589
10500TIP3    H252916   0.701   5.702  14.291  1.0100 -0.1621 -1.5390
10501TIP3   OH252917   3.551   4.979  13.470 -0.1607  0.0836 -0.1170
10501TIP3    H152918   3.484   5.037  13.434 -0.6258 -2.0487 -3.0840
10501TIP3    H252919   3.502   4.910  13.515  0.0827 -0.7278 -1.0707
10502TIP3   OH252920   0.734   3.563  14.450 -0.1998  0.7477 -0.5714
10502TIP3    H152921   0.648   3.529  14.425 -0.8651  1.2765  0.8562
10502TIP3    H252922   0.795   3.494  14.426 -1.2796 -0.5841  0.3445
10503TIP3   OH252923   5.549   1.473   3.526  0.0527  0.4541  0.0703
10503TIP3    H152924   5.598   1.517   3.457  0.0326  0.1254 -0.1519
10503TIP3    H252925   5.485   1.539   3.555  1.6326  1.4691  1.4502
10504TIP3   OH252926   2.653   6.546  16.200  0.1744  0.2216 -0.3484
10504TIP3    H152927   2.619   6.570  16.114  0.4553  1.9030 -0.0314
10504TIP3    H252928   2.746   6.532  16.186 -0.0352 -1.0592 -0.5880
10505TIP3   OH252929   3.982   3.740  14.635 -0.2163  0.1877 -0.6839
10505TIP3    H152930   3.993   3.796  14.712 -3.6872  0.8335 -0.4798
10505TIP3    H252931   3.974   3.801  14.562  0.6803 -0.3219 -1.2276
10506TIP3   OH252932   4.827   3.676  12.531 -0.1161 -0.0859 -0.1327
10506TIP3    H152933   4.851   3.607  12.469  1.2981 -0.5272  0.8807
10506TIP3    H252934   4.762   3.636  12.588  0.6438 -0.5628  0.4033
10507TIP3   OH252935   2.177   1.435   0.269  0.3007 -0.0509  0.1296
10507TIP3    H152936   2.148   1.464   0.183  1.2211  0.1526 -0.1204
10507TIP3    H252937   2.101   1.449   0.326 -0.0708  0.5013 -0.4892
10508TIP3   OH252938   2.746   5.064   2.592 -0.1259  0.0062 -0.0712
10508TIP3    H152939   2.688   5.118   2.539 -1.6231 -1.3172  0.1171
10508TIP3    H252940   2.783   5.001   2.530 -1.0804 -0.8899  0.2329
10509TIP3   OH252941   4.199   4.485  15.445 -0.1272  0.4711 -0.6759
10509TIP3    H152942   4.283   4.530  15.437  0.3377 -0.4828 -1.3660
10509TIP3    H252943   4.161   4.489  15.357 -1.0221  1.2780 -0.2736
10510TIP3   OH252944   6.685   4.813   6.311 -0.0933 -0.5327 -0.1452
10510TIP3    H152945   6.618   4.877   6.289 -0.4973 -0.5394  0.9839
10510TIP3    H252946   6.767   4.852   6.281 -0.6316 -0.7663 -2.0299
10511TIP3   OH252947   1.244   6.109   4.415 -0.3699 -0.2124  0.2088
10511TIP3    H152948   1.337   6.095   4.396 -0.4247  0.1115 -0.3487
10511TIP3    H252949   1.220   6.184   4.360 -0.8407  0.0153  0.7209
10512TIP3   OH252950   3.942   6.438  12.180 -0.0904 -0.5162 -0.3394
10512TIP3    H152951   4.037   6.426  12.171 -0.0950 -1.8105  1.0073
10512TIP3    H252952   3.904   6.384  12.111  0.1344  0.2286 -1.0654
10513TIP3   OH252953   2.637   2.162   3.291  0.0013  0.2720  0.9381
10513TIP3    H152954   2.593   2.078   3.283 -0.1281  0.2985  1.3407
10513TIP3    H252955   2.651   2.190   3.201  0.5251 -0.4234  0.7980
10514TIP3   OH252956   2.311   1.845   2.666 -0.1464 -0.1859  0.0523
10514TIP3    H152957   2.350   1.907   2.604 -1.4680  1.2061  0.5642
10514TIP3    H252958   2.255   1.898   2.722 -2.1831 -1.9632 -0.1618
10515TIP3   OH252959   2.723   6.103  16.232  0.2723  0.2277  0.2500
10515TIP3    H152960   2.788   6.156  16.277 -0.4019  1.4723 -0.1867
10515TIP3    H252961   2.770   6.061  16.160  1.0917 -0.8303  1.3638
10516TIP3   OH252962   1.935   2.535   1.672  0.7385 -0.3314 -0.1565
10516TIP3    H152963   1.872   2.606   1.684  2.3623  1.5143 -1.7949
10516TIP3    H252964   1.921   2.506   1.582  1.1254 -1.0164 -0.0003
10517TIP3   OH252965   0.670   6.100   6.256  0.4272  0.0784  0.6339
10517TIP3    H152966   0.740   6.035   6.256 -0.9140 -1.4516  0.6257
10517TIP3    H252967   0.702   6.171   6.201  0.8922 -1.8298 -1.7502
10518TIP3   OH252968   0.600   5.178   0.969  0.2333  0.6837 -0.7041
10518TIP3    H152969   0.575   5.270   0.958 -0.8602  0.6437  1.0216
10518TIP3    H252970   0.571   5.135   0.890 -1.7771  1.3514 -0.3774
10519TIP3   OH252971   4.833   4.370   4.158  0.0060 -0.7088  0.2079
10519TIP3    H152972   4.747   4.338   4.129  0.3471 -1.7402  0.2871
10519TIP3    H252973   4.872   4.296   4.203  0.7481 -0.0906  0.6028
10520TIP3   OH252974   0.797   3.061   5.417 -0.1736 -0.6821  0.2472
10520TIP3    H152975   0.701   3.060   5.424 -0.1329 -0.3823  0.8795
10520TIP3    H252976   0.822   2.969   5.431 -0.3163 -0.6232  0.9331
10521TIP3   OH252977   4.975   5.698  11.315 -0.3326 -0.1080 -0.2182
10521TIP3    H152978   4.921   5.656  11.247  0.8615 -1.0476 -0.6310
10521TIP3    H252979   4.966   5.641  11.391  0.4248 -0.5530 -0.4415
10522TIP3   OH252980   0.605   1.121  14.367 -0.1938 -0.4492 -0.3577
10522TIP3    H152981   0.628   1.046  14.313  1.5672 -1.8934  2.2241
10522TIP3    H252982   0.509   1.120  14.370 -0.2944 -1.1245 -2.2256
10523TIP3   OH252983   2.090   0.165  12.358 -0.2051 -0.2703  0.3237
10523TIP3    H152984   2.138   0.085  12.379  0.8581 -0.2223 -1.6675
10523TIP3    H252985   2.116   0.185  12.268 -3.5661  0.0868 -0.6967
10524TIP3   OH252986   4.133   1.074  11.749 -0.0970 -0.2244  0.2726
10524TIP3    H152987   4.197   1.136  11.714  0.4106 -0.5415  0.6131
10524TIP3    H252988   4.111   1.109  11.835  0.3419 -0.6105  0.5488
10525TIP3   OH252989   6.243   3.513   5.915  0.3151 -0.5143  0.4469
10525TIP3    H152990   6.175   3.477   5.972  2.2518 -2.0886  1.8593
10525TIP3    H252991   6.292   3.573   5.972 -0.4203  1.4072 -0.8286
10526TIP3   OH252992   0.186   3.621   2.656  0.1819  0.0310  0.0648
10526TIP3    H152993   0.218   3.688   2.595 -0.8914 -0.4934 -1.1346
10526TIP3    H252994   0.261   3.564   2.670  0.3749 -0.0224 -1.0462
10527TIP3   OH252995   6.528   2.388   2.800 -0.0874 -0.0848 -0.0086
10527TIP3    H152996   6.568   2.301   2.801 -0.0355 -0.0682  1.2518
10527TIP3    H252997   6.556   2.428   2.882 -0.1129  1.1291 -0.5698
10528TIP3   OH252998   6.069   6.437   2.304 -0.5097  0.6490 -0.2292
10528TIP3    H152999   6.136   6.381   2.345 -1.1643  0.3018  0.4010
10528TIP3    H253000   6.056   6.508   2.367 -1.8716 -0.1418  0.4409
10529TIP3   OH253001   1.579   5.036   3.741  0.0595 -0.3626  0.3169
10529TIP3    H153002   1.591   5.111   3.683 -1.1676  0.0867  0.6293
10529TIP3    H253003   1.543   4.968   3.684  0.3164 -0.4271  0.2293
10530TIP3   OH253004   2.591   3.407  12.383 -0.2165  0.4551  0.0706
10530TIP3    H153005   2.557   3.457  12.309 -3.1554 -0.8014  0.4406
10530TIP3    H253006   2.615   3.472  12.448  0.2627  1.4864 -1.0919
10531TIP3   OH253007   6.474   6.662  17.054 -0.2712  0.4186 -0.2567
10531TIP3    H153008   6.455   6.611  16.976 -0.5291  3.7038 -2.5514
10531TIP3    H253009   6.391   6.665  17.102 -0.8174  0.3867 -1.1728
10532TIP3   OH253010   1.518   3.134  12.684  0.7843  0.0614  0.2045
10532TIP3    H153011   1.593   3.086  12.718  0.9487  0.3469  0.2443
10532TIP3    H253012   1.551   3.177  12.605  0.1216 -1.5188 -0.9970
10533TIP3   OH253013   6.468   4.955   4.990 -0.2669  0.0238  0.0263
10533TIP3    H153014   6.410   4.990   5.058 -0.1901  0.6066 -0.2026
10533TIP3    H253015   6.519   4.888   5.034 -0.1489  0.4655  0.5721
10534TIP3   OH253016   0.923   5.597   5.834 -0.4255 -0.3538  0.0536
10534TIP3    H153017   0.946   5.521   5.780  0.6409 -1.4519  1.9298
10534TIP3    H253018   0.986   5.665   5.809  0.7149 -1.1832  0.5797
10535TIP3   OH253019   3.222   5.055   5.153  0.2346  0.7988  0.1358
10535TIP3    H153020   3.189   5.127   5.207  1.0695  1.7008 -0.5192
10535TIP3    H253021   3.305   5.087   5.119  1.0860 -0.8446  0.5630
10536TIP3   OH253022   5.214   1.193  14.728 -0.3158 -0.1773  0.2839
10536TIP3    H153023   5.289   1.251  14.739 -0.4199  0.1297 -0.6102
10536TIP3    H253024   5.140   1.242  14.764 -0.3962  0.2268 -0.4331
10537TIP3   OH253025   6.307   0.800   1.942 -0.7853 -0.6596 -0.0993
10537TIP3    H153026   6.250   0.849   2.002 -0.0932 -1.4625  1.2472
10537TIP3    H253027   6.267   0.813   1.856 -0.2637  2.8807  0.0097
10538TIP3   OH253028   5.826   4.978   4.642  0.0910  0.4163  0.3912
10538TIP3    H153029   5.804   4.945   4.730 -1.8603  0.4040 -0.0385
10538TIP3    H253030   5.811   5.072   4.647  1.0727  0.5753  0.3656
10539TIP3   OH253031   2.291   0.677  15.136  0.1756 -0.0901  0.3783
10539TIP3    H153032   2.380   0.700  15.110 -0.3191  0.6862 -0.7224
10539TIP3    H253033   2.272   0.732  15.212  0.0855  0.9065 -0.3568
10540TIP3   OH253034   4.907   2.277  14.604  0.0999  0.5244  0.2779
10540TIP3    H153035   4.989   2.323  14.618 -0.3218  1.4243 -0.1523
10540TIP3    H253036   4.839   2.342  14.619 -0.5136  0.0058 -0.1666
10541TIP3   OH253037   6.097   2.659  16.011  0.1537  0.1217 -0.5237
10541TIP3    H153038   6.146   2.630  15.934 -0.0844  2.2651 -1.5693
10541TIP3    H253039   6.161   2.662  16.081  0.9280  0.3381 -1.2222
10542TIP3   OH253040   4.098   5.975  15.366  0.5040  0.2633 -0.4279
10542TIP3    H153041   4.125   6.066  15.378  0.2221  0.2745  0.1856
10542TIP3    H253042   4.006   5.980  15.343  0.4388  0.1284 -0.2016
10543TIP3   OH253043   2.893   6.300  13.629 -0.1360 -0.7117  0.3060
10543TIP3    H153044   2.980   6.335  13.613 -0.3070  0.3307  1.4942
10543TIP3    H253045   2.897   6.209  13.600  0.8729 -0.2409 -1.1110
10544TIP3   OH253046   5.316   4.975  11.898  0.3338 -0.5116  0.3693
10544TIP3    H153047   5.398   4.927  11.889  0.7092  0.1367  0.2547
10544TIP3    H253048   5.281   4.979  11.809  0.1798 -0.7826  0.4172
10545TIP3   OH253049   5.324   1.665   4.897  0.0460  0.5045  0.0016
10545TIP3    H153050   5.263   1.724   4.941 -0.8230 -0.0207 -0.4411
10545TIP3    H253051   5.396   1.653   4.958 -0.5939  0.6696  0.8066
10546TIP3   OH253052   4.962   1.744  12.823  0.3929 -0.1495  0.1828
10546TIP3    H153053   4.939   1.797  12.899  0.1151 -0.9757  0.6828
10546TIP3    H253054   4.887   1.685  12.811  1.0367 -0.9717  0.1215
10547TIP3   OH253055   0.594   4.266  15.189 -0.0593 -0.5009  0.4833
10547TIP3    H153056   0.623   4.357  15.192 -1.7634  0.0963 -0.0335
10547TIP3    H253057   0.603   4.235  15.279  0.7177  0.1022  0.6300
10548TIP3   OH253058   0.943   0.190   4.199  0.4623 -0.0137  0.1876
10548TIP3    H153059   0.866   0.246   4.206 -0.2471 -0.4721 -2.6226
10548TIP3    H253060   1.000   0.235   4.136  2.2399 -0.0097  1.7241
10549TIP3   OH253061   4.158   1.080  15.253  0.2066 -0.6693 -0.1557
10549TIP3    H153062   4.134   1.134  15.177  0.0842 -0.3002  0.1386
10549TIP3    H253063   4.184   0.996  15.216  1.2228 -0.1405 -0.6879
10550TIP3   OH253064   2.532   3.168  15.176  0.3957 -0.3172 -0.0722
10550TIP3    H153065   2.541   3.077  15.204 -0.7419 -0.2928  0.4414
10550TIP3    H253066   2.438   3.178  15.158  0.1975  1.2053  1.5274
10551TIP3   OH253067   3.758   3.866  14.799 -0.0712  0.2434  0.1550
10551TIP3    H153068   3.724   3.778  14.784  0.7499 -0.2889  1.2805
10551TIP3    H253069   3.755   3.907  14.713 -2.4239 -0.1549 -0.0079
10552TIP3   OH253070   2.527   1.743  12.076  0.2798 -0.2313 -0.4969
10552TIP3    H153071   2.450   1.794  12.054  1.9914  3.0595  0.5408
10552TIP3    H253072   2.549   1.769  12.165  1.2960 -2.8755  0.1297
10553TIP3   OH253073   2.540   3.584  16.527  0.6116 -0.5531  0.0694
10553TIP3    H153074   2.626   3.563  16.491  0.1470 -0.4714 -1.1408
10553TIP3    H253075   2.547   3.673  16.559  0.2316  0.5471 -2.6463
10554TIP3   OH253076   3.725   3.175   5.665  0.1245 -0.3475 -0.3682
10554TIP3    H153077   3.785   3.104   5.688  1.6387  1.6871  2.6182
10554TIP3    H253078   3.638   3.136   5.673  0.8968 -2.5941 -1.8328
10555TIP3   OH253079   0.066   0.065   1.167  0.0809 -0.7398  0.6835
10555TIP3    H153080   0.117   0.118   1.228  1.1147 -1.6575  0.6472
10555TIP3    H253081  -0.008   0.121   1.143 -0.7851 -0.5983  3.3183
10556TIP3   OH253082   1.815   3.580   1.509 -0.4108  0.5768  0.5231
10556TIP3    H153083   1.732   3.627   1.501 -0.3778  0.6079  0.3448
10556TIP3    H253084   1.790   3.488   1.516 -0.4526  0.5549  0.1393
10557TIP3   OH253085   6.354   3.915   1.842 -0.4068  0.5569  0.0859
10557TIP3    H153086   6.319   3.829   1.866 -0.8428  1.1046  1.4940
10557TIP3    H253087   6.340   3.969   1.919 -1.2046  2.2322 -1.1810
10558TIP3   OH253088   5.310   4.564   4.771 -0.2242  0.1544  0.2098
10558TIP3    H153089   5.238   4.619   4.803 -0.9009  0.8877 -2.4061
10558TIP3    H253090   5.389   4.616   4.786 -0.7593  1.4618 -1.3387
10559TIP3   OH253091   2.027   6.733  15.259 -0.1361 -0.2930  0.1002
10559TIP3    H153092   2.061   6.720  15.170  0.2248  2.1601 -0.1863
10559TIP3    H253093   1.943   6.776  15.246  0.4016  1.0652  0.9442
10560TIP3   OH253094   1.160   1.007   0.814 -0.2708 -0.3632  0.1737
10560TIP3    H153095   1.239   0.983   0.862  0.3050  1.3776  0.1394
10560TIP3    H253096   1.090   0.959   0.859  0.5320 -0.3937  1.4443
10561TIP3   OH253097   3.417   6.384   3.112 -0.0122  0.0790  0.1535
10561TIP3    H153098   3.388   6.381   3.021  0.2562 -1.6240  0.0927
10561TIP3    H253099   3.394   6.472   3.141  0.4362  0.8758 -1.7271
10562TIP3   OH253100   2.527   5.720  13.975  0.3256  0.5715  0.1175
10562TIP3    H153101   2.591   5.781  14.012  0.2722  1.3930 -1.0778
10562TIP3    H253102   2.558   5.705  13.885 -1.1710  1.0404 -0.5091
10563TIP3   OH253103   2.717   2.582  10.417  0.1072  0.3880  0.4183
10563TIP3    H153104   2.668   2.500  10.430 -0.3727  0.8332  1.5362
10563TIP3    H253105   2.652   2.643  10.383  0.3085  0.4885  0.2189
10564TIP3   OH253106   5.806   4.356   2.101  0.5511 -0.7540 -0.1680
10564TIP3    H153107   5.739   4.318   2.044 -1.0375 -1.0281  1.7547
10564TIP3    H253108   5.827   4.286   2.163  0.2734  0.3044  1.1752
10565TIP3   OH253109   5.297   3.112   4.571  0.0639 -0.3974 -0.4782
10565TIP3    H153110   5.336   3.055   4.505 -1.2226 -1.9447  0.0289
10565TIP3    H253111   5.319   3.071   4.655  0.5466  0.8008  0.0040
10566TIP3   OH253112   2.558   3.541  17.228  0.1180 -0.1642  0.0375
10566TIP3    H153113   2.498   3.509  17.296 -0.1482 -0.5427 -0.3725
10566TIP3    H253114   2.622   3.594  17.276 -1.6487  1.8939  0.2973
10567TIP3   OH253115   6.736   4.711  14.221  0.1935  0.0417 -0.0632
10567TIP3    H153116   6.781   4.747  14.144  0.0856 -0.5152 -0.3950
10567TIP3    H253117   6.804   4.700  14.286  0.8054 -1.9020 -0.9539
10568TIP3   OH253118   0.065   0.808   5.162 -0.3870 -0.0545  0.2564
10568TIP3    H153119   0.102   0.720   5.161 -0.2814 -0.0221  0.7183
10568TIP3    H253120   0.016   0.812   5.245 -0.4971  0.2735  0.1764
10569TIP3   OH253121   5.022   5.384   1.594 -0.4364 -0.2566 -0.0573
10569TIP3    H153122   5.050   5.317   1.532 -0.3757 -0.4463  0.1736
10569TIP3    H253123   5.100   5.438   1.608 -0.7583  0.4947 -1.0382
10570TIP3   OH253124   5.802   5.652   2.781  0.5563  0.0941 -0.4963
10570TIP3    H153125   5.725   5.678   2.731  0.2820  1.7745  0.7389
10570TIP3    H253126   5.877   5.680   2.728  0.3476 -0.9495 -1.3840
10571TIP3   OH253127   1.194   5.919  14.554  0.4399 -0.0608  0.7320
10571TIP3    H153128   1.137   5.921  14.631  0.4357  1.0339  0.7169
10571TIP3    H253129   1.203   5.826  14.533 -0.8722 -0.2819  1.0785
10572TIP3   OH253130   0.826   3.295  10.618 -1.0698 -0.2470 -0.4755
10572TIP3    H153131   0.759   3.318  10.682  0.1067  0.1077  0.6691
10572TIP3    H253132   0.855   3.208  10.644 -0.0392  0.2156 -0.0230
10573TIP3   OH253133   2.352   5.783  13.206  0.0095 -0.2239  0.2985
10573TIP3    H153134   2.327   5.764  13.116  0.0186 -0.1512  0.2807
10573TIP3    H253135   2.384   5.873  13.204  0.5702 -0.4216  0.2600
10574TIP3   OH253136   3.199   3.807   4.815  0.0121  0.9489  0.7566
10574TIP3    H153137   3.149   3.780   4.739  1.6546  2.0662 -0.7879
10574TIP3    H253138   3.175   3.743   4.883 -2.6070  0.8083 -0.1951
10575TIP3   OH253139   5.814   1.249  12.887  0.3255  0.1655 -0.2884
10575TIP3    H153140   5.726   1.214  12.874  0.5417  0.0381 -1.5377
10575TIP3    H253141   5.807   1.304  12.965 -1.1544  1.1235 -1.0509
10576TIP3   OH253142   2.071   0.283   0.218 -0.0289 -0.5654  0.1652
10576TIP3    H153143   2.034   0.266   0.305 -1.7725 -0.7607 -0.5624
10576TIP3    H253144   2.061   0.199   0.172 -0.3875 -0.0932 -0.6358
10577TIP3   OH253145   4.518   2.908  14.166 -0.0909 -0.1091  0.0052
10577TIP3    H153146   4.446   2.900  14.229  0.7393 -0.1165  0.9989
10577TIP3    H253147   4.592   2.864  14.210  0.2256 -1.0952 -1.4632
10578TIP3   OH253148   5.371   6.424   5.421  0.3783  0.2158  0.1064
10578TIP3    H153149   5.288   6.390   5.388 -0.0459 -0.3655  1.6982
10578TIP3    H253150   5.413   6.463   5.344 -0.6590 -0.8589 -1.0496
10579TIP3   OH253151   2.286   4.008  14.393  0.1034  0.4143 -0.0878
10579TIP3    H153152   2.239   3.925  14.396  1.1323 -0.2938 -1.8677
10579TIP3    H253153   2.323   4.019  14.481 -0.0814 -0.9922  0.1824
10580TIP3   OH253154   1.068   3.397  15.721 -0.7342  0.0615  0.2858
10580TIP3    H153155   1.120   3.417  15.643  0.8506 -0.5563  1.1374
10580TIP3    H253156   1.015   3.476  15.735 -2.1886 -0.3871 -2.2404
10581TIP3   OH253157   1.256   0.692   3.374 -0.1024 -0.2063  0.3390
10581TIP3    H153158   1.339   0.653   3.348 -0.7340  0.3777 -2.9843
10581TIP3    H253159   1.198   0.617   3.389  1.1076 -0.6651  3.6913
10582TIP3   OH253160   3.568   5.517   5.257 -0.2702 -0.3987 -0.4240
10582TIP3    H153161   3.644   5.460   5.254 -0.8185 -1.1107 -1.8372
10582TIP3    H253162   3.605   5.606   5.261  0.6151 -0.7676 -0.2223
10583TIP3   OH253163   2.253   1.019  13.047 -0.3319 -0.3329  0.4417
10583TIP3    H153164   2.237   1.048  12.957 -0.4538 -0.4655  0.4195
10583TIP3    H253165   2.333   0.967  13.041  0.2049  0.4659  0.5800
10584TIP3   OH253166   4.572   0.919  15.603  0.3185 -0.4441  1.0297
10584TIP3    H153167   4.552   0.916  15.510 -1.1263 -2.1987  1.3345
10584TIP3    H253168   4.658   0.879  15.610  0.8091  0.4679  0.3889
10585TIP3   OH253169   3.305   2.920  16.774 -0.0886 -0.0760  0.1143
10585TIP3    H153170   3.295   2.972  16.854 -0.6695  2.0623 -1.2767
10585TIP3    H253171   3.244   2.847  16.787 -0.2177  0.2480  1.5879
10586TIP3   OH253172   0.048   6.520  16.216  0.2543 -0.0649  0.0975
10586TIP3    H153173   0.058   6.530  16.311  0.7716  0.9211 -0.0496
10586TIP3    H253174  -0.012   6.590  16.190 -0.8516 -1.0778 -0.1514
10587TIP3   OH253175   1.582   4.810   1.685  0.4219  0.9003  0.0292
10587TIP3    H153176   1.610   4.730   1.640 -1.1882  0.4456 -0.2236
10587TIP3    H253177   1.657   4.869   1.679  1.7802 -0.7233  0.5573
10588TIP3   OH253178   4.325   2.547  13.594  0.6282  0.0701  0.0720
10588TIP3    H153179   4.274   2.471  13.624  1.0270  0.0720  0.7815
10588TIP3    H253180   4.410   2.511  13.571  0.2007  0.0023 -1.5183
10589TIP3   OH253181   1.652   4.349  16.863 -0.0980  0.2447  0.1724
10589TIP3    H153182   1.653   4.259  16.894  0.8971  0.1464 -0.0919
10589TIP3    H253183   1.731   4.357  16.809 -0.8011  0.9356 -0.7951
10590TIP3   OH253184   5.979   1.439   4.553 -0.4248 -0.3055  0.3521
10590TIP3    H153185   5.909   1.412   4.494 -0.5665 -0.6905  0.6913
10590TIP3    H253186   6.056   1.391   4.524 -0.5514 -0.6765  0.6266
10591TIP3   OH253187   4.413   3.839   3.938 -0.1094 -0.0974  0.2023
10591TIP3    H153188   4.418   3.780   4.013 -0.6612 -2.0069 -1.1869
10591TIP3    H253189   4.332   3.888   3.952 -0.4275 -0.7379  0.6604
10592TIP3   OH253190   4.524   3.091   3.708  0.1167 -0.3678  0.0703
10592TIP3    H153191   4.612   3.056   3.725 -0.6090 -2.1269  0.4127
10592TIP3    H253192   4.492   3.040   3.633 -0.7420  0.0236  0.1591
10593TIP3   OH253193   0.418   6.197  14.882  0.1005 -0.0408  0.6017
10593TIP3    H153194   0.377   6.226  14.801  3.3391 -0.5051 -1.3686
10593TIP3    H253195   0.406   6.102  14.882 -1.0412  0.0908  1.3928
10594TIP3   OH253196   5.191   4.953   0.377  0.6754  0.1362 -0.7593
10594TIP3    H153197   5.224   5.031   0.332 -0.4054  1.2523  0.3211
10594TIP3    H253198   5.153   4.900   0.307  1.0727  0.7385 -1.4584
10595TIP3   OH253199   3.283   5.939   4.592  0.5337 -0.0993  0.2824
10595TIP3    H153200   3.203   5.893   4.619  1.4996 -1.8599  0.2878
10595TIP3    H253201   3.251   6.020   4.551 -1.1652  0.0452  1.7548
10596TIP3   OH253202   1.012   5.054   2.141  0.1995  0.4979  0.2623
10596TIP3    H153203   0.929   5.093   2.116  0.7849  2.4072  1.0677
10596TIP3    H253204   1.064   5.053   2.060 -0.8384 -1.5468 -0.4569
10597TIP3   OH253205   3.069   5.044  12.909  0.2723 -0.8033  0.1717
10597TIP3    H153206   3.034   4.958  12.887  0.3855 -0.6412 -0.6771
10597TIP3    H253207   3.029   5.066  12.993  0.8521 -2.0316  0.8081
10598TIP3   OH253208   1.872   3.886   4.046 -0.4027  0.1498 -0.2346
10598TIP3    H153209   1.827   3.919   3.968 -0.4311  0.3165 -0.1494
10598TIP3    H253210   1.901   3.799   4.022 -0.8689 -0.0038 -0.2575
10599TIP3   OH253211   4.560   4.747   1.420 -0.2333 -0.4670 -0.0047
10599TIP3    H153212   4.602   4.736   1.505  1.2415  2.1295 -0.2955
10599TIP3    H253213   4.584   4.668   1.372  0.6181 -1.0655  1.3297
10600TIP3   OH253214   1.817   6.630  13.589  0.4570  0.0111  0.1773
10600TIP3    H153215   1.811   6.717  13.627 -0.1934 -0.1934  0.5494
10600TIP3    H253216   1.830   6.571  13.664 -1.2262 -0.4373  0.1637
10601TIP3   OH253217   1.434   2.673  15.902  0.5099 -0.1691  0.0793
10601TIP3    H153218   1.395   2.756  15.874 -1.8202 -1.0182  0.5538
10601TIP3    H253219   1.466   2.689  15.990  1.6756  0.6724 -0.4781
10602TIP3   OH253220   1.682   5.934   1.800 -0.9681 -0.0761 -0.0778
10602TIP3    H153221   1.752   5.873   1.777 -0.8975 -0.2742  0.6362
10602TIP3    H253222   1.606   5.904   1.751 -0.1548  1.1505 -2.2434
10603TIP3   OH253223   1.683   1.708   0.788 -0.0462  0.0052 -0.5099
10603TIP3    H153224   1.667   1.628   0.737  0.0110 -0.0247 -0.4806
10603TIP3    H253225   1.774   1.730   0.771  0.3290 -0.6809  0.5318
10604TIP3   OH253226   1.656   4.397  15.071  0.1692  0.0540  0.1561
10604TIP3    H153227   1.731   4.456  15.085  0.3689 -0.3418  0.8014
10604TIP3    H253228   1.582   4.456  15.055  0.1120  0.5441  2.0006
10605TIP3   OH253229   2.689   2.092  12.577 -0.3520 -0.5400 -0.5966
10605TIP3    H153230   2.610   2.038  12.569 -1.8179  1.5736 -1.2197
10605TIP3    H253231   2.662   2.179  12.546  1.4455  1.0114  1.8404
10606TIP3   OH253232   3.249   4.570   0.515 -0.2489  0.2290 -0.2810
10606TIP3    H153233   3.285   4.633   0.452  0.1178  0.3327  0.0309
10606TIP3    H253234   3.167   4.609   0.545 -0.1382  0.4492 -0.2627
10607TIP3   OH253235   0.665   0.801  11.769 -0.1114  0.0666  0.0693
10607TIP3    H153236   0.721   0.804  11.846  0.8487  0.9655 -0.6452
10607TIP3    H253237   0.591   0.857  11.791 -0.0950 -0.0843  0.5188
10608TIP3   OH253238   1.211   5.968   0.697  0.2293 -0.1106 -0.0425
10608TIP3    H153239   1.234   6.052   0.736  0.5515 -0.6227  0.8915
10608TIP3    H253240   1.217   5.905   0.769 -2.3867 -0.5797 -0.1158
10609TIP3   OH253241   3.347   0.139   5.303 -0.3695  0.1561  0.2899
10609TIP3    H153242   3.318   0.088   5.228 -0.4934  0.5617  0.0611
10609TIP3    H253243   3.333   0.081   5.378 -0.7863 -0.0363  0.0663
10610TIP3   OH253244   3.069   2.815   5.715 -0.0737 -0.6511  0.5375
10610TIP3    H153245   3.086   2.909   5.702  0.3995 -0.9330 -1.0585
10610TIP3    H253246   2.974   2.806   5.703 -0.2827 -0.2525  1.7120
10611TIP3   OH253247   3.996   5.967  12.737  0.5678 -0.3847 -0.4520
10611TIP3    H153248   3.939   5.890  12.749  0.8043 -0.5716 -0.5079
10611TIP3    H253249   3.968   6.004  12.653 -1.4742  1.2585  0.8655
10612TIP3   OH253250   0.725   2.914   2.099 -0.3183  0.2154 -0.3421
10612TIP3    H153251   0.788   2.983   2.117  1.0793 -1.1396  0.1387
10612TIP3    H253252   0.650   2.935   2.155  0.5853  0.6669  0.7303
10613TIP3   OH253253   3.547   4.451  17.083 -0.1121  0.6583 -0.1903
10613TIP3    H153254   3.572   4.406  17.002 -0.7254  0.4569 -0.2673
10613TIP3    H253255   3.576   4.542  17.069  0.0234  0.5660 -0.5249
10614TIP3   OH253256   3.050   6.505  11.974 -0.0290  0.2841 -0.2273
10614TIP3    H153257   3.029   6.448  11.900  0.2813 -1.5070  1.0013
10614TIP3    H253258   2.966   6.522  12.017 -0.0845  0.5484 -0.4349
10615TIP3   OH253259   3.681   1.570   4.090  0.2138  0.2007 -0.0420
10615TIP3    H153260   3.601   1.523   4.113  0.3167 -0.3419 -0.7486
10615TIP3    H253261   3.651   1.644   4.038  0.2156 -0.5090 -1.0848
10616TIP3   OH253262   3.091   1.135  12.498 -0.5935 -0.1683 -0.8289
10616TIP3    H153263   3.181   1.110  12.518 -0.5150  1.4607  1.0652
10616TIP3    H253264   3.077   1.217  12.545 -2.9017 -0.0885 -1.5329
10617TIP3   OH253265   5.092   5.682   3.479  0.3625 -0.3212 -0.4121
10617TIP3    H153266   5.148   5.678   3.556  0.4002  1.9100 -0.2391
10617TIP3    H253267   5.081   5.591   3.452  1.2142 -1.0817  1.5845
10618TIP3   OH253268   4.949   6.119  17.014  0.2392 -0.3593  0.0222
10618TIP3    H153269   4.887   6.083  17.077  1.6219 -1.9465  0.5478
10618TIP3    H253270   5.002   6.181  17.064  1.2532 -1.5253  0.4413
10619TIP3   OH253271   4.161   1.448   6.547 -0.0591 -0.1386 -0.2728
10619TIP3    H153272   4.225   1.519   6.553  0.0972 -0.3817  1.7664
10619TIP3    H253273   4.076   1.492   6.543  0.0170  0.2302  1.2807
10620TIP3   OH253274   2.791   6.581  16.677  0.0037  0.1518  0.4883
10620TIP3    H153275   2.778   6.607  16.586 -1.9189  0.3136  0.7605
10620TIP3    H253276   2.774   6.487  16.678  1.2604 -0.0894  0.4874
10621TIP3   OH253277   3.022   0.648  12.536 -0.8433  0.2855 -0.3193
10621TIP3    H153278   3.002   0.740  12.518  0.4734  1.0580  1.8235
10621TIP3    H253279   2.938   0.610  12.559 -1.5969  0.6251 -2.2720
10622TIP3   OH253280   5.471   0.397   3.483 -0.9898 -0.2501 -0.2158
10622TIP3    H153281   5.539   0.371   3.422 -2.2717 -0.1811 -1.7401
10622TIP3    H253282   5.472   0.330   3.551  1.0332  0.1314  0.2083
10623TIP3   OH253283   1.207   3.989   3.414 -0.3565  0.7149 -0.2365
10623TIP3    H153284   1.122   3.963   3.379  0.0779  0.0830 -0.8683
10623TIP3    H253285   1.245   4.044   3.345  0.8309 -1.1685 -1.1877
10624TIP3   OH253286   1.540   5.147   1.606  0.0060  0.5256 -0.2928
10624TIP3    H153287   1.622   5.187   1.576  0.7687 -0.8369 -0.1524
10624TIP3    H253288   1.564   5.055   1.624 -1.4294  0.2348  0.2840
10625TIP3   OH253289   0.159   2.254  11.788  0.2220 -0.6222  0.1906
10625TIP3    H153290   0.189   2.169  11.819  1.6489 -0.5716 -0.9438
10625TIP3    H253291   0.170   2.312  11.863 -0.4852 -1.3544  0.8806
10626TIP3   OH253292   5.879   5.934   5.370 -0.0176 -0.6776  0.3206
10626TIP3    H153293   5.842   5.974   5.448 -1.4874 -0.2649 -0.5510
10626TIP3    H253294   5.973   5.948   5.378 -0.2724  0.6824  1.2904
10627TIP3   OH253295   3.832   3.980   1.078  0.5080 -0.2727 -0.1791
10627TIP3    H153296   3.746   3.984   1.119  0.4189  0.0851 -0.3925
10627TIP3    H253297   3.868   4.068   1.089 -0.0348  0.2154 -1.9596
10628TIP3   OH253298   2.442   0.543   3.973 -0.2356  0.2774 -0.4277
10628TIP3    H153299   2.414   0.529   4.063 -1.3630 -2.1039 -1.0595
10628TIP3    H253300   2.528   0.502   3.968 -0.7081 -0.7238 -0.6897
10629TIP3   OH253301   6.061   1.945   5.075  0.1865  0.5750 -0.0783
10629TIP3    H153302   6.069   1.981   5.164  0.4593 -0.1683  0.2121
10629TIP3    H253303   6.147   1.960   5.036  0.6965 -0.7719  0.4538
10630TIP3   OH253304   4.472   4.003   1.812  0.1242 -0.2725 -0.0753
10630TIP3    H153305   4.493   4.057   1.888  1.1392 -0.0093 -0.5326
10630TIP3    H253306   4.528   3.926   1.821  0.5360 -0.0581 -0.7575
10631TIP3   OH253307   4.857   6.506   1.526 -0.1999  0.0093  0.1006
10631TIP3    H153308   4.820   6.443   1.588 -1.0795  0.5679  0.1677
10631TIP3    H253309   4.790   6.573   1.517  0.3434  0.4735 -0.6715
10632TIP3   OH253310   4.614   2.898  16.909 -0.0159 -0.0767 -0.1931
10632TIP3    H153311   4.589   2.957  16.838 -1.5305 -2.0289 -1.3879
10632TIP3    H253312   4.554   2.918  16.980 -0.2371  0.1269 -0.4358
10633TIP3   OH253313   3.284   1.761   0.961  0.3044  0.2253  0.3133
10633TIP3    H153314   3.266   1.737   0.870 -1.1958 -0.7505  0.8333
10633TIP3    H253315   3.360   1.819   0.956 -0.5247  1.2323 -1.6788
10634TIP3   OH253316   0.565   6.058  12.840  0.2786 -0.6788 -0.1900
10634TIP3    H153317   0.539   5.968  12.821 -1.4387 -0.5463  1.2429
10634TIP3    H253318   0.508   6.112  12.785  0.8784 -0.4554 -0.5968
10635TIP3   OH253319   0.483   1.080  13.334 -0.2370  0.2952  0.1791
10635TIP3    H153320   0.563   1.127  13.357 -0.4867  0.6332  0.3561
10635TIP3    H253321   0.513   1.008  13.278  0.0811  0.9862 -0.5517
10636TIP3   OH253322   2.800   0.754   5.268  0.2707 -0.2983 -0.1847
10636TIP3    H153323   2.789   0.724   5.358 -2.8463 -0.2982 -0.4517
10636TIP3    H253324   2.766   0.682   5.215  1.4039 -0.0091 -1.3568
10637TIP3   OH253325   0.379   2.123   3.548  0.5059 -0.2288  0.8871
10637TIP3    H153326   0.417   2.131   3.461 -0.4554  1.4601  0.5664
10637TIP3    H253327   0.366   2.029   3.561 -1.7147 -0.4498 -1.8899
10638TIP3   OH253328   5.452   5.845  15.175 -0.6021  0.0758 -0.6261
10638TIP3    H153329   5.406   5.775  15.129 -1.0349  0.0184 -0.1128
10638TIP3    H253330   5.384   5.908  15.198 -0.2902  0.4252 -0.6414
10639TIP3   OH253331   2.442   4.781   3.117  0.3181  0.0098 -0.3824
10639TIP3    H153332   2.454   4.781   3.022  1.7098 -1.0145 -0.2449
10639TIP3    H253333   2.514   4.727   3.150  0.2973  0.9487  1.3189
10640TIP3   OH253334   1.780   3.479  15.252 -0.1098  0.2543  0.0603
10640TIP3    H153335   1.839   3.553  15.270  0.6564 -0.6458  1.4281
10640TIP3    H253336   1.698   3.503  15.297  0.8478 -0.6538  2.4689
10641TIP3   OH253337   4.593   5.172  14.611  0.2047  0.1660 -0.0422
10641TIP3    H153338   4.629   5.099  14.661  1.7567  0.7160 -0.3082
10641TIP3    H253339   4.539   5.220  14.673  1.1944  0.2003  0.8243
10642TIP3   OH253340   2.501   5.356   3.023 -0.0828 -0.1493 -0.2956
10642TIP3    H153341   2.489   5.434   2.968 -2.0617 -0.3277 -0.1776
10642TIP3    H253342   2.569   5.382   3.085  1.3591  0.4713 -2.0267
10643TIP3   OH253343   5.889   5.538   3.042 -0.3402 -0.4860 -0.6786
10643TIP3    H153344   5.979   5.560   3.018 -0.4693  0.4596 -0.3510
10643TIP3    H253345   5.852   5.498   2.963  0.1314 -0.1364 -1.0822
10644TIP3   OH253346   1.341   3.049   2.238  0.1062  0.5969  0.0095
10644TIP3    H153347   1.359   2.971   2.186 -1.7166  0.7180 -0.8717
10644TIP3    H253348   1.409   3.048   2.306  1.2575 -0.7068 -1.0968
10645TIP3   OH253349   4.984   1.890  13.528 -0.0692  0.3358 -0.3655
10645TIP3    H153350   5.007   1.807  13.571  0.6720  1.4598  1.5080
10645TIP3    H253351   5.044   1.895  13.453  0.3776 -0.4745 -0.0751
10646TIP3   OH253352   6.665   5.287   5.497 -0.0847  0.1777  0.4366
10646TIP3    H153353   6.611   5.234   5.555  0.5850  0.5204  1.3875
10646TIP3    H253354   6.754   5.278   5.531  0.4930 -0.4179 -1.1245
10647TIP3   OH253355   5.232   6.288  14.000 -0.0110 -0.8525 -0.3043
10647TIP3    H153356   5.325   6.269  14.015 -0.1918 -0.5613  1.4155
10647TIP3    H253357   5.204   6.335  14.079 -1.2494  0.4560 -1.4598
10648TIP3   OH253358   6.680   6.026  12.547  0.1696 -1.0471 -0.1782
10648TIP3    H153359   6.612   6.037  12.480 -0.6612 -0.9512  0.6630
10648TIP3    H253360   6.761   6.017  12.497 -0.4357 -1.0068 -1.1998
10649TIP3   OH253361   4.790   2.452  12.759  0.9449 -0.0797  0.2690
10649TIP3    H153362   4.730   2.424  12.690  1.2612 -0.6737  0.2322
10649TIP3    H253363   4.762   2.405  12.837  1.6224 -0.7093  0.1507
10650TIP3   OH253364   5.790   2.075   5.881  0.0074  0.8908  0.1262
10650TIP3    H153365   5.769   2.120   5.963  2.9169  2.9066 -0.1103
10650TIP3    H253366   5.877   2.038   5.896 -1.1097 -2.4021 -0.7007
10651TIP3   OH253367   2.888   0.571   0.385 -0.8334  0.0029  0.0040
10651TIP3    H153368   2.819   0.506   0.374  0.3607 -1.1716 -0.9762
10651TIP3    H253369   2.860   0.646   0.332 -0.1723 -1.4879 -2.6231
10652TIP3   OH253370   3.018   4.554  13.330  0.1937 -0.0360  0.0816
10652TIP3    H153371   3.017   4.485  13.264  0.9857  2.0575 -2.3034
10652TIP3    H253372   2.965   4.624  13.292  1.0945  1.4612  1.4351
10653TIP3   OH253373   6.552   6.032  15.598  0.3172  0.1199  0.1952
10653TIP3    H153374   6.489   6.062  15.533  1.2957 -0.3704 -1.0304
10653TIP3    H253375   6.500   5.980  15.660 -0.7850  1.3664  0.3530
10654TIP3   OH253376   4.077   0.008  12.853 -0.3489 -0.0892 -0.4006
10654TIP3    H153377   4.062   0.098  12.825 -0.3311  0.1549  0.3479
10654TIP3    H253378   3.994  -0.018  12.893 -0.3994 -0.4535 -0.7419
10655TIP3   OH253379   3.723   0.900  12.035 -0.0489 -0.2985 -0.6430
10655TIP3    H153380   3.719   0.836  11.964 -1.5743 -0.8426 -0.1281
10655TIP3    H253381   3.768   0.854  12.106 -1.0172 -0.7891 -0.3223
10656TIP3   OH253382   6.613   4.371  16.941  0.2411  0.0524 -0.0972
10656TIP3    H153383   6.640   4.305  16.877 -1.5642 -1.8616  0.9773
10656TIP3    H253384   6.684   4.375  17.004  0.4838 -0.6880 -0.3211
10657TIP3   OH253385   1.138   6.398  12.484  0.3810 -0.7980 -1.1911
10657TIP3    H153386   1.143   6.467  12.549 -0.9572 -1.6874 -0.0718
10657TIP3    H253387   1.117   6.319  12.534 -2.3893 -1.2227 -2.7939
10658TIP3   OH253388   1.608   5.701   4.208  0.0154  0.4169  0.1129
10658TIP3    H153389   1.698   5.726   4.188  0.4863 -1.4724 -0.4273
10658TIP3    H253390   1.555   5.744   4.141  0.3658  2.2522  0.9552
10659TIP3   OH253391   0.950   1.901   2.562 -0.2171  0.9102  0.7109
10659TIP3    H153392   0.873   1.844   2.570  1.3004 -1.6189 -1.3073
10659TIP3    H253393   1.014   1.865   2.623  0.6498  0.5778 -0.3570
10660TIP3   OH253394   3.441   4.192  14.299 -0.3487 -0.4085 -0.4043
10660TIP3    H153395   3.356   4.233  14.288 -0.2013 -0.0103 -0.0864
10660TIP3    H253396   3.425   4.117  14.357 -0.2625  0.4496  0.7561
10661TIP3   OH253397   6.214   3.301  15.848  0.0193 -0.1579  0.4404
10661TIP3    H153398   6.294   3.321  15.897  0.3584  0.7355 -0.4457
10661TIP3    H253399   6.240   3.309  15.756 -0.7248 -1.3538  0.1046
10662TIP3   OH253400   3.112   3.379  15.680  1.0856 -0.2387  0.3844
10662TIP3    H153401   3.169   3.368  15.604  3.0673  0.7052  1.6356
10662TIP3    H253402   3.109   3.291  15.720  1.3047 -0.3944  0.0607
10663TIP3   OH253403   4.451   4.901   2.466  0.3117  0.6868 -0.2567
10663TIP3    H153404   4.546   4.908   2.480  0.2386  0.9948  0.0989
10663TIP3    H253405   4.442   4.838   2.394  0.7692  0.2980  0.0192
10664TIP3   OH253406   2.889   0.626  12.953  0.1943 -0.1789 -0.5809
10664TIP3    H153407   2.938   0.696  12.997 -2.2174  0.6208  1.0400
10664TIP3    H253408   2.799   0.659  12.948 -1.0375 -3.1141  0.2216
10665TIP3   OH253409   3.931   2.083  15.272  0.2747  0.0187 -0.2251
10665TIP3    H153410   3.866   2.089  15.342  2.0570 -0.5556  1.5892
10665TIP3    H253411   3.920   1.994  15.238  0.3804 -0.2415  0.3934
10666TIP3   OH253412   5.329   4.652  16.908  0.1475  0.7708  0.0550
10666TIP3    H153413   5.293   4.598  16.838 -0.3239  0.5640  0.4470
10666TIP3    H253414   5.413   4.684  16.874 -0.9105  2.1888 -1.3223
10667TIP3   OH253415   6.635   5.717  15.769  0.2278 -0.3493  0.3592
10667TIP3    H153416   6.669   5.725  15.680  0.0132  0.2815  0.3271
10667TIP3    H253417   6.547   5.680  15.758  0.1987 -0.2653  0.3032
10668TIP3   OH253418   3.891   6.457   2.556  0.4142  0.2230  0.0394
10668TIP3    H153419   3.936   6.373   2.569 -0.3562  0.0442  1.8534
10668TIP3    H253420   3.828   6.462   2.628 -2.5720  0.4196 -2.3710
10669TIP3   OH253421   6.273   2.686   4.726 -0.1423 -0.3821  0.2394
10669TIP3    H153422   6.329   2.666   4.651  1.6674  0.4581  1.3068
10669TIP3    H253423   6.233   2.770   4.705  1.1771  0.3722  0.6068
10670TIP3   OH253424   0.656   0.254  15.520  0.4996 -0.1965  0.0625
10670TIP3    H153425   0.693   0.302  15.446  0.1764  0.7518  0.4975
10670TIP3    H253426   0.635   0.167  15.484  1.7942 -0.2856 -0.5447
10671TIP3   OH253427   6.124   0.087  16.135 -0.0382  0.6684 -0.4679
10671TIP3    H153428   6.147   0.113  16.045 -0.6477 -0.2408 -0.9105
10671TIP3    H253429   6.047   0.031  16.124  2.2907 -2.9574  0.2120
10672TIP3   OH253430   0.607   3.695   1.090 -0.4055 -0.0576 -0.1195
10672TIP3    H153431   0.580   3.765   1.149  0.3179  0.7612 -0.7263
10672TIP3    H253432   0.693   3.668   1.122  0.7642  1.5310 -1.6891
10673TIP3   OH253433   1.437   2.790  16.163 -0.2163  0.8106 -0.3540
10673TIP3    H153434   1.386   2.870  16.177 -1.0726  0.8320 -3.0878
10673TIP3    H253435   1.527   2.819  16.154 -0.3128  1.2767  0.1604
10674TIP3   OH253436   5.390   0.634   0.987  0.0684 -0.0377 -0.1655
10674TIP3    H153437   5.433   0.558   1.026  1.8214  1.3052  0.6361
10674TIP3    H253438   5.454   0.705   0.994 -2.9131  2.7368  3.0624
10675TIP3   OH253439   4.137   1.919  10.274  0.2194  0.0560  0.6050
10675TIP3    H153440   4.104   1.930  10.363 -0.9925  2.8350 -0.0460
10675TIP3    H253441   4.219   1.871  10.284 -0.3771 -0.5957  3.0980
10676TIP3   OH253442   1.181   0.272  16.642  0.1320  0.0661  0.2111
10676TIP3    H153443   1.218   0.297  16.557  0.1352  0.5980  0.3664
10676TIP3    H253444   1.092   0.242  16.621  0.4079 -0.5782 -0.0789
10677TIP3   OH253445   4.633   4.945  16.474  0.3461  0.2221 -0.3389
10677TIP3    H153446   4.681   4.889  16.536 -0.5388 -0.3507 -0.1564
10677TIP3    H253447   4.609   5.022  16.526  0.5953  0.2687 -0.2892
10678TIP3   OH253448   1.307   3.948  13.289 -0.3088 -0.5899  0.1797
10678TIP3    H153449   1.253   4.027  13.287 -1.0785 -0.9317  2.8537
10678TIP3    H253450   1.395   3.978  13.267 -0.7447  0.8518  0.3084
10679TIP3   OH253451   5.024   0.495   4.713 -0.3591  0.3126 -0.7498
10679TIP3    H153452   4.976   0.434   4.770 -1.8083  0.8974 -1.3045
10679TIP3    H253453   5.004   0.466   4.624  0.3833  0.5284 -0.9917
10680TIP3   OH253454   0.020   0.552  15.493  0.1772 -0.0123  0.4737
10680TIP3    H153455   0.022   0.623  15.557  2.0437 -1.1444  1.7673
10680TIP3    H253456   0.108   0.549  15.456 -0.7568  0.3707 -1.9490
10681TIP3   OH253457   3.933   6.489  10.691 -0.1736 -0.1481 -0.3368
10681TIP3    H153458   3.906   6.414  10.638 -1.4252  1.2519 -1.8195
10681TIP3    H253459   4.028   6.494  10.678 -0.0486 -1.5311 -0.0943
10682TIP3   OH253460   1.986   4.546  13.891 -0.1738  0.0228  0.7592
10682TIP3    H153461   1.977   4.572  13.983 -0.9005  3.0926 -0.0850
10682TIP3    H253462   1.964   4.624  13.841  1.0135 -1.3028 -2.0656
10683TIP3   OH253463   6.528   2.735  12.146 -0.5396 -0.1123 -0.0606
10683TIP3    H153464   6.515   2.827  12.122 -1.0940  0.3502  1.8370
10683TIP3    H253465   6.479   2.725  12.227 -0.6165 -2.1497 -0.3155
10684TIP3   OH253466   4.863   2.106   3.682 -0.1853  0.2290  0.0455
10684TIP3    H153467   4.953   2.110   3.650  0.0986 -0.8434  0.6637
10684TIP3    H253468   4.809   2.133   3.607  0.6229  0.5953 -0.4157
10685TIP3   OH253469   1.004   0.394  16.148 -0.0196  0.0739 -0.0692
10685TIP3    H153470   0.994   0.434  16.062 -0.4917  0.2559  0.0656
10685TIP3    H253471   0.983   0.302  16.135  1.8093 -0.3133 -0.5422
10686TIP3   OH253472   1.021   1.887   5.799  0.0701  0.1087 -0.1479
10686TIP3    H153473   1.088   1.870   5.865  0.8031  2.3438 -0.2412
10686TIP3    H253474   1.043   1.973   5.764  0.3518 -1.3598 -4.0982
10687TIP3   OH253475   2.508   0.702  11.689  0.0631 -0.5993  0.1405
10687TIP3    H153476   2.467   0.782  11.657  0.0297 -0.7200 -0.1222
10687TIP3    H253477   2.588   0.731  11.732  0.5345 -0.5028 -0.7799
10688TIP3   OH253478   0.463   0.856  12.647 -0.2857  0.1967  0.2147
10688TIP3    H153479   0.416   0.844  12.730 -1.9749  0.7489 -0.6166
10688TIP3    H253480   0.419   0.930  12.605  3.6346  3.2435  0.9245
10689TIP3   OH253481   2.973   2.507  15.653  0.0841 -0.2208  0.1512
10689TIP3    H153482   3.019   2.587  15.676  1.5010 -1.1760  0.7240
10689TIP3    H253483   3.042   2.446  15.625 -0.8043 -1.7063  1.0751
10690TIP3   OH253484   3.790   6.003   6.818  0.0214  0.1792  0.0600
10690TIP3    H153485   3.728   6.052   6.765  1.4748  0.0869 -1.8602
10690TIP3    H253486   3.755   5.914   6.821 -0.9243  0.5652  0.7170
10691TIP3   OH253487   1.900   4.312  16.756  0.0795 -0.8417  0.6888
10691TIP3    H153488   1.929   4.238  16.703 -1.1348 -1.4365  0.8083
10691TIP3    H253489   1.965   4.380  16.740  0.5388 -1.5113 -0.4081
10692TIP3   OH253490   4.927   5.009  17.437 -0.4217  0.3789 -0.1336
10692TIP3    H153491   4.907   5.050  17.353 -0.6934  1.9977  0.6763
10692TIP3    H253492   4.871   5.054  17.500  1.1057  0.5275  1.2052
10693TIP3   OH253493   2.969   2.522  10.898 -0.2016 -0.7095  0.1908
10693TIP3    H153494   2.998   2.473  10.821 -0.7075 -0.2624 -0.2999
10693TIP3    H253495   2.926   2.599  10.862  2.2700  1.1273  0.9525
10694TIP3   OH253496   0.161   5.128   2.856 -0.1036 -0.3233  0.2294
10694TIP3    H153497   0.126   5.108   2.943 -2.5130  0.6775 -0.4368
10694TIP3    H253498   0.189   5.219   2.862 -2.2884  0.4502 -0.5756
10695TIP3   OH253499   4.292   1.207   5.988 -0.1377 -0.2159 -0.1681
10695TIP3    H153500   4.208   1.184   6.027 -0.0311  0.0769  0.2470
10695TIP3    H253501   4.293   1.303   5.989 -0.2734 -0.1913 -1.2057
10696TIP3   OH253502   0.554   1.729  17.214  0.3486 -0.7948  0.0672
10696TIP3    H153503   0.626   1.705  17.155  1.7788  0.4730  1.1966
10696TIP3    H253504   0.475   1.711  17.164  1.4105 -2.7104 -1.0563
10697TIP3   OH253505   3.272   2.834   2.685 -0.2345  0.1470 -0.1809
10697TIP3    H153506   3.229   2.908   2.728  1.0132  1.2683 -0.7787
10697TIP3    H253507   3.318   2.873   2.610 -1.1996 -1.5458 -1.7387
10698TIP3   OH253508   4.236   4.823  13.080 -0.0538 -0.2831 -0.6271
10698TIP3    H153509   4.236   4.733  13.113  3.0289  0.2147  1.1743
10698TIP3    H253510   4.165   4.866  13.128 -1.0920 -1.5380 -0.9749
10699TIP3   OH253511   6.285   2.925   5.211 -0.2741 -0.2118  0.4606
10699TIP3    H153512   6.265   2.874   5.133 -0.9607  0.0145  0.4850
10699TIP3    H253513   6.241   3.009   5.197  0.2671  0.1207  0.7334
10700TIP3   OH253514   1.542   3.747   5.229  0.1169  0.2076  0.3736
10700TIP3    H153515   1.604   3.699   5.174 -0.9167 -0.7172 -0.0168
10700TIP3    H253516   1.477   3.781   5.168 -2.3761 -2.8246  1.1510
10701TIP3   OH253517   2.573   4.744  15.955 -0.4583  0.6073 -0.1815
10701TIP3    H153518   2.608   4.807  16.018 -2.1164  0.9989  0.4149
10701TIP3    H253519   2.543   4.670  16.008  0.7201 -0.3419 -0.8028
10702TIP3   OH253520   1.726   0.879  12.823 -0.0009 -0.1847  0.2455
10702TIP3    H153521   1.797   0.817  12.842  0.3896  0.5690  1.3314
10702TIP3    H253522   1.771   0.955  12.786 -0.3402 -0.0347  0.1466
10703TIP3   OH253523   3.203   5.466  14.185 -0.0814  0.0394 -0.4309
10703TIP3    H153524   3.285   5.493  14.145  0.3765 -0.1222  0.3702
10703TIP3    H253525   3.201   5.510  14.270 -1.2706  0.7740 -0.8146
10704TIP3   OH253526   3.282   3.729  13.127  0.1323 -0.0720 -0.5809
10704TIP3    H153527   3.212   3.764  13.181  0.6107  0.6372 -0.4138
10704TIP3    H253528   3.362   3.768  13.163  0.8049 -2.0904  0.2541
10705TIP3   OH253529   0.702   0.912  16.634  0.0298 -0.1039 -0.0512
10705TIP3    H153530   0.723   0.888  16.724  2.4797 -0.9208 -0.7492
10705TIP3    H253531   0.691   1.007  16.637 -2.1904 -0.3311  1.4370
10706TIP3   OH253532   2.461   1.054  15.427  0.3894  0.3244 -0.3686
10706TIP3    H153533   2.498   1.087  15.345  0.2916  0.2727 -0.4347
10706TIP3    H253534   2.517   1.091  15.495  2.1861 -1.8523 -0.5644
10707TIP3   OH253535   3.021   0.906   1.286 -0.5704 -0.0573  0.2052
10707TIP3    H153536   3.105   0.883   1.326  0.3770 -0.5957 -1.8984
10707TIP3    H253537   3.013   1.000   1.298  0.8027  0.1551 -0.3217
10708TIP3   OH253538   3.686   5.752  16.534  0.3666 -0.0096 -0.1975
10708TIP3    H153539   3.679   5.814  16.461 -2.1093 -1.2630 -1.1235
10708TIP3    H253540   3.648   5.671  16.501 -1.0901 -0.5686  2.5616
10709TIP3   OH253541   5.416   5.390  14.177  0.3601 -0.2191 -0.7051
10709TIP3    H153542   5.421   5.399  14.273 -4.3483  0.4349 -0.2933
10709TIP3    H253543   5.437   5.298  14.161  1.2362 -0.3546  0.9126
10710TIP3   OH253544   1.973   2.003   6.238  0.1896  0.8322  0.0676
10710TIP3    H153545   2.053   2.055   6.229 -0.3406  1.4890 -0.9415
10710TIP3    H253546   1.916   2.056   6.294  0.0767  0.8120 -0.0299
10711TIP3   OH253547   2.625   0.691   1.859 -0.1888 -0.4527 -0.0382
10711TIP3    H153548   2.572   0.714   1.935  0.5165  1.5591 -0.0826
10711TIP3    H253549   2.586   0.740   1.787  1.4086  0.7363 -0.1512
10712TIP3   OH253550   6.410   6.646   1.623  0.1560 -0.1189  0.1027
10712TIP3    H153551   6.341   6.626   1.685 -1.1893 -0.3830 -1.4278
10712TIP3    H253552   6.438   6.561   1.590  0.7103  0.0301  0.1784
10713TIP3   OH253553   2.091   3.011   2.259 -0.4331 -0.6507  0.0245
10713TIP3    H153554   2.144   3.061   2.197  1.0389 -1.6377  0.4599
10713TIP3    H253555   2.099   2.920   2.231 -0.5944 -0.9978  1.0594
10714TIP3   OH253556   0.673   1.527  11.267  0.1478 -0.2865 -0.1718
10714TIP3    H153557   0.630   1.479  11.337 -0.4691  0.9175  0.3169
10714TIP3    H253558   0.610   1.596  11.244  1.5774  1.1880  0.1671
10715TIP3   OH253559   0.826   3.151  12.088  0.4007  0.0023  0.1500
10715TIP3    H153560   0.852   3.135  11.997  1.1738  0.7205  0.2350
10715TIP3    H253561   0.898   3.113  12.139  0.6414  0.8130  0.4217
10716TIP3   OH253562   0.236   0.859  14.804 -0.3526  0.3885 -0.5627
10716TIP3    H153563   0.163   0.919  14.814  0.1220  0.6690  1.8298
10716TIP3    H253564   0.270   0.848  14.892  2.1267 -0.2168 -1.5129
10717TIP3   OH253565   6.116   5.080   2.923 -0.0973 -0.0673  0.2937
10717TIP3    H153566   6.134   5.151   2.984 -1.2497  0.6336 -0.1496
10717TIP3    H253567   6.028   5.050   2.946 -0.2789 -0.2371 -0.5863
10718TIP3   OH253568   0.166   5.649   3.817  0.0121 -0.6224 -0.6027
10718TIP3    H153569   0.136   5.624   3.905 -2.2123 -2.4173 -1.7543
10718TIP3    H253570   0.111   5.723   3.793  2.3792  1.6179  0.3975
10719TIP3   OH253571   0.129   6.223  14.204  0.0255 -0.8907 -0.2472
10719TIP3    H153572   0.132   6.305  14.154  2.6651 -1.3957 -1.0668
10719TIP3    H253573   0.091   6.160  14.144  1.9903 -1.1985 -1.2259
10720TIP3   OH253574   5.048   3.589   0.307 -0.3394 -0.4712  0.5740
10720TIP3    H153575   4.998   3.669   0.288  0.6130 -0.0217 -0.1105
10720TIP3    H253576   5.003   3.550   0.382 -1.8684 -0.2185 -0.1685
10721TIP3   OH253577   5.382   1.533  15.642  0.2352 -0.0480  0.2008
10721TIP3    H153578   5.443   1.463  15.662 -0.3178 -0.3442  0.9248
10721TIP3    H253579   5.387   1.591  15.718  1.4409  1.2709 -0.8231
10722TIP3   OH253580   3.948   2.345  17.129  0.0454  0.1739 -0.1398
10722TIP3    H153581   4.026   2.397  17.114  0.1943 -0.1050 -0.3341
10722TIP3    H253582   3.875   2.406  17.116  0.2387  0.5986  0.6993
10723TIP3   OH253583   2.337   4.014  13.597  0.1305  0.4708 -0.0541
10723TIP3    H153584   2.264   4.020  13.659 -0.5286  0.1724 -0.7839
10723TIP3    H253585   2.413   3.995  13.652 -0.6553 -1.1055  0.5437
10724TIP3   OH253586   1.642   6.218  13.777 -0.2319  0.0364 -0.1273
10724TIP3    H153587   1.656   6.195  13.869 -0.7698 -2.0723 -0.5205
10724TIP3    H253588   1.711   6.281  13.757  2.2959 -2.2548  0.7443
10725TIP3   OH253589   5.907   3.095   2.322 -0.1003 -0.3282 -0.2989
10725TIP3    H153590   5.987   3.136   2.289  0.0612 -0.8669 -0.5781
10725TIP3    H253591   5.904   3.010   2.279 -1.0380 -0.1531 -0.6158
10726TIP3   OH253592   6.158   1.268   3.390  0.5266  0.2423  0.0523
10726TIP3    H153593   6.177   1.176   3.405 -0.8692 -0.0869 -0.0215
10726TIP3    H253594   6.062   1.274   3.395  0.5868  1.6761  0.0082
10727TIP3   OH253595   5.364   1.793  12.944 -0.2887 -0.1186  0.1438
10727TIP3    H153596   5.431   1.829  12.886 -1.0817  1.1531 -0.0127
10727TIP3    H253597   5.414   1.754  13.016  0.6218  1.0819  0.1905
10728TIP3   OH253598   0.277   4.718   5.103  0.9378 -0.2907 -0.1246
10728TIP3    H153599   0.205   4.781   5.100  1.8305  1.0570  3.2400
10728TIP3    H253600   0.339   4.750   5.038  1.2107  2.1656  1.2500
10729TIP3   OH253601   1.109   5.364   5.951  0.1298  0.3132 -0.4233
10729TIP3    H153602   1.166   5.430   5.992 -0.5330  1.3803 -1.1632
10729TIP3    H253603   1.023   5.406   5.945 -0.6060 -1.0527  0.1277
10730TIP3   OH253604   6.033   3.996  15.907  0.0813 -0.1011 -0.3694
10730TIP3    H153605   6.087   3.994  15.986 -0.5506  1.2908  0.1288
10730TIP3    H253606   5.974   3.922  15.917  0.9233 -0.7598 -0.2066
10731TIP3   OH253607   4.513   6.720   0.726  0.0338 -0.2637 -0.0628
10731TIP3    H153608   4.502   6.811   0.754 -3.3986 -0.3194 -0.7161
10731TIP3    H253609   4.579   6.723   0.658  0.9616  1.4994  0.8557
10732TIP3   OH253610   1.582   4.114  13.338  0.1860  0.2680  0.4554
10732TIP3    H153611   1.538   4.194  13.307 -0.4277  0.3682  1.5387
10732TIP3    H253612   1.636   4.144  13.411  0.1707 -0.2585  0.6853
10733TIP3   OH253613   1.248   1.024   3.950 -0.5940  0.4247 -0.6821
10733TIP3    H153614   1.294   1.104   3.977 -0.6283  1.0032 -2.2286
10733TIP3    H253615   1.310   0.953   3.969 -1.0150  0.6404  1.8023
10734TIP3   OH253616   2.714   2.360   1.307  0.8651 -0.5840 -0.2025
10734TIP3    H153617   2.653   2.318   1.368 -0.5500 -0.1818 -1.2864
10734TIP3    H253618   2.786   2.298   1.297  1.2923 -0.5497  2.0614
10735TIP3   OH253619   3.179   2.231  12.328  0.5836  0.4984  0.1919
10735TIP3    H153620   3.088   2.226  12.358 -0.1879  0.4292 -2.0024
10735TIP3    H253621   3.229   2.185  12.396 -1.5072 -3.0730 -0.4339
10736TIP3   OH253622   3.976   1.404  16.956  0.0544  0.1723  0.0021
10736TIP3    H153623   4.035   1.417  17.031  0.3900  0.5371 -0.3200
10736TIP3    H253624   4.032   1.367  16.888  0.4910  2.6357 -1.0954
10737TIP3   OH253625   5.729   6.598  14.144  0.1377  0.3722  0.6560
10737TIP3    H153626   5.729   6.581  14.239 -1.4783  0.0384  0.6300
10737TIP3    H253627   5.809   6.648  14.129  0.2731  0.7070  2.2531
10738TIP3   OH253628   3.364   4.118   4.307  0.1766  0.1254  0.2804
10738TIP3    H153629   3.292   4.148   4.252  0.2385 -1.7615 -0.9205
10738TIP3    H253630   3.442   4.154   4.266  0.1697 -0.7308 -0.5028
10739TIP3   OH253631   6.686   4.869  13.383  0.1244  0.3490 -0.0051
10739TIP3    H153632   6.648   4.909  13.461  0.0432  2.4079 -1.0485
10739TIP3    H253633   6.620   4.805  13.354  0.5369 -1.1138  2.0485
10740TIP3   OH253634   3.666   5.080  15.447 -0.5767 -0.7529  0.0959
10740TIP3    H153635   3.634   5.124  15.526 -1.0573  0.0004 -0.4988
10740TIP3    H253636   3.599   5.098  15.380 -1.8544 -4.0762  0.2844
10741TIP3   OH253637   4.560   2.833   5.560 -0.4333 -0.7336 -0.4176
10741TIP3    H153638   4.546   2.927   5.567 -1.4770 -0.9281  0.3202
10741TIP3    H253639   4.568   2.816   5.466  1.6289  0.3186 -0.4863
10742TIP3   OH253640   6.512   0.640   2.167 -0.4165  0.3564  0.3119
10742TIP3    H153641   6.419   0.662   2.170 -0.2457  1.2406 -0.5502
10742TIP3    H253642   6.548   0.694   2.096  0.6798 -0.2513  0.3815
10743TIP3   OH253643   3.717   1.212  14.679 -0.1098  0.2370 -0.9441
10743TIP3    H153644   3.702   1.301  14.646  0.2513  0.7051  0.1054
10743TIP3    H253645   3.699   1.155  14.604 -0.0303  1.2135 -1.7238
10744TIP3   OH253646   0.244   3.965   5.863  0.1788 -0.3329  0.3382
10744TIP3    H153647   0.295   3.975   5.783  0.2266 -0.5245  0.3444
10744TIP3    H253648   0.209   4.052   5.880 -0.6381 -0.4928 -0.4300
10745TIP3   OH253649   3.888   1.315   4.679  0.0077  0.3556 -0.0897
10745TIP3    H153650   3.793   1.301   4.683 -0.2860  1.3804 -1.8737
10745TIP3    H253651   3.908   1.310   4.585  1.5624  0.9959  0.1812
10746TIP3   OH253652   0.389   5.077   4.562  0.2640  0.4112 -0.4366
10746TIP3    H153653   0.434   5.129   4.629  1.8085  1.1823 -1.9801
10746TIP3    H253654   0.440   4.997   4.555  1.0707  1.0180 -1.7662
10747TIP3   OH253655   4.995   0.543  17.002  0.2162 -0.4104  0.1077
10747TIP3    H153656   5.002   0.634  16.974 -1.9019 -0.0511  0.5473
10747TIP3    H253657   5.008   0.492  16.923  2.1686  0.2125 -0.0119
10748TIP3   OH253658   0.057   1.335  15.886  0.4517 -0.1111  0.2897
10748TIP3    H153659   0.135   1.284  15.867  1.1986  1.0441  0.1734
10748TIP3    H253660   0.049   1.397  15.814  0.1629  0.6319  0.9366
10749TIP3   OH253661   1.333   5.143   3.584  0.6949 -0.3982  0.5601
10749TIP3    H153662   1.267   5.106   3.644  0.4445 -0.0462  0.5084
10749TIP3    H253663   1.364   5.221   3.629 -0.2667  0.4696 -0.2258
10750TIP3   OH253664   2.777   5.452   5.340 -0.6475  0.2673  0.0630
10750TIP3    H153665   2.711   5.500   5.390 -0.2505 -1.0642  1.9908
10750TIP3    H253666   2.844   5.429   5.404  0.0323 -1.3166 -1.1212
10751TIP3   OH253667   2.743   0.026  11.170 -1.2827 -0.0954 -0.2055
10751TIP3    H153668   2.779   0.111  11.144 -0.3227 -0.7491 -1.1537
10751TIP3    H253669   2.651   0.030  11.147 -1.6264  1.2528  1.2756
10752TIP3   OH253670   2.290   3.161   2.423 -0.5341 -0.2216  0.1182
10752TIP3    H153671   2.343   3.152   2.344 -1.5967  0.7130 -0.7325
10752TIP3    H253672   2.225   3.091   2.415  0.1600 -0.9695  0.8486
10753TIP3   OH253673   5.586   3.736  12.205 -0.0129 -0.0984 -0.2039
10753TIP3    H153674   5.572   3.831  12.206  0.5061 -0.0250  0.2410
10753TIP3    H253675   5.522   3.701  12.267  1.3474  0.1935  1.4535
10754TIP3   OH253676   1.261   1.498   1.898 -0.2643 -0.6638  0.1351
10754TIP3    H153677   1.313   1.490   1.819  1.0607 -0.8137  0.9940
10754TIP3    H253678   1.311   1.557   1.954 -1.2984 -0.3614  0.7762
10755TIP3   OH253679   2.085   3.876   1.832 -0.1393 -0.1297 -0.8761
10755TIP3    H153680   2.157   3.836   1.783 -0.8227 -1.6553 -0.6871
10755TIP3    H253681   2.100   3.849   1.923  0.5454  1.8257 -0.3677
10756TIP3   OH253682   0.427   1.034  11.445 -0.2039  0.5356 -0.1312
10756TIP3    H153683   0.408   1.109  11.389  0.4216  1.6555  1.1157
10756TIP3    H253684   0.522   1.024  11.440 -0.1053  0.8312  0.9279
10757TIP3   OH253685   1.211   6.160  10.935  0.0844  0.1969 -0.4313
10757TIP3    H153686   1.124   6.171  10.971 -0.3578  0.4884 -1.5541
10757TIP3    H253687   1.198   6.153  10.841  1.3156  0.8322 -0.6781
10758TIP3   OH253688   2.811   1.184   0.241 -0.2194  0.1908 -0.1353
10758TIP3    H153689   2.753   1.236   0.186 -0.9501 -0.0258  0.4138
10758TIP3    H253690   2.894   1.231   0.240 -0.0943 -0.0011 -1.7198
10759TIP3   OH253691   3.080   5.860   6.156 -0.3913  0.1188 -0.0031
10759TIP3    H153692   3.064   5.951   6.184  2.2310  0.9633 -0.9215
10759TIP3    H253693   3.157   5.833   6.206 -0.5438 -1.2580 -0.4841
10760TIP3   OH253694   3.635   2.345  17.154  0.0288  0.0543  0.2630
10760TIP3    H153695   3.585   2.263  17.163  2.0429 -1.3467 -0.6292
10760TIP3    H253696   3.569   2.414  17.163 -1.7004 -1.6310  1.3651
10761TIP3   OH253697   0.490   4.165  15.694 -0.1262  0.3213  0.4716
10761TIP3    H153698   0.574   4.199  15.724 -0.0200  0.2526  0.2558
10761TIP3    H253699   0.500   4.157  15.599 -0.3664  0.2867  0.4481
10762TIP3   OH253700   1.227   4.786   4.186 -0.3413  0.7323  0.1644
10762TIP3    H153701   1.285   4.862   4.188 -0.0860  0.5665 -0.7042
10762TIP3    H253702   1.286   4.711   4.185 -0.5392  0.5723 -1.4685
10763TIP3   OH253703   5.130   4.447   3.592  0.4328  0.2033 -0.3864
10763TIP3    H153704   5.156   4.457   3.500 -1.7830 -0.0308 -1.1037
10763TIP3    H253705   5.141   4.354   3.610  0.2453  0.1350 -0.6238
10764TIP3   OH253706   5.508   4.472   0.619 -0.0306 -0.0753 -0.3657
10764TIP3    H153707   5.426   4.447   0.576 -0.3952 -0.8791  0.7500
10764TIP3    H253708   5.533   4.396   0.671  2.4907 -0.5925 -2.1706
10765TIP3   OH253709   2.026   0.642   4.545 -0.4840  0.3192 -0.4294
10765TIP3    H153710   2.008   0.705   4.615  0.0540  0.4532 -0.4121
10765TIP3    H253711   2.097   0.681   4.494  0.6381 -0.7778  0.2377
10766TIP3   OH253712   6.156   4.749   0.243  0.4748  0.6858  0.0447
10766TIP3    H153713   6.250   4.764   0.251  0.9808 -1.6234 -0.6957
10766TIP3    H253714   6.137   4.763   0.151 -0.0840  1.7792  0.3023
10767TIP3   OH253715   4.828   5.645  17.033  0.0283 -0.0614 -0.1440
10767TIP3    H153716   4.820   5.725  16.982 -1.3185  0.2519  0.5075
10767TIP3    H253717   4.772   5.581  16.988  1.1730 -0.6858 -0.7189
10768TIP3   OH253718   5.116   3.319   4.443 -0.0072  0.4945 -0.5975
10768TIP3    H153719   5.168   3.260   4.497  0.8429 -0.3063 -2.2253
10768TIP3    H253720   5.137   3.407   4.476 -0.1739  0.0185  0.8885
10769TIP3   OH253721   5.482   3.572   5.473 -0.4809  0.1661 -0.1297
10769TIP3    H153722   5.457   3.485   5.443 -0.8931  0.4494 -0.6249
10769TIP3    H253723   5.420   3.591   5.544 -0.7093  0.2515 -0.3488
10770TIP3   OH253724   5.061   6.678  12.519  0.0774 -0.4008  0.3488
10770TIP3    H153725   5.010   6.662  12.599  1.2413  0.1393  1.2385
10770TIP3    H253726   4.997   6.674  12.448 -1.2497  0.5313  1.4493
10771TIP3   OH253727   4.977   0.931  11.336 -0.0691  0.5249  0.3728
10771TIP3    H153728   4.913   0.995  11.305 -0.2620  0.2607  0.2221
10771TIP3    H253729   4.986   0.870  11.263  1.6974  1.5433 -0.3495
10772TIP3   OH253730   2.529   1.249  11.194 -1.1611  0.4783 -0.1667
10772TIP3    H153731   2.475   1.172  11.176 -0.8105  0.2243 -0.1567
10772TIP3    H253732   2.563   1.275  11.109 -0.5637  0.0756 -0.0616
10773TIP3   OH253733   6.690   1.485   1.507 -0.5604 -0.3350  0.6339
10773TIP3    H153734   6.738   1.413   1.548  0.9648 -0.6566 -1.5585
10773TIP3    H253735   6.680   1.459   1.416 -1.9697  1.2711  0.2733
10774TIP3   OH253736   5.247   2.563  12.462  0.1804  0.2471 -0.0256
10774TIP3    H153737   5.276   2.556  12.371 -1.0028  0.0420 -0.4152
10774TIP3    H253738   5.177   2.629  12.459 -1.0792 -1.0229  0.3921
10775TIP3   OH253739   3.692   2.473  15.525 -0.3661 -0.1871 -0.1222
10775TIP3    H153740   3.714   2.521  15.604 -1.9502 -2.6964  2.0338
10775TIP3    H253741   3.774   2.431  15.498  0.4105  1.4901 -0.4554
10776TIP3   OH253742   3.495   6.128   2.630  0.4180  0.1658  0.2958
10776TIP3    H153743   3.434   6.199   2.647  1.0433  0.4443  1.4893
10776TIP3    H253744   3.532   6.107   2.716  2.0306  0.0448 -0.3955
10777TIP3   OH253745   1.043   5.628   0.458  0.3778  0.0832 -0.2567
10777TIP3    H153746   1.124   5.633   0.508  0.5959  0.9534 -0.6873
10777TIP3    H253747   1.013   5.538   0.470  1.1257 -0.0915  0.3392
10778TIP3   OH253748   3.277   3.685  15.570 -0.3209  0.1312  0.1735
10778TIP3    H153749   3.234   3.626  15.509  0.1500 -1.6121  1.4462
10778TIP3    H253750   3.370   3.663  15.563 -0.1387  0.7059  0.6680
10779TIP3   OH253751   3.565   3.622   4.758  0.1538 -0.6162  0.3388
10779TIP3    H153752   3.642   3.609   4.815  0.2432 -1.8549 -0.0482
10779TIP3    H253753   3.552   3.538   4.715 -0.4135  0.0686 -0.8799
10780TIP3   OH253754   0.648   4.972  17.016  0.1042 -0.6828  0.1349
10780TIP3    H153755   0.565   4.933  16.990  0.0308  0.1270 -0.8756
10780TIP3    H253756   0.661   4.943  17.106 -0.5498 -2.0201 -0.1800
10781TIP3   OH253757   2.278   0.092  12.643 -0.0318 -0.6513  0.3526
10781TIP3    H153758   2.227   0.118  12.720  0.7828 -1.2017  1.0942
10781TIP3    H253759   2.316   0.174  12.611 -0.3239 -0.4299  0.5718
10782TIP3   OH253760   6.161   6.579   5.001  0.1763 -0.1115 -0.3989
10782TIP3    H153761   6.251   6.558   4.977 -0.5643 -1.0422 -2.7172
10782TIP3    H253762   6.162   6.674   5.018  1.3668  0.1350 -1.6398
10783TIP3   OH253763   4.293   0.486  17.135 -0.6375 -0.0625 -0.2398
10783TIP3    H153764   4.244   0.559  17.096  0.2079  0.0873 -1.0753
10783TIP3    H253765   4.273   0.411  17.079  0.3156  0.0751 -0.7872
10784TIP3   OH253766   3.433   2.126   2.380 -0.0183  0.0375 -0.0660
10784TIP3    H153767   3.433   2.081   2.465  1.6043  0.3113  0.1312
10784TIP3    H253768   3.432   2.056   2.315 -1.0917 -0.1797  0.1729
10785TIP3   OH253769   5.328   3.583   3.954 -0.1560 -0.1412 -0.4249
10785TIP3    H153770   5.339   3.661   4.008 -0.1703  0.0473 -0.6930
10785TIP3    H253771   5.291   3.518   4.013 -0.9229  0.3060 -0.4077
10786TIP3   OH253772   5.721   0.028  15.038  0.3517 -0.5201 -0.0432
10786TIP3    H153773   5.654  -0.022  14.990  0.1822 -0.8462  0.5246
10786TIP3    H253774   5.692   0.119  15.030  0.0731 -0.6174 -0.1730
10787TIP3   OH253775   4.104   4.330  15.634 -0.5329 -0.7535 -0.0576
10787TIP3    H153776   4.155   4.371  15.565 -1.7928  1.2593  0.1429
10787TIP3    H253777   4.016   4.323  15.598 -1.1370  0.0415  1.1936
10788TIP3   OH253778   6.367   1.424   4.548 -0.1085 -0.2062  0.0503
10788TIP3    H153779   6.382   1.342   4.594  0.0717  0.3629  1.0351
10788TIP3    H253780   6.392   1.405   4.457  0.0582 -1.1933  0.2855
10789TIP3   OH253781   5.161   5.801  11.528  0.2579 -0.5800  0.0762
10789TIP3    H153782   5.117   5.879  11.562 -1.6411 -1.0414 -1.1607
10789TIP3    H253783   5.113   5.779  11.448  1.4031 -2.4163 -0.1739
10790TIP3   OH253784   5.622   3.259   4.791  0.0356 -0.0484  0.3512
10790TIP3    H153785   5.541   3.212   4.770  0.2875  1.0247 -3.8503
10790TIP3    H253786   5.692   3.196   4.772  0.2880  0.0270  0.9868
10791TIP3   OH253787   5.290   5.820   4.342  0.3001 -0.7450  0.7352
10791TIP3    H153788   5.347   5.744   4.328 -0.2423 -1.4265  2.1034
10791TIP3    H253789   5.210   5.800   4.293  0.7401 -0.3470 -0.1649
10792TIP3   OH253790   6.646   0.821  15.113  0.2826  0.2870  0.2812
10792TIP3    H153791   6.680   0.885  15.052 -0.5448  0.1932 -0.2921
10792TIP3    H253792   6.551   0.835  15.113  0.1847 -0.2890  0.8821
10793TIP3   OH253793   3.795   6.699  12.806  0.2860 -0.3249 -0.0204
10793TIP3    H153794   3.796   6.782  12.758  0.5683  0.1175  0.7248
10793TIP3    H253795   3.712   6.658  12.781 -0.4957  0.8058  0.6213
10794TIP3   OH253796   6.027   0.904   0.041  0.4135  0.6065 -0.3637
10794TIP3    H153797   6.099   0.962   0.065  2.0285 -0.8024 -1.4650
10794TIP3    H253798   6.071   0.826   0.006 -1.6426 -1.1212  0.6886
10795TIP3   OH253799   5.027   6.322  17.421 -0.3887 -0.1426 -0.5094
10795TIP3    H153800   4.938   6.354  17.406 -0.5969 -0.5627 -0.1798
10795TIP3    H253801   5.081   6.401  17.420 -0.7171  0.0835 -1.0340
10796TIP3   OH253802   0.712   4.600  17.120 -0.0965 -0.4766  0.2795
10796TIP3    H153803   0.652   4.589  17.046  0.2175  0.8149 -0.1950
10796TIP3    H253804   0.692   4.686  17.155 -0.6871 -1.3221  2.1516
10797TIP3   OH253805   4.939   3.529  13.046  0.2134 -0.5801  0.9002
10797TIP3    H153806   4.876   3.594  13.076  0.2484  0.2059 -0.6273
10797TIP3    H253807   4.921   3.451  13.099 -0.6182  0.2925  1.9430
10798TIP3   OH253808   2.164   5.262  15.680  0.0424  0.3247  0.2763
10798TIP3    H153809   2.199   5.186  15.632  0.8830  0.1429  1.1523
10798TIP3    H253810   2.086   5.229  15.723  1.7635 -0.8288  2.7522
10799TIP3   OH253811   5.446   1.637   0.552 -0.7444  0.1447  0.5930
10799TIP3    H153812   5.438   1.679   0.638  1.2092  2.4602 -0.2348
10799TIP3    H253813   5.356   1.631   0.520 -1.4008  0.3526  2.2936
10800TIP3   OH253814   1.300   0.713  12.870 -0.9359  0.1374 -0.1821
10800TIP3    H153815   1.305   0.807  12.881  0.5798  0.1519 -0.7846
10800TIP3    H253816   1.211   0.690  12.897 -1.2143  1.6816  0.2763
10801TIP3   OH253817   5.520   3.900  15.660 -0.3289  0.0346 -0.6010
10801TIP3    H153818   5.573   3.833  15.619 -1.5541 -0.7008 -1.0297
10801TIP3    H253819   5.566   3.922  15.741  0.4109 -0.8503 -0.7782
10802TIP3   OH253820   5.110   3.964   4.504  0.2222  0.5150  0.2169
10802TIP3    H153821   5.199   3.984   4.476  0.6456 -0.1904  1.0006
10802TIP3    H253822   5.088   3.882   4.459 -0.9577  1.8660 -1.8443
10803TIP3   OH253823   6.252   2.855   5.868 -0.1351 -0.2557  0.1352
10803TIP3    H153824   6.316   2.784   5.878  0.0332 -0.0535  0.5044
10803TIP3    H253825   6.226   2.876   5.958 -1.0905 -0.6683 -0.0301
10804TIP3   OH253826   3.922   0.415  16.531 -0.0997 -0.5393 -0.4124
10804TIP3    H153827   3.926   0.433  16.437 -2.0770 -0.8207 -0.5865
10804TIP3    H253828   3.830   0.422  16.553  0.0103 -2.8159  1.0445
10805TIP3   OH253829   3.470   2.579  12.826  0.2006  0.5593  0.1632
10805TIP3    H153830   3.385   2.542  12.848  0.4472  0.4100  0.9017
10805TIP3    H253831   3.523   2.504  12.801  1.1035  0.1378  2.9438
10806TIP3   OH253832   4.911   4.970  14.499 -0.2063 -0.0882 -0.1561
10806TIP3    H153833   4.887   4.880  14.523 -1.7877  0.3360 -0.0464
10806TIP3    H253834   4.971   4.998  14.568  0.5378 -1.1475 -0.3454
10807TIP3   OH253835   4.348   6.512  14.442  0.4621  0.0727  0.4542
10807TIP3    H153836   4.346   6.519  14.346  2.3956 -1.0237  0.2662
10807TIP3    H253837   4.281   6.447  14.463 -0.0260  0.3757 -0.1511
10808TIP3   OH253838   4.530   0.781  11.933 -0.3831  0.1174  0.1908
10808TIP3    H153839   4.499   0.829  11.856  1.7418 -0.4609 -1.1313
10808TIP3    H253840   4.451   0.751  11.976 -1.6694  1.1793 -1.3209
10809TIP3   OH253841   3.843   2.655  14.110  0.2365  0.1850 -0.1487
10809TIP3    H153842   3.889   2.640  14.192 -0.7446 -0.0547  0.3698
10809TIP3    H253843   3.780   2.723  14.130  0.5590  0.7403 -0.9356
10810TIP3   OH253844   0.449   0.741   0.680  0.1000 -0.0997 -0.4452
10810TIP3    H153845   0.453   0.696   0.764  0.5454  0.6811 -0.0390
10810TIP3    H253846   0.377   0.699   0.633 -0.8208  0.1316  0.7220
10811TIP3   OH253847   6.592   0.181  12.234  0.0798 -0.1854  0.2223
10811TIP3    H153848   6.652   0.218  12.170 -0.7351 -1.5111 -1.3792
10811TIP3    H253849   6.506   0.215  12.209  0.1479  2.7134  3.2300
10812TIP3   OH253850   4.748   3.448   1.195 -0.4420  0.3350  0.2438
10812TIP3    H153851   4.680   3.383   1.215 -1.1881  1.1670  0.4844
10812TIP3    H253852   4.725   3.481   1.109 -0.1486  0.3942  0.1858
10813TIP3   OH253853   5.987   5.713   2.585  0.5549 -0.3300 -0.5375
10813TIP3    H153854   6.042   5.662   2.644 -0.8516 -0.3058  0.8623
10813TIP3    H253855   5.995   5.670   2.500  1.9225 -0.9028 -0.1446
10814TIP3   OH253856   0.096   3.023  17.189 -0.2417  0.0832  0.4499
10814TIP3    H153857   0.167   3.021  17.125 -0.5880 -0.3882  0.0730
10814TIP3    H253858   0.139   3.043  17.272  0.3724 -0.4549  0.2722
10815TIP3   OH253859   1.079   4.441   3.983  0.1158 -0.2743  0.4527
10815TIP3    H153860   1.108   4.532   3.973  0.8223 -0.5407  0.0156
10815TIP3    H253861   1.032   4.422   3.901  0.9895 -0.6604  0.0195
10816TIP3   OH253862   0.218   3.176  13.654 -0.2690 -0.3664  0.4678
10816TIP3    H153863   0.272   3.153  13.578 -0.9194  0.9397 -0.4269
10816TIP3    H253864   0.279   3.214  13.717 -0.0975  0.9139 -0.4535
10817TIP3   OH253865   4.934   4.982  15.095  0.1182 -0.0556 -0.4123
10817TIP3    H153866   5.029   4.973  15.084  0.2026 -0.3435  0.4827
10817TIP3    H253867   4.911   4.914  15.158 -1.0038 -1.3194 -2.0981
10818TIP3   OH253868   4.295   6.005  16.209  0.0794  0.8195  0.0557
10818TIP3    H153869   4.212   5.959  16.195 -0.2158  1.1029  0.8445
10818TIP3    H253870   4.279   6.061  16.285  1.5531 -0.4809  1.3832
10819TIP3   OH253871   2.038   1.873  14.040  0.1509  0.6382 -0.1354
10819TIP3    H153872   2.108   1.815  14.010  0.0374 -1.0308  2.5025
10819TIP3    H253873   1.966   1.858  13.978  1.0531  0.0424 -1.0757
10820TIP3   OH253874   0.441   1.252   5.322  0.1015 -0.2633 -0.4870
10820TIP3    H153875   0.494   1.173   5.332 -0.8915 -0.9825 -0.6828
10820TIP3    H253876   0.351   1.223   5.339 -0.1871  1.0190  0.3161
10821TIP3   OH253877   3.707   5.521  16.735  0.2750 -0.1439  0.0695
10821TIP3    H153878   3.670   5.545  16.650 -1.8608  0.1989  1.0097
10821TIP3    H253879   3.703   5.426  16.737  0.7851 -0.1805 -0.3814
10822TIP3   OH253880   0.878   3.030  14.630 -0.5262  0.2177 -0.2322
10822TIP3    H153881   0.956   3.001  14.582  0.5387  0.3326  1.3614
10822TIP3    H253882   0.835   3.091  14.570  0.2885 -0.2859 -1.3792
10823TIP3   OH253883   6.436   4.870  15.119  0.5193  0.3163 -0.3019
10823TIP3    H153884   6.481   4.954  15.106  1.6741 -0.1123  0.8226
10823TIP3    H253885   6.350   4.884  15.078  2.2524  0.4986 -4.3975
10824TIP3   OH253886   4.166   3.496   5.380 -0.1137  0.3630 -0.3543
10824TIP3    H153887   4.180   3.485   5.286 -1.7812 -1.2380 -0.4758
10824TIP3    H253888   4.193   3.412   5.418  0.5647  1.0034  0.6290
10825TIP3   OH253889   5.636   6.480   5.908  0.3973 -0.4357 -0.1184
10825TIP3    H153890   5.594   6.495   5.823 -0.8479  1.7895  0.7828
10825TIP3    H253891   5.729   6.496   5.892  0.1465  0.2239 -1.0364
10826TIP3   OH253892   5.508   4.079   3.182 -0.2046  0.5579  0.1380
10826TIP3    H153893   5.482   4.155   3.131  3.0096 -0.2803 -3.1728
10826TIP3    H253894   5.600   4.095   3.204 -0.6006 -0.5791  3.0772
10827TIP3   OH253895   1.130   4.488   0.467  0.1182 -0.3433 -0.8423
10827TIP3    H153896   1.219   4.523   0.460 -0.0932  0.8474  1.5920
10827TIP3    H253897   1.076   4.551   0.419  0.2274  0.6552  0.3022
10828TIP3   OH253898   6.518   0.940  16.344  0.2646 -0.4593 -0.4133
10828TIP3    H153899   6.459   1.004  16.384  0.1494  0.2444 -1.6787
10828TIP3    H253900   6.529   0.873  16.412 -1.2965 -0.1705  0.1698
10829TIP3   OH253901   3.993   3.900   3.771  0.3552 -0.4110  0.4068
10829TIP3    H153902   3.945   3.871   3.849  1.0831 -1.1810  0.5868
10829TIP3    H253903   3.960   3.843   3.701 -0.1980  0.1864  0.1774
10830TIP3   OH253904   1.698   5.448   4.145  0.3995 -0.6757 -0.3207
10830TIP3    H153905   1.630   5.412   4.202  1.0383 -1.2692  0.0950
10830TIP3    H253906   1.706   5.540   4.171 -0.0987 -0.6567 -0.2297
10831TIP3   OH253907   3.553   4.737   2.406  0.2824  0.5712 -0.2434
10831TIP3    H153908   3.475   4.784   2.432 -1.2206 -0.8379 -1.9534
10831TIP3    H253909   3.548   4.731   2.310  0.0548 -3.3415 -0.1827
10832TIP3   OH253910   4.726   0.130  15.633 -0.1248 -0.1453 -0.5316
10832TIP3    H153911   4.726   0.220  15.599  4.0342  0.5632  0.8147
10832TIP3    H253912   4.756   0.077  15.559 -2.5679 -0.5894 -1.3220
10833TIP3   OH253913   2.490   2.573   1.196  0.5589 -0.7651  0.1600
10833TIP3    H153914   2.425   2.524   1.246  0.2338  1.8058  2.4641
10833TIP3    H253915   2.439   2.635   1.144  1.0815  0.8227  1.4777
10834TIP3   OH253916   4.451   2.140  16.295 -0.3860  0.2190  0.1876
10834TIP3    H153917   4.384   2.208  16.304  0.6374  1.8962 -3.1058
10834TIP3    H253918   4.431   2.097  16.212  0.5350 -1.7693  0.9312
10835TIP3   OH253919   6.699   1.143  16.452  0.3602 -0.1834  0.3335
10835TIP3    H153920   6.636   1.197  16.499 -0.0153 -1.6029  1.5354
10835TIP3    H253921   6.667   1.142  16.362 -0.5406  0.2592  0.6415
10836TIP3   OH253922   5.961   3.412  17.188  0.7281 -0.0493 -0.3963
10836TIP3    H153923   5.915   3.344  17.237 -0.1876  0.8881  0.0824
10836TIP3    H253924   6.014   3.364  17.124 -0.9605 -1.1737 -1.0191
10837TIP3   OH253925   0.965   1.725   0.825 -0.5203 -0.1158  0.2903
10837TIP3    H153926   1.041   1.783   0.820 -0.0751 -0.7709 -0.9462
10837TIP3    H253927   0.921   1.735   0.740 -0.4771 -1.5209  0.0870
10838TIP3   OH253928   4.514   3.297  15.341 -0.2034 -0.0925 -0.2203
10838TIP3    H153929   4.598   3.336  15.315  0.3857 -1.7175 -0.9348
10838TIP3    H253930   4.538   3.223  15.396 -1.2188 -0.1006  0.2325
10839TIP3   OH253931   2.089   3.860  14.517 -0.2425  0.0310  0.1559
10839TIP3    H153932   2.118   3.776  14.553 -0.8224 -0.0936  0.3412
10839TIP3    H253933   2.004   3.876  14.558 -0.6796  0.1373 -0.7641
10840TIP3   OH253934   1.060   4.253  12.142  0.2651  0.1254 -0.2094
10840TIP3    H153935   1.046   4.203  12.062 -1.0972  0.9466 -0.5197
10840TIP3    H253936   1.143   4.298  12.129  0.6149 -0.6362 -0.6712
10841TIP3   OH253937   5.440   1.257   5.437  0.0961  0.0718 -0.6257
10841TIP3    H153938   5.394   1.341   5.441  0.2062  0.2243 -2.1311
10841TIP3    H253939   5.452   1.232   5.529 -1.0578  1.0792 -0.1751
10842TIP3   OH253940   6.070   4.099  12.217  0.2878  0.0307  0.0060
10842TIP3    H153941   6.049   4.017  12.261  0.1035 -0.3025 -0.6991
10842TIP3    H253942   6.157   4.085  12.179  0.0076 -0.0523 -0.6188
10843TIP3   OH253943   2.696   3.499   5.558 -0.0292  0.4400 -0.5714
10843TIP3    H153944   2.650   3.578   5.531  0.5499  0.8349 -0.4114
10843TIP3    H253945   2.777   3.530   5.596  0.6498 -0.2666 -1.3828
10844TIP3   OH253946   5.201   4.756  12.086  0.0073 -0.3426  0.2084
10844TIP3    H153947   5.245   4.811  12.022 -0.0637 -0.3925  0.1150
10844TIP3    H253948   5.229   4.790  12.171  0.8414 -0.8739  0.1527
10845TIP3   OH253949   1.769   1.193   2.930 -0.1805  0.4053  0.3879
10845TIP3    H153950   1.744   1.173   2.839  0.1557  1.1632  0.1139
10845TIP3    H253951   1.819   1.275   2.923 -0.0020  0.3772  1.2407
10846TIP3   OH253952   1.809   0.105   5.344  0.5370  0.3655 -0.5545
10846TIP3    H153953   1.840   0.033   5.399  1.7385  0.1037 -1.5178
10846TIP3    H253954   1.739   0.146   5.394  2.7793  1.3161  2.0381
10847TIP3   OH253955   2.056   5.088   5.443  0.0066  0.8725  0.5520
10847TIP3    H153956   2.004   5.041   5.377  0.4853 -0.5258  1.1224
10847TIP3    H253957   2.116   5.021   5.478  0.5714  1.8736  1.5615
10848TIP3   OH253958   4.976   6.018   2.573  0.1133  0.1897 -0.5469
10848TIP3    H153959   5.034   6.037   2.647 -1.1046 -0.5180  0.6344
10848TIP3    H253960   4.951   6.104   2.540 -1.0864  0.6414  1.3297
10849TIP3   OH253961   4.526   0.157  13.351 -0.5013  0.1502 -0.1309
10849TIP3    H153962   4.605   0.210  13.358 -0.0830 -0.5842  1.0442
10849TIP3    H253963   4.528   0.121  13.263 -0.7878  2.0336 -0.9530
10850TIP3   OH253964   2.304   5.884   1.079 -0.1605  0.0087 -0.0688
10850TIP3    H153965   2.261   5.799   1.089 -0.4531 -0.0638 -1.6495
10850TIP3    H253966   2.262   5.940   1.144 -1.7422 -0.4324 -0.6460
10851TIP3   OH253967   0.909   0.296   1.079  0.0489  0.3344  0.1024
10851TIP3    H153968   0.994   0.261   1.050 -0.5224  0.6698 -2.1564
10851TIP3    H253969   0.923   0.391   1.082  0.1262  0.2973  1.0876
10852TIP3   OH253970   1.836   5.216  16.597  0.5958  1.1222 -0.6937
10852TIP3    H153971   1.779   5.215  16.675  0.2235 -1.1201 -0.9125
10852TIP3    H253972   1.923   5.234  16.631  0.1341  2.1745 -0.0253
10853TIP3   OH253973   0.272   2.523   4.370  0.5047  0.2920  0.1660
10853TIP3    H153974   0.185   2.489   4.393  0.3462 -0.6014 -1.4990
10853TIP3    H253975   0.287   2.489   4.281  2.3080  0.9244  0.1893
10854TIP3   OH253976   0.787   1.384  12.475  0.6012 -0.4148  0.2970
10854TIP3    H153977   0.723   1.439  12.430  0.8354 -0.8288 -0.5569
10854TIP3    H253978   0.735   1.326  12.531  0.3604  0.8667  1.4645
10855TIP3   OH253979   4.064   2.413   4.627 -0.4622 -0.4805 -0.2224
10855TIP3    H153980   4.066   2.461   4.710 -1.0405  1.4598 -1.2804
10855TIP3    H253981   3.984   2.441   4.584 -0.0546 -1.2830 -1.5649
10856TIP3   OH253982   6.010   3.501  11.128  0.4642 -0.3694 -0.1378
10856TIP3    H153983   5.997   3.506  11.222  0.3552 -0.7932 -0.1285
10856TIP3    H253984   5.976   3.584  11.094 -1.1894 -0.9658  0.0017
10857TIP3   OH253985   5.677   1.177   1.645 -0.4987  0.1357 -0.3369
10857TIP3    H153986   5.652   1.268   1.660  1.9925  0.7416  0.5623
10857TIP3    H253987   5.671   1.136   1.732  1.1714  0.2267 -0.1475
10858TIP3   OH253988   6.702   5.402   1.488  0.2444  0.2947 -0.0416
10858TIP3    H153989   6.700   5.454   1.408  0.3317  0.4588  0.0611
10858TIP3    H253990   6.775   5.439   1.539  0.8441 -0.4839 -0.3287
10859TIP3   OH253991   5.881   6.579   0.319 -0.1450 -0.1355  0.4150
10859TIP3    H153992   5.889   6.486   0.297 -0.1534  0.4373 -2.4772
10859TIP3    H253993   5.799   6.587   0.366 -1.0744 -1.3938 -0.9205
10860TIP3   OH253994   4.960   6.479  17.030  0.4189  0.2272 -0.3896
10860TIP3    H153995   4.925   6.487  16.941  0.6632  0.2718 -0.4829
10860TIP3    H253996   4.933   6.560  17.074 -1.1402 -0.5166  0.0829
10861TIP3   OH253997   0.584   0.200  12.874  0.5032 -0.1005 -0.2728
10861TIP3    H153998   0.678   0.214  12.883  0.2515  0.4494  2.0646
10861TIP3    H253999   0.552   0.186  12.963 -1.6136 -0.4817 -1.0123
10862TIP3   OH254000   4.042   4.494  11.901  0.1399 -0.6353  0.7765
10862TIP3    H154001   4.121   4.537  11.934 -0.7905  3.3035 -1.4735
10862TIP3    H254002   3.972   4.526  11.958 -0.6328  1.5413 -1.2027
10863TIP3   OH254003   2.875   3.215  11.377  0.0662 -0.1958 -0.1285
10863TIP3    H154004   2.880   3.223  11.282  0.4536 -2.1977 -0.3246
10863TIP3    H254005   2.785   3.188  11.395  0.6406 -2.3734 -0.2210
10864TIP3   OH254006   4.682   2.744  10.976  0.0664 -0.0773  0.1455
10864TIP3    H154007   4.709   2.828  10.938  1.0257  0.1575  1.2966
10864TIP3    H254008   4.762   2.707  11.012 -0.4296 -1.3103  0.0345
10865TIP3   OH254009   3.457   6.637   5.908 -0.0672 -0.0477  0.1636
10865TIP3    H154010   3.516   6.667   5.977  0.8189  0.5690 -0.8342
10865TIP3    H254011   3.409   6.716   5.882 -0.4137 -0.2807  0.0909
10866TIP3   OH254012   2.369   0.758  14.886 -0.3792  0.0862  0.4164
10866TIP3    H154013   2.380   0.696  14.814  1.6854  0.2540  0.5291
10866TIP3    H254014   2.297   0.723  14.937 -1.1217 -0.6646 -1.0836
10867TIP3   OH254015   3.307   4.093  12.364 -0.0468 -0.1945 -0.1352
10867TIP3    H154016   3.322   4.138  12.281  1.2648  0.2329  0.3102
10867TIP3    H254017   3.363   4.016  12.360 -0.7608 -0.7357 -0.0531
10868TIP3   OH254018   4.000   4.137   4.535 -0.2736  0.0441  0.1079
10868TIP3    H154019   3.940   4.139   4.610  0.8544  2.2478  1.0396
10868TIP3    H254020   4.087   4.142   4.574  0.5105 -1.8047 -1.2827
10869TIP3   OH254021   6.025   1.862  11.040 -0.2829  0.3097 -0.0320
10869TIP3    H154022   5.967   1.804  10.991 -0.9645  0.1003  0.9647
10869TIP3    H254023   6.101   1.874  10.984 -0.9189 -0.1034 -1.0175
10870TIP3   OH254024   1.325   2.928  15.837 -0.1493 -0.2233  0.4723
10870TIP3    H154025   1.292   2.961  15.753  0.8728  0.3314  0.2778
10870TIP3    H254026   1.348   3.007  15.886 -2.3666 -0.4443  1.9935
10871TIP3   OH254027   3.763   5.622  10.828 -0.5065 -0.2440 -0.2716
10871TIP3    H154028   3.701   5.685  10.865 -2.1417 -0.1733 -2.8470
10871TIP3    H254029   3.708   5.563  10.775  1.4376 -1.2678 -1.2494
10872TIP3   OH254030   6.689   5.323   2.013  0.1804  0.7952 -0.2091
10872TIP3    H154031   6.679   5.360   1.926 -1.0619  1.7943  0.3239
10872TIP3    H254032   6.604   5.282   2.031  0.6460  0.0170  0.2783
10873TIP3   OH254033   6.517   5.912  12.856  0.3531  0.0479 -0.7362
10873TIP3    H154034   6.428   5.934  12.882  0.9220  2.1602 -0.3781
10873TIP3    H254035   6.545   5.845  12.919 -0.1813  1.0883  0.6589
10874TIP3   OH254036   6.568   1.719   2.321 -0.7609  0.0310  0.1974
10874TIP3    H154037   6.517   1.653   2.369 -1.0790  1.3844  1.8084
10874TIP3    H254038   6.535   1.714   2.232 -3.5468  0.6403  1.1055
10875TIP3   OH254039   5.690   5.296  15.158  0.6429 -0.2737 -0.2545
10875TIP3    H154040   5.691   5.258  15.070  1.3072  0.9191 -0.7802
10875TIP3    H254041   5.605   5.339  15.165  0.7520 -0.0207 -0.4713
10876TIP3   OH254042   0.797   0.817  11.998 -0.0349  0.2745  0.0079
10876TIP3    H154043   0.843   0.890  12.037  1.0320 -0.1180 -0.4892
10876TIP3    H254044   0.761   0.769  12.073 -1.5101  1.7495  0.3110
10877TIP3   OH254045   0.194   4.477   4.993  0.6838 -0.2752  0.4253
10877TIP3    H154046   0.269   4.446   4.942  0.7347  0.6396 -0.0913
10877TIP3    H254047   0.229   4.551   5.043  0.4295 -0.6482  1.1687
10878TIP3   OH254048   0.989   5.611   1.965  0.2965 -0.0379  0.6093
10878TIP3    H154049   0.922   5.553   1.929  0.3343  0.7327 -0.7779
10878TIP3    H254050   1.071   5.563   1.955  0.2093 -0.1418  0.3921
10879TIP3   OH254051   0.643   3.552   0.364  0.1652 -0.4556 -0.3985
10879TIP3    H154052   0.607   3.598   0.440  1.6587 -1.5332  1.0478
10879TIP3    H254053   0.707   3.613   0.327  1.4388 -0.9171  0.9304
10880TIP3   OH254054   0.795   0.617   2.045  0.8485 -0.4358  0.2121
10880TIP3    H154055   0.840   0.697   2.017  0.1957 -1.1200 -3.1117
10880TIP3    H254056   0.745   0.589   1.969  1.6444 -4.4801  0.9402
10881TIP3   OH254057   0.856   5.032  12.906  0.9045 -0.0080 -0.0681
10881TIP3    H154058   0.852   5.082  12.824 -2.1248  1.1693  0.6728
10881TIP3    H254059   0.890   4.946  12.880  3.1379  1.3255 -1.9458
10882TIP3   OH254060   2.812   0.726  11.214  0.0869  0.1373 -0.2650
10882TIP3    H154061   2.780   0.637  11.227  1.4311 -0.4918 -1.0495
10882TIP3    H254062   2.846   0.726  11.124  0.5943  1.2814 -0.0845
10883TIP3   OH254063   0.736   4.563   4.605 -0.5817 -0.0938  0.1716
10883TIP3    H154064   0.752   4.621   4.680 -1.3003 -1.3199  1.3049
10883TIP3    H254065   0.713   4.479   4.644  0.7549 -1.2608 -1.4349
10884TIP3   OH254066   4.216   3.452  14.062 -0.3590  0.2759 -0.0990
10884TIP3    H154067   4.195   3.480  13.974 -0.7497 -3.9480 -1.5863
10884TIP3    H254068   4.298   3.403  14.053  0.7541  1.4916  2.3528
10885TIP3   OH254069   2.786   3.984  13.193 -0.5987 -0.0382  0.1188
10885TIP3    H154070   2.710   3.939  13.230  0.6084 -1.2398  1.2663
10885TIP3    H254071   2.800   4.058  13.253 -0.2385 -0.4474  0.5533
10886TIP3   OH254072   4.936   0.276   5.582  0.5839 -0.1148  0.1298
10886TIP3    H154073   4.892   0.198   5.549 -2.3245  0.9715  1.1541
10886TIP3    H254074   4.979   0.246   5.662  2.4396 -1.3495 -1.2393
10887TIP3   OH254075   2.250   4.977  14.206 -0.5537  0.0183  0.1481
10887TIP3    H154076   2.314   4.938  14.266 -0.8397  2.2012  2.0259
10887TIP3    H254077   2.300   5.042  14.157 -0.5964 -0.8769 -1.1322
10888TIP3   OH254078   3.331   6.675  12.446 -0.0151 -0.6001  0.1532
10888TIP3    H154079   3.283   6.682  12.364  1.5463  2.2702 -0.6637
10888TIP3    H254080   3.422   6.663  12.420  0.6533  1.3275  1.3659
10889TIP3   OH254081   3.707   6.239  12.656 -0.5919  0.9745  0.4735
10889TIP3    H154082   3.768   6.281  12.595 -0.8575  0.1145 -0.4081
10889TIP3    H254083   3.638   6.304  12.670 -1.6308  0.4495 -1.8198
10890TIP3   OH254084   0.988   3.976  11.151 -0.2376 -0.5762 -0.3340
10890TIP3    H154085   0.983   3.895  11.202 -0.8226 -1.4714 -1.7380
10890TIP3    H254086   1.020   3.948  11.065  0.5093  0.8447 -0.5431
10891TIP3   OH254087   2.641   6.536  11.034 -0.2935  0.0869  0.1234
10891TIP3    H154088   2.678   6.610  11.083 -0.6611  1.0031 -0.9286
10891TIP3    H254089   2.713   6.476  11.021 -0.0978  0.0213  1.4288
10892TIP3   OH254090   1.354   1.184   5.641 -0.3664  0.3971  0.0333
10892TIP3    H154091   1.293   1.151   5.707 -0.5844  0.0326 -0.3480
10892TIP3    H254092   1.367   1.276   5.664 -0.5175  0.2933  0.5255
10893TIP3   OH254093   2.035   1.625  17.096  0.0309  0.0911 -0.3195
10893TIP3    H154094   2.031   1.637  17.001  1.4440 -0.1592 -0.4333
10893TIP3    H254095   1.947   1.644  17.127 -0.7235 -0.8448 -1.8045
10894TIP3   OH254096   2.002   1.140  17.208  0.4773 -0.3618 -0.0199
10894TIP3    H154097   1.968   1.199  17.141  2.2246  0.2960 -0.3909
10894TIP3    H254098   2.093   1.124  17.181  0.7442 -1.3141  1.3650
10895TIP3   OH254099   0.331   5.240   1.604 -0.0349  0.0517  0.2523
10895TIP3    H154100   0.346   5.151   1.638  0.2945  0.3933  1.0252
10895TIP3    H254101   0.408   5.289   1.630 -0.1284  0.5240 -0.3458
10896TIP3   OH254102   4.311   4.727  13.346  0.3585  0.3433  0.0263
10896TIP3    H154103   4.331   4.636  13.371 -0.9026  0.0977  0.2484
10896TIP3    H254104   4.243   4.754  13.408 -0.2543  0.9739 -0.8875
10897TIP3   OH254105   6.230   0.828  12.579  0.4478 -0.1097  0.3839
10897TIP3    H154106   6.317   0.805  12.548  0.2947  0.3660 -0.4320
10897TIP3    H254107   6.173   0.759  12.545  0.3209  0.2596 -0.1569
10898TIP3   OH254108   6.505   1.942   2.711 -0.0275 -0.2410 -0.0417
10898TIP3    H154109   6.416   1.968   2.685 -0.0439  1.7064  1.7542
10898TIP3    H254110   6.558   1.958   2.633 -1.0006  0.0291 -0.6678
10899TIP3   OH254111   5.612   3.325  13.773  0.1522  0.3753  0.4680
10899TIP3    H154112   5.605   3.377  13.853  0.6650  0.9013  0.1848
10899TIP3    H254113   5.704   3.336  13.746 -0.1398  0.6296 -0.4642
10900TIP3   OH254114   5.279   1.459   5.553 -0.3250  0.2685  0.1394
10900TIP3    H154115   5.216   1.474   5.623 -0.8760  1.9537 -0.6684
10900TIP3    H254116   5.326   1.542   5.545  0.4352 -0.2320 -0.7898
10901TIP3   OH254117   5.803   3.206  16.875  0.0331  0.2257 -0.0771
10901TIP3    H154118   5.747   3.201  16.797  0.1345  0.2660 -0.1522
10901TIP3    H254119   5.749   3.172  16.946  0.5696 -1.6016 -0.4954
10902TIP3   OH254120   4.729   0.407  11.002 -0.1428  0.5450  0.1635
10902TIP3    H154121   4.799   0.450  10.953 -1.6340  1.0789 -1.5641
10902TIP3    H254122   4.686   0.351  10.938  0.4174 -1.9889  1.8646
10903TIP3   OH254123   0.110   5.119  11.012  0.7736 -0.7319 -0.0998
10903TIP3    H154124   0.056   5.052  11.053 -1.4574  0.2666 -1.2310
10903TIP3    H254125   0.168   5.071  10.953 -0.5576 -1.7019 -0.6535
10904TIP3   OH254126   3.610   5.198   2.977  0.4565  0.4679 -0.7486
10904TIP3    H154127   3.591   5.156   3.060  2.5739  1.0449  0.1067
10904TIP3    H254128   3.613   5.291   2.996  0.1955  0.6771 -1.6554
10905TIP3   OH254129   3.404   0.874  12.924 -0.0446 -0.0836  0.6662
10905TIP3    H154130   3.334   0.856  12.987 -1.5547  1.6701 -0.3869
10905TIP3    H254131   3.374   0.953  12.877  1.1980 -1.0304 -1.9191
10906TIP3   OH254132   5.032   6.247  10.417  0.5423 -0.2638 -0.3001
10906TIP3    H154133   4.975   6.306  10.468 -0.6920  0.7193 -2.6585
10906TIP3    H254134   5.118   6.255  10.458 -0.0151  1.7665  0.6063
10907TIP3   OH254135   6.146   2.732  14.561  0.4776  0.4594  0.3146
10907TIP3    H154136   6.118   2.769  14.477 -1.4334  0.5977  0.9451
10907TIP3    H254137   6.070   2.746  14.619  0.8286 -1.7493  1.4170
10908TIP3   OH254138   4.823   4.007   4.066  0.1567 -0.5652 -0.0724
10908TIP3    H154139   4.845   3.914   4.077 -1.0035 -1.0560 -1.5760
10908TIP3    H254140   4.901   4.045   4.026  1.8712 -0.1309  3.2875
10909TIP3   OH254141   2.682   0.445   2.348 -0.0112  0.4171 -0.3454
10909TIP3    H154142   2.722   0.366   2.384 -0.3241  0.0017 -0.9069
10909TIP3    H254143   2.623   0.476   2.417  1.4399  1.1918  0.6124
10910TIP3   OH254144   6.672   4.310   3.861 -0.3022  0.2230 -0.0390
10910TIP3    H154145   6.613   4.260   3.804 -1.3459  0.6308  0.6644
10910TIP3    H254146   6.681   4.395   3.818 -2.2956  1.0716  1.1133
10911TIP3   OH254147   3.778   5.459  13.446 -0.3919 -0.6304  0.1141
10911TIP3    H154148   3.812   5.484  13.532 -0.3919 -0.9093  0.1962
10911TIP3    H254149   3.756   5.542  13.404 -1.6738 -0.5360  0.9119
10912TIP3   OH254150   1.008   1.776  11.857  0.5157  0.0877  0.6301
10912TIP3    H154151   0.936   1.814  11.907  1.3552  1.3139  0.9638
10912TIP3    H254152   1.087   1.810  11.899  1.2768  1.7108 -1.8483
10913TIP3   OH254153   5.406   0.991  10.870 -0.1438  1.0691  0.4202
10913TIP3    H154154   5.415   0.928  10.798 -2.5743 -0.1659  1.0904
10913TIP3    H254155   5.433   1.074  10.832  2.7670 -0.2250 -0.6467
10914TIP3   OH254156   5.391   6.312  10.972 -0.0301 -0.0145  0.5779
10914TIP3    H154157   5.408   6.372  10.899  0.8723  1.5652  1.9987
10914TIP3    H254158   5.299   6.327  10.994  0.2989  1.2505  1.2015
10915TIP3   OH254159   1.768   2.013  16.500  0.0924 -0.2056  0.1392
10915TIP3    H154160   1.833   2.077  16.531  1.8026 -1.3258 -0.9617
10915TIP3    H254161   1.756   1.954  16.575  2.4555 -1.5557 -0.4467
10916TIP3   OH254162   5.519   0.419   0.878 -0.2491  0.0870 -0.1200
10916TIP3    H154163   5.467   0.477   0.823 -0.3623 -0.4114 -0.5551
10916TIP3    H254164   5.455   0.377   0.936 -0.1248  0.6413  0.4236
10917TIP3   OH254165   1.426   3.646  14.879  0.3160  0.0379  0.1684
10917TIP3    H154166   1.344   3.645  14.928  0.0816  1.5292 -0.1306
10917TIP3    H254167   1.460   3.735  14.893  1.7703 -0.4922  0.1095
10918TIP3   OH254168   4.621   3.999   4.526  0.0743  0.1322 -0.0132
10918TIP3    H154169   4.620   4.092   4.548 -1.1687  0.1449 -0.0479
10918TIP3    H254170   4.541   3.986   4.474 -0.0556 -1.0595  0.4559
10919TIP3   OH254171   6.718   2.380  13.907 -0.2235 -0.4848 -0.3450
10919TIP3    H154172   6.803   2.341  13.885 -0.1421 -0.3964 -0.1869
10919TIP3    H254173   6.705   2.447  13.840 -0.8729 -1.5080 -1.2741
10920TIP3   OH254174   0.320   6.610  14.151 -0.4822  0.1498 -0.6398
10920TIP3    H154175   0.364   6.544  14.096  1.2015  0.0205  0.7575
10920TIP3    H254176   0.368   6.607  14.234 -2.3246  1.0173  0.5159
10921TIP3   OH254177   2.611   2.165  14.950 -0.4618  0.0451 -0.4593
10921TIP3    H154178   2.551   2.233  14.983  2.6988  2.9305 -0.1260
10921TIP3    H254179   2.634   2.114  15.028 -0.1626  0.8863  0.0145
10922TIP3   OH254180   5.478   3.028  16.285 -0.6562 -0.0599  0.1902
10922TIP3    H154181   5.453   3.118  16.306 -1.0242  0.0449 -0.6529
10922TIP3    H254182   5.397   2.987  16.255 -0.0589 -0.0172 -1.5944
10923TIP3   OH254183   1.558   3.758   1.653 -0.3343 -0.4283  0.2165
10923TIP3    H154184   1.516   3.781   1.736 -0.7037 -3.3603  0.9645
10923TIP3    H254185   1.651   3.774   1.668 -0.7062  2.6240 -0.1800
10924TIP3   OH254186   3.519   5.851   4.789  0.8525  0.2057  0.4981
10924TIP3    H154187   3.520   5.933   4.739 -0.7223 -0.0885 -0.0838
10924TIP3    H254188   3.465   5.791   4.737  0.9975 -0.8300  1.4792
10925TIP3   OH254189   3.183   3.905  15.740 -0.5946  0.0330 -0.3316
10925TIP3    H154190   3.246   3.886  15.671 -0.1813  1.7710 -0.4876
10925TIP3    H254191   3.112   3.842  15.727  0.5099 -1.1190 -0.9317
10926TIP3   OH254192   5.213   0.868   0.956  0.7203  0.0417  0.3818
10926TIP3    H154193   5.256   0.783   0.942 -0.1899  0.0299 -3.3193
10926TIP3    H254194   5.249   0.924   0.888 -0.5520  1.9307  1.1988
10927TIP3   OH254195   4.436   2.970   2.311  0.2705 -0.6116 -0.0411
10927TIP3    H154196   4.343   2.988   2.325  0.4665  0.3537  0.1216
10927TIP3    H254197   4.475   3.057   2.299  1.1198 -1.0204 -0.3080
10928TIP3   OH254198   1.287   0.838  10.770 -0.3782  0.4965 -0.1799
10928TIP3    H154199   1.234   0.913  10.797 -1.6139 -0.2093 -0.5852
10928TIP3    H254200   1.223   0.769  10.752  0.7857 -1.2574  1.9436
10929TIP3   OH254201   6.631   2.297   6.222 -0.0504 -0.2436 -0.2816
10929TIP3    H154202   6.620   2.368   6.158 -0.6753 -0.8846 -0.9049
10929TIP3    H254203   6.619   2.340   6.307 -1.1904  0.2717 -0.6807
10930TIP3   OH254204   6.132   1.174   1.067 -0.0306  0.2151 -0.3317
10930TIP3    H154205   6.143   1.257   1.112  1.7926 -0.6587  0.9629
10930TIP3    H254206   6.085   1.119   1.129  1.0342 -0.4913 -0.1243
10931TIP3   OH254207   4.228   4.197  11.863 -0.2361 -0.1792  0.2501
10931TIP3    H154208   4.146   4.180  11.816 -0.5975  0.2484  0.7050
10931TIP3    H254209   4.201   4.206  11.955  0.2345  0.5723  0.3259
10932TIP3   OH254210   4.820   0.990   1.099 -0.0379 -0.0340 -0.0109
10932TIP3    H154211   4.760   1.064   1.105  2.1099  1.7129  2.1299
10932TIP3    H254212   4.845   0.972   1.190  2.1241 -1.0839 -0.7341
10933TIP3   OH254213   3.936   2.189   3.902  0.0050 -0.2613 -0.0114
10933TIP3    H154214   3.996   2.122   3.870 -1.3537 -1.1491 -0.8315
10933TIP3    H254215   3.880   2.209   3.827 -0.2075  1.1543  0.4823
10934TIP3   OH254216   0.270   0.023  16.423 -0.8734 -0.7683  0.6133
10934TIP3    H154217   0.245   0.023  16.330  1.8965 -0.4815 -0.2264
10934TIP3    H254218   0.216  -0.046  16.462 -1.2457 -1.7460 -1.4885
10935TIP3   OH254219   1.551   0.714   0.848  0.3976  0.3825 -0.1249
10935TIP3    H154220   1.468   0.688   0.888  0.3647 -0.7246 -0.8519
10935TIP3    H254221   1.554   0.809   0.857  0.0273  0.2593  1.7585
10936TIP3   OH254222   3.105   6.063  11.143 -0.1687  0.5037 -0.1612
10936TIP3    H154223   3.122   6.153  11.116  0.5895  0.0676 -1.2231
10936TIP3    H254224   3.102   6.014  11.060 -1.6777 -0.2797  0.3049
10937TIP3   OH254225   1.347   0.590   1.030 -0.2360 -0.0175  0.1692
10937TIP3    H154226   1.307   0.506   1.009 -1.5717  0.4406  0.7343
10937TIP3    H254227   1.377   0.581   1.121 -1.2705  0.4114  0.5682
10938TIP3   OH254228   4.607   3.551   4.424 -0.0118 -0.3663  0.2580
10938TIP3    H154229   4.553   3.503   4.488 -0.2910 -0.0176  0.2819
10938TIP3    H254230   4.697   3.523   4.444 -0.0137  0.3193  1.3204
10939TIP3   OH254231   6.259   3.628   3.933  0.4418 -0.0517 -0.0386
10939TIP3    H154232   6.316   3.701   3.957 -1.0063  1.6034 -1.3427
10939TIP3    H254233   6.249   3.636   3.838 -0.3309 -1.5083 -0.1031
10940TIP3   OH254234   2.489   3.798  16.307  0.5164  0.8962 -0.4083
10940TIP3    H154235   2.505   3.707  16.331 -1.0553  0.7159  0.0464
10940TIP3    H254236   2.568   3.844  16.334  0.8281 -0.1365  0.5250
10941TIP3   OH254237   3.001   3.352   5.322  0.0298  0.3151  0.1209
10941TIP3    H154238   2.984   3.426   5.264  0.5002 -1.0641 -1.8913
10941TIP3    H254239   2.914   3.317   5.343 -0.1218 -0.2392 -1.2889
10942TIP3   OH254240   2.003   6.230  12.403  0.0300  0.8803 -0.0932
10942TIP3    H154241   2.089   6.226  12.444  0.0754  0.2008 -0.2412
10942TIP3    H254242   1.988   6.323  12.387  0.5356  1.0438  0.3531
10943TIP3   OH254243   0.626   1.960  16.669  0.1055 -0.3417 -0.0396
10943TIP3    H154244   0.721   1.953  16.680  0.1107 -0.3521 -0.0891
10943TIP3    H254245   0.607   2.053  16.686 -0.3425 -0.9446  3.4624
10944TIP3   OH254246   4.053   4.301   2.422  0.2567  0.2118  0.6787
10944TIP3    H154247   4.006   4.349   2.490  1.5124  1.9467  0.3770
10944TIP3    H254248   4.095   4.229   2.469 -1.7864 -0.7813  1.1049
10945TIP3   OH254249   5.426   0.640  10.911 -0.7025 -0.0717  0.2445
10945TIP3    H154250   5.498   0.597  10.865 -0.8558 -2.9434  2.3677
10945TIP3    H254251   5.370   0.675  10.842 -0.0288 -2.5637 -1.6963
10946TIP3   OH254252   3.680   3.937   2.366 -0.0421  0.0977  0.1780
10946TIP3    H154253   3.713   4.027   2.361  0.6699 -0.1619 -0.0589
10946TIP3    H254254   3.721   3.893   2.291 -1.3356 -0.1316 -0.4093
10947TIP3   OH254255   4.294   1.813  13.812  0.3638 -0.3823 -0.6842
10947TIP3    H154256   4.198   1.811  13.811  0.2601  1.8862 -0.5182
10947TIP3    H254257   4.320   1.742  13.754 -1.4313 -0.8311 -0.9981
10948TIP3   OH254258   3.866   0.935   2.525  0.4700  0.1510  0.3886
10948TIP3    H154259   3.872   1.030   2.515  0.6462  0.2848  1.6124
10948TIP3    H254260   3.792   0.921   2.585  0.0212 -0.5281 -0.3005
10949TIP3   OH254261   4.684   1.845   1.152  0.0780 -0.3575  0.3483
10949TIP3    H154262   4.682   1.841   1.247  0.3625  0.9960  0.4223
10949TIP3    H254263   4.698   1.937   1.131 -1.7560 -0.3369 -1.0358
10950TIP3   OH254264   3.401   5.020  11.467 -0.0909 -0.0054 -0.0019
10950TIP3    H154265   3.362   5.087  11.524 -3.3656 -1.7347  0.0097
10950TIP3    H254266   3.450   5.070  11.401 -1.3550  2.3192  0.7179
10951TIP3   OH254267   6.368   3.080  17.333  0.0328  0.0106  0.4161
10951TIP3    H154268   6.393   3.000  17.380  1.0946 -0.0473 -0.2007
10951TIP3    H254269   6.285   3.059  17.290  0.8843 -1.1944 -0.7201
10952TIP3   OH254270   5.227   4.403  15.663  0.2392 -0.0594  0.0743
10952TIP3    H154271   5.190   4.325  15.704  0.9374 -0.6159 -0.3326
10952TIP3    H254272   5.239   4.378  15.571 -0.4233  0.8504 -0.2688
10953TIP3   OH254273   2.209   4.424   2.241 -0.3613 -0.0827  0.3698
10953TIP3    H154274   2.216   4.355   2.307 -1.7601 -1.1113 -0.4820
10953TIP3    H254275   2.253   4.500   2.280  1.1204 -1.4118  1.3781
10954TIP3   OH254276   2.442   2.000  13.464  0.2551  0.3919  0.3354
10954TIP3    H154277   2.514   1.994  13.527 -0.2140  0.0092  0.8329
10954TIP3    H254278   2.369   2.038  13.513 -1.0896 -2.6702  0.9014
10955TIP3   OH254279   0.541   4.323   2.123  0.0031 -0.5150 -0.1022
10955TIP3    H154280   0.493   4.243   2.100 -0.7912 -0.1393  0.2445
10955TIP3    H254281   0.505   4.390   2.065 -0.1063 -0.1656  0.3633
10956TIP3   OH254282   5.668   2.977   2.026 -0.2762  0.0565  0.0018
10956TIP3    H154283   5.709   2.949   2.108 -0.2299  1.4768  0.5030
10956TIP3    H254284   5.597   3.036   2.053 -0.5358  0.2090 -0.9592
10957TIP3   OH254285   6.394   0.289   4.289 -0.0043 -0.2527  0.0794
10957TIP3    H154286   6.348   0.252   4.214  1.5228  1.4066 -1.7863
10957TIP3    H254287   6.486   0.291   4.262  0.1192  4.3961  0.1601
10958TIP3   OH254288   1.937   0.768   5.198  0.1169 -0.5978  0.4225
10958TIP3    H154289   2.005   0.799   5.138 -0.4216  0.8704  0.5316
10958TIP3    H254290   1.915   0.681   5.166 -0.8645  0.4992 -2.2087
10959TIP3   OH254291   4.838   3.854  11.182  0.0487 -0.1565  0.6724
10959TIP3    H154292   4.923   3.831  11.144 -1.2745 -0.3943 -2.4546
10959TIP3    H254293   4.848   3.945  11.211  1.1379  0.1219 -0.4807
10960TIP3   OH254294   4.301   3.660  12.095  0.1268  0.0616 -0.0356
10960TIP3    H154295   4.340   3.688  12.012 -0.7825  0.6872 -0.2681
10960TIP3    H254296   4.279   3.741  12.140  0.7605 -0.2713  0.9063
10961TIP3   OH254297   0.784   5.558  10.750 -0.0902 -0.2493 -0.1276
10961TIP3    H154298   0.878   5.563  10.762 -0.0868  1.0481 -0.6079
10961TIP3    H254299   0.768   5.468  10.720  0.8123 -0.9141  1.2946
10962TIP3   OH254300   1.497   3.039   0.808 -0.2180 -0.0649 -0.4538
10962TIP3    H154301   1.482   3.124   0.766 -2.3938 -1.5334 -3.0625
10962TIP3    H254302   1.445   3.042   0.888  0.6568  1.4085  0.0932
10963TIP3   OH254303   0.268   1.675   4.520 -0.4257  0.4945 -0.2707
10963TIP3    H154304   0.209   1.602   4.538  0.2569  0.3766  1.8335
10963TIP3    H254305   0.238   1.712   4.437 -2.8447 -0.1264  0.2716
10964TIP3   OH254306   3.919   6.190   3.091 -0.1993 -0.6813 -0.0892
10964TIP3    H154307   3.948   6.182   3.000 -0.2462 -1.1665 -0.0688
10964TIP3    H254308   3.836   6.236   3.086 -0.2620 -0.8146 -0.3077
10965TIP3   OH254309   4.083   3.216  16.921  0.1536 -0.5663  0.1418
10965TIP3    H154310   4.065   3.212  17.015 -0.8670 -0.3961 -0.0285
10965TIP3    H254311   3.996   3.218  16.880  0.5783 -0.8403 -0.8149
10966TIP3   OH254312   1.076   1.828  12.750  0.0420 -0.1788  0.4583
10966TIP3    H154313   1.111   1.837  12.661  0.8895 -0.8166  0.7182
10966TIP3    H254314   1.085   1.915  12.789 -0.1025  0.0394  0.0117
10967TIP3   OH254315   4.412   2.845  12.115 -0.1587  0.3011 -0.9339
10967TIP3    H154316   4.458   2.904  12.055 -0.3028  1.6082  0.1855
10967TIP3    H254317   4.369   2.904  12.177 -2.2410 -0.9106 -1.1338
10968TIP3   OH254318   3.030   1.743  14.397 -0.7108  0.6532  0.6062
10968TIP3    H154319   2.988   1.657  14.391 -0.4878  0.4560  1.6310
10968TIP3    H254320   3.091   1.746  14.324  0.4831 -0.7428  1.5081
10969TIP3   OH254321   0.519   2.658   5.863 -0.2659 -0.8898  0.7821
10969TIP3    H154322   0.520   2.713   5.785 -0.9353 -1.3567  0.4350
10969TIP3    H254323   0.572   2.706   5.927 -1.4902  0.5571  0.7744
10970TIP3   OH254324   6.340   0.470   3.011 -0.1701  0.2178 -0.3303
10970TIP3    H154325   6.339   0.536   2.941 -3.6152  0.0762 -0.5881
10970TIP3    H254326   6.265   0.414   2.991  1.2661 -2.3924  1.2104
10971TIP3   OH254327   0.486   2.771  10.693 -0.2918  0.3537  0.2211
10971TIP3    H154328   0.563   2.715  10.704  0.1729  0.2486 -2.8074
10971TIP3    H254329   0.422   2.715  10.649  0.6092  2.3285 -4.0618
10972TIP3   OH254330   3.759   6.563   5.229 -0.0506 -0.6894  0.8113
10972TIP3    H154331   3.793   6.632   5.172  2.7583 -2.3547  0.2824
10972TIP3    H254332   3.733   6.608   5.309  1.6910  0.9981  0.4781
10973TIP3   OH254333   0.369   5.751  16.769 -0.0707  0.3251 -0.9275
10973TIP3    H154334   0.347   5.685  16.704  1.3212 -0.5740 -0.5180
10973TIP3    H254335   0.315   5.729  16.845  0.4537 -0.3998 -0.7615
10974TIP3   OH254336   2.706   4.640  15.722 -0.1272  0.4255  0.0502
10974TIP3    H154337   2.793   4.627  15.760 -0.3223  1.0709  0.7459
10974TIP3    H254338   2.648   4.649  15.798 -1.1199 -1.7739 -0.3718
10975TIP3   OH254339   0.462   2.697  13.861  0.3120  0.0313  0.4760
10975TIP3    H154340   0.480   2.610  13.825  0.5408  0.0267  0.5993
10975TIP3    H254341   0.367   2.703  13.862  0.2807  0.6330 -1.5852
10976TIP3   OH254342   2.100   2.891  16.447 -0.1056 -0.3792 -0.1964
10976TIP3    H154343   2.101   2.806  16.403  2.5985 -0.6386  0.1771
10976TIP3    H254344   2.034   2.941  16.401  0.0994 -1.8342 -2.2016
10977TIP3   OH254345   6.421   6.334  16.064 -0.2844 -0.9083  0.1027
10977TIP3    H154346   6.435   6.337  16.159  0.3055  0.8345 -0.0133
10977TIP3    H254347   6.473   6.259  16.035  0.2537 -0.9193  1.0524
10978TIP3   OH254348   3.929   0.410  14.206  0.4749 -0.1631 -0.1447
10978TIP3    H154349   3.947   0.423  14.300  1.1095 -0.4150 -0.2308
10978TIP3    H254350   3.851   0.355  14.205  1.0003 -0.9280  0.2446
10979TIP3   OH254351   5.012   4.563  12.150  0.0515  0.8425  1.2334
10979TIP3    H154352   4.981   4.537  12.063  0.4645  0.1792  1.2752
10979TIP3    H254353   5.063   4.642  12.135  1.3540 -0.0655  0.6427
10980TIP3   OH254354   3.475   2.328   4.710 -0.1349 -0.6607  0.4609
10980TIP3    H154355   3.392   2.313   4.754 -1.1972  3.1504  0.1465
10980TIP3    H254356   3.532   2.365   4.778 -0.4208  1.3414 -0.3107
10981TIP3   OH254357   4.062   6.204   0.541 -0.4122 -0.0318  0.3601
10981TIP3    H154358   4.056   6.271   0.473  1.6441  1.4523  1.5046
10981TIP3    H254359   4.101   6.129   0.497  1.2950  1.0520 -0.0736
10982TIP3   OH254360   0.417   3.117   5.091 -0.3071 -0.1210  0.2292
10982TIP3    H154361   0.358   3.103   5.017  0.1339 -1.5969  0.1282
10982TIP3    H254362   0.404   3.041   5.148  0.3944  0.2891  0.9731
10983TIP3   OH254363   2.158   0.514   4.879  0.4210  0.0054 -0.2743
10983TIP3    H154364   2.114   0.430   4.868  0.0112  0.2796 -0.8242
10983TIP3    H254365   2.239   0.494   4.926  1.1003 -0.9161 -1.7870
10984TIP3   OH254366   6.311   1.156  17.424 -0.0384  0.9307 -0.5679
10984TIP3    H154367   6.343   1.092  17.360 -0.4047 -0.8355  0.9371
10984TIP3    H254368   6.317   1.110  17.508 -2.7897  1.9316  0.2505
10985TIP3   OH254369   5.088   3.790  11.033  0.0249 -0.3291  0.2074
10985TIP3    H154370   5.139   3.761  11.108  1.0064  0.0688 -0.2996
10985TIP3    H254371   5.125   3.743  10.959 -1.1678 -0.9904 -0.0050
10986TIP3   OH254372   6.363   3.116   0.281  0.5265 -0.3183 -0.3025
10986TIP3    H154373   6.354   3.046   0.217  1.6883  1.7577 -2.9221
10986TIP3    H254374   6.298   3.095   0.349 -1.9339 -1.8210 -2.9003
10987TIP3   OH254375   6.069   4.043  17.101  0.1294  0.4863  0.4753
10987TIP3    H154376   6.023   4.035  17.018  0.3162  0.3059  0.3879
10987TIP3    H254377   6.040   3.968  17.153  0.1818  0.4761  0.4897
10988TIP3   OH254378   6.303   1.762  14.816 -0.6217  0.3197 -0.3979
10988TIP3    H154379   6.231   1.707  14.849 -2.8159  2.3237 -1.5263
10988TIP3    H254380   6.271   1.852  14.828  0.4218  1.2531 -3.5862
10989TIP3   OH254381   4.496   6.519  13.128  0.4888  0.1274 -0.3527
10989TIP3    H154382   4.412   6.528  13.084  0.4825 -0.0834 -0.3891
10989TIP3    H254383   4.557   6.568  13.074  0.6123 -0.6930 -0.9840
10990TIP3   OH254384   6.614   1.526  15.228  0.6858 -0.7787 -0.2705
10990TIP3    H154385   6.636   1.600  15.171  2.1078 -0.3924  0.7256
10990TIP3    H254386   6.620   1.562  15.317 -0.2100 -1.6965  0.1834
10991TIP3   OH254387   1.316   3.893  17.328  0.4358 -0.2976  0.2679
10991TIP3    H154388   1.393   3.836  17.331  0.3174 -0.4173  1.3103
10991TIP3    H254389   1.273   3.880  17.412 -0.8806 -0.4430 -0.4008
10992TIP3   OH254390   1.991   2.457  11.555 -0.2138 -0.0185 -0.5951
10992TIP3    H154391   2.051   2.514  11.508  1.4549 -0.6642  0.6621
10992TIP3    H254392   2.047   2.394  11.600 -1.8500 -0.9077  0.3163
10993TIP3   OH254393   3.964   4.861   1.156  0.1201  0.3828 -0.4227
10993TIP3    H154394   3.935   4.820   1.238 -0.6113 -0.3015 -1.0086
10993TIP3    H254395   4.016   4.793   1.112  0.4114  0.7065 -0.5837
10994TIP3   OH254396   4.241   6.563   2.537  0.3218  0.4219 -0.0439
10994TIP3    H154397   4.167   6.502   2.540 -0.4484  1.3374  0.4213
10994TIP3    H254398   4.254   6.579   2.443  1.9540 -2.0510 -0.3297
10995TIP3   OH254399   5.207   5.871   4.831  0.0903 -0.2961 -0.2830
10995TIP3    H154400   5.265   5.820   4.774  1.7747 -1.1173  1.9949
10995TIP3    H254401   5.226   5.962   4.808  0.8804 -0.5939 -0.8755
10996TIP3   OH254402   1.365   0.119   2.325 -0.3826  0.7894  0.1168
10996TIP3    H154403   1.316   0.081   2.252 -2.1425  0.4394  1.4238
10996TIP3    H254404   1.300   0.165   2.377  0.7046  0.4901  1.8331
10997TIP3   OH254405   1.803   1.950   0.251 -0.2256 -0.4680  0.0502
10997TIP3    H154406   1.861   1.901   0.310  2.0267  0.0458 -1.5982
10997TIP3    H254407   1.815   2.041   0.276 -1.6415 -0.4686  0.7767
10998TIP3   OH254408   2.006   3.669  12.260  0.2424  0.4704 -0.2448
10998TIP3    H154409   2.056   3.712  12.329  2.4583 -1.4893 -0.4860
10998TIP3    H254410   1.995   3.736  12.192 -0.9369  2.0730  1.4396
10999TIP3   OH254411   5.296   2.082  16.020  0.2064  0.4711 -0.6870
10999TIP3    H154412   5.303   2.169  15.979  0.3970  1.7054  1.8003
10999TIP3    H254413   5.360   2.084  16.091  0.1211 -1.6942 -0.4891
11000TIP3   OH254414   4.703   0.624   2.010  0.1702  0.0673  0.2692
11000TIP3    H154415   4.629   0.591   2.061 -0.0539  1.6673  1.0218
11000TIP3    H254416   4.688   0.589   1.922 -2.3667  1.5975  0.0001
11001TIP3   OH254417   6.726   0.658   2.800  0.0825  0.1226 -0.1108
11001TIP3    H154418   6.677   0.715   2.859 -0.1219 -0.2927  0.1206
11001TIP3    H254419   6.706   0.691   2.713 -2.8700 -1.7089 -0.2575
11002TIP3   OH254420   3.134   3.264  10.425 -0.4016 -0.7107 -0.0793
11002TIP3    H154421   3.181   3.189  10.462 -0.2828 -0.8062 -0.4218
11002TIP3    H254422   3.202   3.329  10.410 -0.5701 -0.3552  0.6548
11003TIP3   OH254423   4.407   2.237   1.472 -0.1199  0.1277  0.0191
11003TIP3    H154424   4.376   2.147   1.481 -0.7483  0.2401 -0.8692
11003TIP3    H254425   4.339   2.290   1.514 -1.2962  0.3853 -2.0464
11004TIP3   OH254426   4.166   1.403   5.525  0.1420 -0.6787  0.2376
11004TIP3    H154427   4.216   1.369   5.451  1.2362  2.5266 -0.6148
11004TIP3    H254428   4.220   1.381   5.602  1.5482  0.3353 -0.4195
11005TIP3   OH254429   6.241   6.566  17.200  0.2275 -0.5852 -0.8227
11005TIP3    H154430   6.244   6.640  17.262  3.0828 -0.9470 -0.4017
11005TIP3    H254431   6.261   6.490  17.253  1.4959 -1.0784 -1.9664
11006TIP3   OH254432   1.548   1.517  13.464 -0.2168 -0.0114  0.1501
11006TIP3    H154433   1.596   1.458  13.522  0.3245 -0.3978 -0.6636
11006TIP3    H254434   1.512   1.459  13.397 -2.0751  0.2416  0.8941
11007TIP3   OH254435   5.958   5.204  13.593 -0.8781 -0.1169  0.3629
11007TIP3    H154436   5.906   5.255  13.656 -0.7611 -1.5008  1.6141
11007TIP3    H254437   5.949   5.114  13.622  1.8941 -0.4663  0.3903
11008TIP3   OH254438   2.423   6.598   0.602 -0.5252  0.2422 -0.3262
11008TIP3    H154439   2.435   6.548   0.521 -0.9583 -0.6760  0.1597
11008TIP3    H254440   2.476   6.551   0.667  3.8557  3.6048 -0.9910
11009TIP3   OH254441   1.971   1.272  13.034  0.1382 -0.0982  0.6388
11009TIP3    H154442   1.933   1.352  13.069  0.5675  0.3535  0.0973
11009TIP3    H254443   1.940   1.267  12.944  0.1616 -0.5066  0.6498
11010TIP3   OH254444   1.575   2.969   2.703 -0.1715 -0.3908  0.1154
11010TIP3    H154445   1.613   2.944   2.787 -0.2558 -0.6176  0.0861
11010TIP3    H254446   1.483   2.946   2.710 -0.1054 -0.7497 -0.1744
11011TIP3   OH254447   3.288   2.520   2.173 -0.6524  0.5698 -0.4476
11011TIP3    H154448   3.378   2.511   2.202 -0.4801  0.8476 -0.8893
11011TIP3    H254449   3.246   2.438   2.200 -0.3841  0.6228  0.1527
11012TIP3   OH254450   4.425   5.684   3.344 -0.1959  0.1933 -0.1397
11012TIP3    H154451   4.459   5.650   3.426 -0.7924 -0.6429 -0.2282
11012TIP3    H254452   4.331   5.668   3.348 -0.3018  0.6276 -0.7580
11013TIP3   OH254453   1.544   4.617  14.092 -0.3357 -0.1372  0.0784
11013TIP3    H154454   1.587   4.635  14.009 -1.4314  0.9094 -0.3037
11013TIP3    H254455   1.466   4.567  14.069 -0.0375 -0.8790  0.6200
11014TIP3   OH254456   0.926   0.858   0.294  0.3541 -0.0378 -0.2853
11014TIP3    H154457   0.883   0.906   0.364 -0.0645  0.4513 -0.8704
11014TIP3    H254458   0.859   0.798   0.260  0.8051 -0.8848  0.2888
11015TIP3   OH254459   5.764   6.405  11.002  0.0347  0.1809 -0.0658
11015TIP3    H154460   5.743   6.313  11.017  0.1834  0.5522  3.2254
11015TIP3    H254461   5.679   6.447  10.989 -0.0788 -0.3013 -0.9555
11016TIP3   OH254462   4.537   2.175   4.242 -0.2195  0.2762 -0.2915
11016TIP3    H154463   4.593   2.105   4.208  1.6396  0.9270  1.2992
11016TIP3    H254464   4.520   2.151   4.333 -0.7285  1.1893 -0.1276
11017TIP3   OH254465   4.806   6.434  10.652 -0.0603  0.4077  0.0034
11017TIP3    H154466   4.898   6.462  10.647 -0.3764  1.4105 -0.3972
11017TIP3    H254467   4.763   6.504  10.702 -0.2020 -1.1410  2.2289
11018TIP3   OH254468   3.418   3.601   1.709 -0.1839  0.2460 -0.0745
11018TIP3    H154469   3.502   3.642   1.730 -0.7792  0.7207  1.5228
11018TIP3    H254470   3.390   3.642   1.628  0.6273  0.8650 -0.0466
11019TIP3   OH254471   4.701   0.520   3.162  0.0125  0.2055  0.5388
11019TIP3    H154472   4.657   0.437   3.143  0.1453 -0.3282  2.3873
11019TIP3    H254473   4.639   0.587   3.134  1.3663 -0.2637 -4.6879
11020TIP3   OH254474   2.726   2.857  15.771  0.3584  0.3035  0.4984
11020TIP3    H154475   2.632   2.866  15.759  0.4518  1.7462  0.6870
11020TIP3    H254476   2.737   2.850  15.866  0.4938  1.1025  0.5502
11021TIP3   OH254477   6.105   4.537   0.413 -0.5006  0.1317  0.5663
11021TIP3    H154478   6.196   4.514   0.432 -0.7106  0.6807  2.4586
11021TIP3    H254479   6.109   4.586   0.331  1.0087  0.8592  1.0476
11022TIP3   OH254480   3.100   1.071  14.017 -0.0290 -0.3414 -0.0537
11022TIP3    H154481   3.186   1.108  14.040 -0.9052  2.4813 -0.8750
11022TIP3    H254482   3.076   1.116  13.936 -2.0561 -1.4995 -0.1522
11023TIP3   OH254483   2.073   5.521   4.453 -0.1571  0.3983  0.0404
11023TIP3    H154484   2.148   5.549   4.506 -1.3578 -0.7843  2.5701
11023TIP3    H254485   2.062   5.428   4.475 -1.0391 -0.0212 -1.9876
11024TIP3   OH254486   0.678   4.536   5.362  0.0459 -0.0108  0.0497
11024TIP3    H154487   0.591   4.575   5.375  1.0739  2.1583  0.8657
11024TIP3    H254488   0.694   4.485   5.441 -0.9618 -1.5272 -0.6626
11025TIP3   OH254489   0.129   5.884   5.608 -0.0035  0.0519  0.2091
11025TIP3    H154490   0.142   5.791   5.624 -0.3715 -0.1605 -0.6687
11025TIP3    H254491   0.213   5.924   5.630 -0.0350 -0.4007  1.1839
11026TIP3   OH254492   6.380   2.352  17.167  0.0839  0.0733 -0.1812
11026TIP3    H154493   6.349   2.304  17.244 -1.7402 -0.6883 -1.3361
11026TIP3    H254494   6.469   2.321  17.154 -0.3607 -1.4872  0.3022
11027TIP3   OH254495   5.392   3.532   2.197 -0.1238 -0.1386  0.3890
11027TIP3    H154496   5.469   3.581   2.169 -2.3620  3.4689 -0.1507
11027TIP3    H254497   5.338   3.524   2.118 -1.3033 -0.4917  1.2004
11028TIP3   OH254498   5.369   1.448  13.597  0.4133  0.3118  0.1223
11028TIP3    H154499   5.460   1.427  13.619  0.0801 -0.9551  0.3991
11028TIP3    H254500   5.320   1.422  13.675 -0.3470 -0.4375 -0.5892
11029TIP3   OH254501   2.477   4.465  16.454  0.0974  0.1713 -0.2461
11029TIP3    H154502   2.434   4.538  16.409  1.1384  1.6515  1.0503
11029TIP3    H254503   2.561   4.501  16.483  0.6072 -1.5295  0.5061
11030TIP3   OH254504   1.793   0.484   2.447  0.3399 -0.7167  0.1440
11030TIP3    H154505   1.705   0.518   2.462  0.2604 -1.9011  3.1715
11030TIP3    H254506   1.788   0.392   2.475  2.4965 -0.8155  0.3619
11031TIP3   OH254507   2.992   4.854  16.168 -0.0332  0.2117 -0.0646
11031TIP3    H154508   3.084   4.848  16.144  0.1259 -0.1242  0.5936
11031TIP3    H254509   2.965   4.763  16.181 -1.7096 -0.2350 -4.6758
11032TIP3   OH254510   4.876   6.246  13.587 -0.8802  0.4675  0.2716
11032TIP3    H154511   4.962   6.212  13.566 -0.8789  0.9889 -0.6274
11032TIP3    H254512   4.842   6.279  13.503 -2.2137 -0.3140  0.4688
11033TIP3   OH254513   2.895   0.430  14.015 -0.2539  0.1375 -0.3153
11033TIP3    H154514   2.852   0.507  13.977  1.9454  1.8846  0.4966
11033TIP3    H254515   2.951   0.397  13.945  0.0329  0.2663 -0.1446
11034TIP3   OH254516   5.008   0.884   4.773  0.1447  0.0688  0.2411
11034TIP3    H154517   4.995   0.945   4.701  1.4236 -0.0831 -0.1459
11034TIP3    H254518   5.103   0.880   4.785 -0.0562  1.1546  2.8831
11035TIP3   OH254519   5.740   5.338   0.185  0.5912 -0.5543  0.0430
11035TIP3    H154520   5.682   5.270   0.149  0.9829 -1.7218  1.5014
11035TIP3    H254521   5.680   5.404   0.221  0.1957  0.5499 -2.4639
11036TIP3   OH254522   6.497   5.175  14.909 -0.4480 -0.3624  0.6072
11036TIP3    H154523   6.462   5.184  14.820  0.0675  0.8226  0.5022
11036TIP3    H254524   6.572   5.117  14.899 -0.7290 -0.6842  0.3589
11037TIP3   OH254525   3.406   0.176  14.167  0.1074 -0.0066 -0.0108
11037TIP3    H154526   3.427   0.260  14.207  0.0334  0.1243 -0.2468
11037TIP3    H254527   3.340   0.196  14.100  0.7431 -0.1121 -0.6876
11038TIP3   OH254528   1.749   2.845  15.450  0.3859  0.0439  0.2655
11038TIP3    H154529   1.665   2.808  15.421 -0.3246 -0.1024  2.3690
11038TIP3    H254530   1.726   2.926  15.494  1.5335  0.8164 -0.5065
11039TIP3   OH254531   4.086   1.439  12.345 -0.3694 -0.2449  0.6931
11039TIP3    H154532   4.110   1.516  12.396 -0.4305  0.3852 -0.2150
11039TIP3    H254533   4.109   1.365  12.401 -0.5969  0.4295  1.7081
11040TIP3   OH254534   1.228   5.152  16.922 -0.1282  0.3066 -0.0514
11040TIP3    H154535   1.316   5.122  16.898 -0.0335  1.0696 -0.7306
11040TIP3    H254536   1.184   5.075  16.956  1.4763  0.3278  2.2878
11041TIP3   OH254537   6.180   3.760   5.584 -0.1116  0.1136 -0.0099
11041TIP3    H154538   6.265   3.805   5.584 -0.6834  1.2568 -1.2646
11041TIP3    H254539   6.151   3.764   5.493 -2.2989  1.3259  0.6762
11042TIP3   OH254540   2.836   0.357   0.684  0.4351  0.0087 -0.3377
11042TIP3    H154541   2.932   0.353   0.685  0.7381  3.7935 -0.2129
11042TIP3    H254542   2.816   0.448   0.706 -3.2333 -0.6894 -0.2549
11043TIP3   OH254543   6.483   5.040  16.002  0.0458 -0.2290  0.7078
11043TIP3    H154544   6.460   4.998  15.919  0.7424  0.3513  0.2035
11043TIP3    H254545   6.572   5.074  15.988  0.5949 -1.0029  2.0290
11044TIP3   OH254546   6.005   2.574   1.631  0.1237  0.3951  0.3864
11044TIP3    H154547   6.001   2.670   1.623 -0.8354  0.3120 -0.2035
11044TIP3    H254548   6.037   2.544   1.546 -1.5497  0.0794 -0.1682
11045TIP3   OH254549   5.393   0.919  15.985  0.1990 -0.1458  0.0424
11045TIP3    H154550   5.481   0.905  16.020  0.2930  1.9290  0.7673
11045TIP3    H254551   5.334   0.894  16.057  0.1875 -1.1517 -0.3025
11046TIP3   OH254552   6.556   3.559   4.425 -0.2107  0.2768 -0.0184
11046TIP3    H154553   6.590   3.476   4.456  1.5558  1.2011  0.6260
11046TIP3    H254554   6.623   3.593   4.366 -0.6049  1.5365  0.2162
11047TIP3   OH254555   3.477   1.129   5.996  0.0139  0.5068  0.1567
11047TIP3    H154556   3.437   1.213   6.020 -1.1957  0.7317 -2.2599
11047TIP3    H254557   3.414   1.063   6.025  0.4588  0.4966  1.1119
11048TIP3   OH254558   1.996   6.606  17.179 -0.8572  0.7527 -0.6395
11048TIP3    H154559   1.911   6.564  17.175 -0.3688 -0.5692  1.3355
11048TIP3    H254560   1.992   6.662  17.257  0.4784 -0.3729  0.2868
11049TIP3   OH254561   4.338   4.061  12.753 -0.7493 -0.1381  0.0021
11049TIP3    H154562   4.283   4.002  12.804 -0.0953 -1.2021 -0.4869
11049TIP3    H254563   4.341   4.022  12.666 -0.6232  0.8402 -0.4506
11050TIP3   OH254564   4.811   1.903   3.884  0.5319 -0.4977  0.7477
11050TIP3    H154565   4.849   1.962   3.820 -2.0571  0.4988 -0.0257
11050TIP3    H254566   4.794   1.958   3.961 -1.9571 -0.0936  0.0009
11051TIP3   OH254567   1.587   3.814  14.345 -0.3525 -0.0440 -0.5678
11051TIP3    H154568   1.597   3.867  14.424 -0.0003 -1.5250  0.4310
11051TIP3    H254569   1.500   3.835  14.313 -1.1687 -0.6175  1.1714
11052TIP3   OH254570   2.962   2.856   3.477 -0.2426 -0.5366  0.1823
11052TIP3    H154571   2.873   2.881   3.501 -0.4299 -0.8861 -0.1466
11052TIP3    H254572   2.954   2.767   3.442  0.1917 -0.4693 -0.1000
11053TIP3   OH254573   5.574   3.929  15.981  0.1920  0.0284 -0.2392
11053TIP3    H154574   5.515   3.994  15.944  0.3103 -0.2857 -1.0164
11053TIP3    H254575   5.630   3.978  16.041 -1.1861  0.2390  0.9094
11054TIP3   OH254576   1.630   5.124   0.323 -0.5826  0.2779 -0.1643
11054TIP3    H154577   1.708   5.078   0.354 -0.6817 -0.1584 -0.5645
11054TIP3    H254578   1.664   5.190   0.262 -0.7015 -1.7659 -2.6031
11055TIP3   OH254579   2.906   5.674   2.522 -0.3878 -0.9005  0.1547
11055TIP3    H154580   2.941   5.590   2.490 -0.5025 -1.0264  0.3575
11055TIP3    H254581   2.973   5.738   2.499  1.1159 -1.4492  2.6255
11056TIP3   OH254582   4.712   2.255  12.914  0.1091  0.1864  0.1360
11056TIP3    H154583   4.621   2.228  12.900 -0.6879  2.1137  1.2308
11056TIP3    H254584   4.763   2.201  12.853 -1.5609 -2.1268  0.6506
11057TIP3   OH254585   1.228   6.422   3.272  0.3173  0.4039 -0.2651
11057TIP3    H154586   1.260   6.335   3.248 -1.4659  0.2370 -2.3008
11057TIP3    H254587   1.206   6.463   3.188 -2.0350  1.5519  0.8342
11058TIP3   OH254588   4.307   3.328   4.396 -0.4704 -0.8242 -0.2697
11058TIP3    H154589   4.276   3.358   4.310  1.3965 -1.2490 -1.1503
11058TIP3    H254590   4.329   3.409   4.443 -0.0471 -0.6335 -0.7874
11059TIP3   OH254591   0.441   4.011   2.373  0.1407 -0.6371 -0.0274
11059TIP3    H154592   0.371   4.063   2.334  0.9063  0.1412 -0.4061
11059TIP3    H254593   0.488   4.072   2.430  0.5989 -1.1015  0.1043
11060TIP3   OH254594   0.473   0.582  12.823  0.1223 -0.1484 -0.8765
11060TIP3    H154595   0.533   0.624  12.762  0.2157 -0.4501 -0.9943
11060TIP3    H254596   0.447   0.501  12.779  1.3138 -1.0885  0.0802
11061TIP3   OH254597   2.280   4.277  16.381 -0.7375 -0.0756  0.7636
11061TIP3    H154598   2.346   4.343  16.405  0.6672 -1.2082  0.1510
11061TIP3    H254599   2.314   4.195  16.416 -1.9490 -0.6568  0.6179
11062TIP3   OH254600   0.385   5.876   3.311 -0.8172 -0.1748  0.0373
11062TIP3    H154601   0.416   5.842   3.227  2.5271  3.8256 -0.6930
11062TIP3    H254602   0.350   5.962   3.291 -1.2351  0.3281  2.5725
11063TIP3   OH254603   5.674   2.509  15.530 -0.3639  0.1777 -0.7816
11063TIP3    H154604   5.637   2.546  15.611 -0.8714 -1.3044 -0.3009
11063TIP3    H254605   5.629   2.556  15.460  0.0866  1.4931 -0.2169
11064TIP3   OH254606   2.273   3.385  16.253 -0.2875 -1.3080 -0.5440
11064TIP3    H154607   2.251   3.328  16.327 -1.7448 -0.3617 -0.2070
11064TIP3    H254608   2.210   3.362  16.185 -0.2600 -0.7598 -0.7576
11065TIP3   OH254609   4.063   3.601   6.182 -0.2149 -0.2157  0.1019
11065TIP3    H154610   3.995   3.637   6.126 -0.5548 -0.6530  0.2319
11065TIP3    H254611   4.065   3.508   6.161 -0.8404 -0.5239  1.3227
11066TIP3   OH254612   6.121   6.730  11.588 -0.1317 -0.4880 -0.1668
11066TIP3    H154613   6.065   6.657  11.614 -0.2238 -0.4400 -0.2311
11066TIP3    H254614   6.160   6.760  11.670  1.8945 -2.2186 -0.3860
11067TIP3   OH254615   0.361   5.392  16.402  0.3466 -0.1953  0.4363
11067TIP3    H154616   0.451   5.426  16.398  0.4080 -0.5151 -1.8211
11067TIP3    H254617   0.373   5.297  16.411  0.3181 -0.4523 -1.7374
11068TIP3   OH254618   2.823   2.695   0.845 -0.2674  0.0338 -0.3419
11068TIP3    H154619   2.872   2.775   0.829 -2.7933  1.1650 -3.6263
11068TIP3    H254620   2.880   2.625   0.814  0.3295  1.0199 -1.5362
11069TIP3   OH254621   0.419   1.670  16.985  0.0454 -0.0171 -0.1030
11069TIP3    H154622   0.461   1.665  16.900 -0.7501  0.0095 -0.5103
11069TIP3    H254623   0.332   1.707  16.967 -0.0884  0.0992  0.7291
11070TIP3   OH254624   0.251   2.431   3.338 -0.3070 -0.8792  0.1770
11070TIP3    H154625   0.336   2.390   3.320  0.6300  0.7117  0.8178
11070TIP3    H254626   0.266   2.524   3.325 -1.6801 -0.4664  1.3566
11071TIP3   OH254627   1.611   1.176   1.156 -0.6034 -0.5595 -0.1177
11071TIP3    H154628   1.534   1.146   1.205 -0.1484 -0.2344  0.8139
11071TIP3    H254629   1.684   1.125   1.192 -0.1740  0.0809 -0.0662
11072TIP3   OH254630   5.480   4.171  14.981  0.2811  0.2594 -0.3290
11072TIP3    H154631   5.528   4.176  15.064  0.8965 -0.1535 -0.6521
11072TIP3    H254632   5.403   4.226  14.994 -0.0490 -0.4446  0.8012
11073TIP3   OH254633   5.122   1.143  16.621  0.0569 -0.0245 -0.6694
11073TIP3    H154634   5.097   1.076  16.556  1.3248 -0.9204 -0.2722
11073TIP3    H254635   5.207   1.175  16.589  0.2193  0.2266  0.0173
11074TIP3   OH254636   4.850   0.697   4.596  0.0646 -0.0137  0.0383
11074TIP3    H154637   4.890   0.742   4.522 -0.1019 -2.7586 -1.8798
11074TIP3    H254638   4.777   0.648   4.557  0.1866 -1.8271  1.9255
11075TIP3   OH254639   1.741   5.330   0.822 -0.4084 -0.1245  0.5199
11075TIP3    H154640   1.688   5.378   0.758 -0.3061  2.8238  2.4531
11075TIP3    H254641   1.818   5.385   0.835  0.3446 -1.4494  1.9691
11076TIP3   OH254642   0.524   1.386   5.688 -0.1035 -0.3501  0.3244
11076TIP3    H154643   0.514   1.292   5.673  1.7458 -0.4163 -0.7446
11076TIP3    H254644   0.564   1.392   5.775  1.0842 -0.6433 -0.1910
11077TIP3   OH254645   6.602   4.553   0.379  0.0701 -0.0708  0.7500
11077TIP3    H154646   6.538   4.494   0.340 -0.1532  0.6914 -0.0747
11077TIP3    H254647   6.674   4.556   0.317 -0.1864  0.9760  0.4795
11078TIP3   OH254648   6.322   3.775  11.553 -0.1099 -0.4170  0.2005
11078TIP3    H154649   6.235   3.763  11.591 -0.6894  0.0760 -0.9432
11078TIP3    H254650   6.317   3.732  11.468  0.0823  1.4391 -0.7981
11079TIP3   OH254651   2.336   1.864   1.782  0.4839  0.5941 -0.1276
11079TIP3    H154652   2.304   1.940   1.830  0.1744  0.0272  0.5840
11079TIP3    H254653   2.257   1.818   1.754  0.6599  0.0531  0.2379
11080TIP3   OH254654   2.093   2.103  11.398 -0.1825 -0.6346 -0.6403
11080TIP3    H154655   2.108   2.125  11.490  1.7107 -2.6916 -0.3618
11080TIP3    H254656   2.132   2.176  11.350  1.4360 -0.8854  0.2115
11081TIP3   OH254657   5.884   6.100  14.031  0.1606  0.0108  0.4675
11081TIP3    H154658   5.922   6.032  14.087 -2.3158 -1.4487  0.5474
11081TIP3    H254659   5.860   6.170  14.092 -2.0842 -1.3695  1.3095
11082TIP3   OH254660   5.897   5.800   1.525 -0.1690 -0.4072  0.1555
11082TIP3    H154661   5.895   5.766   1.615  0.3897  2.7820  1.5192
11082TIP3    H254662   5.825   5.863   1.522 -1.1396 -1.5375 -2.1993
11083TIP3   OH254663   4.809   5.037  11.419  0.0135 -0.2708 -0.4331
11083TIP3    H154664   4.738   5.059  11.358  0.6527  0.4582 -0.9490
11083TIP3    H254665   4.808   5.108  11.483  1.9220  1.2507 -1.9511
11084TIP3   OH254666   0.561   1.087   0.312 -0.0689 -0.5574 -0.6132
11084TIP3    H154667   0.603   1.012   0.355 -0.4519 -0.6550 -0.4086
11084TIP3    H254668   0.610   1.163   0.344  1.3185 -0.8197 -1.9942
11085TIP3   OH254669   0.444   6.552   4.292 -0.0087  0.7383 -0.3372
11085TIP3    H154670   0.453   6.549   4.387  1.7764 -1.7606 -0.4818
11085TIP3    H254671   0.495   6.629   4.266  1.6258  0.0390  0.6222
11086TIP3   OH254672   3.187   5.896   5.915  0.8054 -0.2298  0.6896
11086TIP3    H154673   3.131   5.883   5.991 -0.3226 -0.8799 -0.2158
11086TIP3    H254674   3.225   5.984   5.927  0.6743 -0.3352  1.9886
11087TIP3   OH254675   6.546   2.586   5.661 -0.3744  0.1084  0.6964
11087TIP3    H154676   6.550   2.658   5.599  0.3603 -0.0359  0.5659
11087TIP3    H254677   6.483   2.615   5.727 -0.4709  0.6474  0.3771
11088TIP3   OH254678   5.850   3.142   1.717 -0.1848  0.2531  0.4755
11088TIP3    H154679   5.918   3.150   1.650 -1.6961  1.4309 -1.0005
11088TIP3    H254680   5.875   3.066   1.768  2.5749  0.9981  0.3857
11089TIP3   OH254681   1.516   4.837   0.474  0.0484  0.1650 -0.2728
11089TIP3    H154682   1.488   4.833   0.566  1.3312  0.5473  0.1484
11089TIP3    H254683   1.458   4.903   0.435 -1.5842 -1.1407 -0.1583
11090TIP3   OH254684   3.751   3.554  12.034 -0.2741  0.2003 -0.5312
11090TIP3    H154685   3.659   3.562  12.012 -0.4899  0.4451  0.4102
11090TIP3    H254686   3.775   3.465  12.007 -0.8388  0.0594 -0.5659
11091TIP3   OH254687   0.853   6.317  11.926 -0.9264  0.4483 -0.4162
11091TIP3    H154688   0.850   6.223  11.912  0.5833  0.3933 -0.6032
11091TIP3    H254689   0.781   6.352  11.873 -0.9968 -0.5324 -0.9827
11092TIP3   OH254690   4.990   5.281  11.872  0.3298 -0.3353  0.1962
11092TIP3    H154691   4.921   5.295  11.807  2.5122  1.5530 -1.9018
11092TIP3    H254692   4.943   5.265  11.954 -2.5546 -1.9472 -1.6133
11093TIP3   OH254693   3.523   1.928  16.055  0.5648 -0.6371  0.0529
11093TIP3    H154694   3.468   1.964  16.125 -1.8851  1.1861 -2.5889
11093TIP3    H254695   3.601   1.984  16.054 -0.6223  1.0991 -0.3367
11094TIP3   OH254696   5.165   6.604   2.989 -0.1252  0.0740 -0.5162
11094TIP3    H154697   5.136   6.643   2.906 -1.9778 -2.2513 -1.0509
11094TIP3    H254698   5.103   6.638   3.054 -0.9177 -0.8843 -0.7511
11095TIP3   OH254699   2.550   5.350   4.684 -0.4312 -0.6079 -0.5138
11095TIP3    H154700   2.506   5.335   4.768  1.0050 -4.5660 -0.2793
11095TIP3    H254701   2.619   5.413   4.706 -1.4077  0.0988  0.7242
11096TIP3   OH254702   4.639   3.613  12.185  0.2487  0.2676  0.2532
11096TIP3    H154703   4.651   3.666  12.106  0.1314 -0.7004 -0.4336
11096TIP3    H254704   4.544   3.610  12.198  0.3051  0.9827  0.8185
11097TIP3   OH254705   6.217   4.419   2.270  0.1460 -0.3850 -0.1747
11097TIP3    H154706   6.265   4.400   2.190 -2.2110 -0.2164 -1.7033
11097TIP3    H254707   6.193   4.334   2.305  0.0805 -0.4324 -0.3359
11098TIP3   OH254708   5.515   3.079  16.803  0.5722 -0.9276 -0.3532
11098TIP3    H154709   5.428   3.116  16.816  1.0345  0.0507  0.0671
11098TIP3    H254710   5.530   3.086  16.708 -0.7349 -3.3215 -0.8274
11099TIP3   OH254711   4.866   0.275   5.864 -0.7410  0.8113  0.8628
11099TIP3    H154712   4.795   0.282   5.928 -1.6112  1.2281 -0.1248
11099TIP3    H254713   4.867   0.359   5.819 -0.2520  0.4687  0.2045
11100TIP3   OH254714   3.887   1.661  11.468 -0.2298 -0.2659  0.8493
11100TIP3    H154715   3.975   1.634  11.495  0.1547  0.7193  0.6065
11100TIP3    H254716   3.855   1.714  11.541 -0.1538  0.3719  0.4183
11101TIP3   OH254717   2.582   0.159   1.874 -0.4513  0.4609  0.3094
11101TIP3    H154718   2.551   0.164   1.965 -3.1467  2.4602 -0.6097
11101TIP3    H254719   2.625   0.243   1.858 -1.0878  0.6250 -0.6039
11102TIP3   OH254720   4.828   1.257   2.809  0.4217 -0.1202  0.1144
11102TIP3    H154721   4.792   1.290   2.891 -2.2360 -2.4020  0.0093
11102TIP3    H254722   4.899   1.197   2.836  0.3418  0.0290  0.6665
11103TIP3   OH254723   4.061   1.878   2.194 -0.0442 -0.3820 -0.3277
11103TIP3    H154724   4.064   1.785   2.174  0.6020 -0.8687  1.7475
11103TIP3    H254725   3.978   1.908   2.157 -0.9037 -2.0859  0.1198
11104TIP3   OH254726   6.153   1.769   3.177  1.2454 -0.3230 -0.2204
11104TIP3    H154727   6.160   1.840   3.113 -0.6985 -0.7760 -0.9920
11104TIP3    H254728   6.154   1.813   3.262 -1.2002  0.8148 -0.7000
11105TIP3   OH254729   0.739   2.536   4.681  0.2299 -0.5644 -0.7062
11105TIP3    H154730   0.804   2.512   4.616  0.7122 -2.2584  0.3424
11105TIP3    H254731   0.673   2.467   4.675  1.1895 -1.8003  1.7886
11106TIP3   OH254732   5.184   0.207  11.162  0.5559 -0.2260  0.1618
11106TIP3    H154733   5.176   0.284  11.219  0.6274 -0.8199  0.9921
11106TIP3    H254734   5.097   0.196  11.124  0.7997  0.8729 -0.7959
11107TIP3   OH254735   2.385   4.674   5.452 -0.1109  0.0277 -0.4753
11107TIP3    H154736   2.440   4.642   5.523  0.7350  0.5595 -0.8687
11107TIP3    H254737   2.447   4.694   5.381 -1.0712 -2.2403 -2.0654
11108TIP3   OH254738   0.252   4.550  14.916 -0.9833 -0.4299 -0.5472
11108TIP3    H154739   0.169   4.530  14.874 -1.6902 -0.6190  0.8706
11108TIP3    H254740   0.318   4.511  14.859 -1.9113 -0.8913 -1.3338
11109TIP3   OH254741   1.370   0.876  13.793 -0.3825 -0.2962 -0.2587
11109TIP3    H154742   1.454   0.834  13.774 -0.7328 -0.6451 -1.0705
11109TIP3    H254743   1.317   0.806  13.831  0.2927  0.3710  2.1185
11110TIP3   OH254744   2.530   4.990  11.357 -0.1204  0.1254  0.7788
11110TIP3    H154745   2.453   4.933  11.355 -1.0384  1.3523 -0.2608
11110TIP3    H254746   2.598   4.940  11.311 -0.1807 -1.0707  1.9227
11111TIP3   OH254747   5.862   3.073  15.646  0.2454  0.2874 -0.0027
11111TIP3    H154748   5.875   3.107  15.734 -1.1928 -0.7281  0.6409
11111TIP3    H254749   5.939   3.017  15.631  0.3221  0.1687  0.7609
11112TIP3   OH254750   2.950   3.798  10.410 -0.6199  0.8261  0.3106
11112TIP3    H154751   2.856   3.800  10.393 -1.1111 -0.3175  2.5431
11112TIP3    H254752   2.958   3.827  10.501  1.2463  1.3680  0.0121
11113TIP3   OH254753   2.148   5.860   1.826  0.2364 -0.2131  0.4982
11113TIP3    H154754   2.209   5.878   1.897  1.3459 -0.2297 -0.4163
11113TIP3    H254755   2.195   5.800   1.768 -1.1529 -1.2867  0.4285
11114TIP3   OH254756   0.496   4.757  11.721 -0.2375 -0.3172  0.0324
11114TIP3    H154757   0.419   4.795  11.763 -0.1762 -1.1665  0.9545
11114TIP3    H254758   0.470   4.744  11.630 -0.5403  1.0992 -0.0965
11115TIP3   OH254759   4.046   2.639   1.554 -0.6130  0.1003  0.8411
11115TIP3    H154760   4.115   2.646   1.620 -0.7536  2.1802  0.8237
11115TIP3    H254761   4.054   2.718   1.502 -1.4973 -0.7778 -0.6930
11116TIP3   OH254762   3.882   1.635   1.807 -0.3101  0.1282 -0.7978
11116TIP3    H154763   3.810   1.692   1.778 -1.5906 -0.0658  1.7617
11116TIP3    H254764   3.880   1.640   1.902  0.9414 -2.5356 -0.5464
11117TIP3   OH254765   3.676   5.654  16.200  0.4186 -0.3954 -0.4926
11117TIP3    H154766   3.706   5.716  16.134 -0.4179  0.0750 -0.4382
11117TIP3    H254767   3.730   5.576  16.186  0.6552 -0.0880 -1.3361
11118TIP3   OH254768   4.754   6.185  12.562  0.0023 -0.2361 -0.2019
11118TIP3    H154769   4.713   6.100  12.576 -1.5102  0.5843  0.6690
11118TIP3    H254770   4.782   6.184  12.471 -1.5926 -1.0308 -0.7135
11119TIP3   OH254771   4.332   4.012  13.459 -1.1206  0.1448  0.1332
11119TIP3    H154772   4.403   4.004  13.523  0.2690  1.5512 -1.1624
11119TIP3    H254773   4.370   4.063  13.387 -3.4251  0.8485 -0.6557
11120TIP3   OH254774   2.275   3.929  11.073 -0.4670 -0.2038 -1.0159
11120TIP3    H154775   2.309   4.017  11.087 -0.5790 -0.6334  3.2300
11120TIP3    H254776   2.350   3.872  11.087 -0.8197 -0.8804 -1.7954
11121TIP3   OH254777   5.205   2.971  14.362 -0.2993 -0.0934 -0.0387
11121TIP3    H154778   5.229   3.063  14.350  0.1235 -0.2123 -0.0875
11121TIP3    H254779   5.249   2.945  14.443  0.4561 -0.5629 -0.5975
11122TIP3   OH254780   3.209   2.910   0.557  0.7802 -0.3454 -0.5397
11122TIP3    H154781   3.279   2.949   0.609  1.0298 -0.6790 -0.6236
11122TIP3    H254782   3.247   2.900   0.470  0.0333  1.1691 -1.0661
11123TIP3   OH254783   3.001   2.107   4.195 -0.3566 -0.2837 -0.0766
11123TIP3    H154784   2.970   2.017   4.189  0.7471 -0.6246 -0.9324
11123TIP3    H254785   3.072   2.113   4.132 -0.2935  1.1477  0.0838
11124TIP3   OH254786   3.535   2.205   6.054 -0.0959  0.2600 -0.5358
11124TIP3    H154787   3.499   2.263   5.987  0.5792  0.4010 -0.7881
11124TIP3    H254788   3.594   2.261   6.105  1.8725 -0.5481 -1.8307
11125TIP3   OH254789   6.131   1.561  14.945 -1.0001 -0.3534 -0.0947
11125TIP3    H154790   6.051   1.572  14.997  0.1331 -0.0366  1.6616
11125TIP3    H254791   6.202   1.564  15.009  0.4389 -0.6031 -1.6109
11126TIP3   OH254792   5.115   0.077   2.321  0.7109  0.6310 -0.0683
11126TIP3    H154793   5.198   0.099   2.280 -0.2706  1.0468 -1.9089
11126TIP3    H254794   5.062   0.156   2.313 -0.7890 -0.4441 -1.3821
11127TIP3   OH254795   6.545   6.392   1.879  0.0445  0.1874  0.3980
11127TIP3    H154796   6.587   6.336   1.943  0.6784 -1.8178 -1.6566
11127TIP3    H254797   6.460   6.413   1.917 -0.7720 -3.2687  0.7725
11128TIP3   OH254798   1.954   2.684  15.987 -0.4580 -0.5889  0.2389
11128TIP3    H154799   1.979   2.656  16.075 -0.8641 -0.3615  0.4236
11128TIP3    H254800   2.035   2.675  15.936 -0.2298 -0.7489  0.6250
11129TIP3   OH254801   6.295   3.060   2.566 -0.0850 -0.5786 -0.4077
11129TIP3    H154802   6.259   3.075   2.654 -0.2790 -1.2244 -0.3712
11129TIP3    H254803   6.344   3.139   2.547 -0.9679  0.0450 -0.1743
11130TIP3   OH254804   5.066   5.390   5.738 -0.6096  0.2753  1.0455
11130TIP3    H154805   5.067   5.294   5.744 -0.8397  0.1137 -0.8025
11130TIP3    H254806   4.980   5.410   5.700 -0.6100  1.2203  1.5383
11131TIP3   OH254807   1.972   2.348   3.354  0.4706 -0.3902 -0.1855
11131TIP3    H154808   1.945   2.264   3.318  0.3288 -0.7394  0.7376
11131TIP3    H254809   2.068   2.345   3.351  0.4711  0.0183 -1.5088
11132TIP3   OH254810   5.165   2.399  14.119 -0.2601 -0.4211 -0.6966
11132TIP3    H154811   5.072   2.378  14.113 -0.5824  0.0523  1.6786
11132TIP3    H254812   5.192   2.410  14.028 -2.1026 -2.2145 -1.5576
11133TIP3   OH254813   2.959   4.375  16.795  0.3973  0.2632 -0.1062
11133TIP3    H154814   3.041   4.387  16.746  0.5424  0.8127  0.2630
11133TIP3    H254815   2.914   4.459  16.788  0.9564  0.7554  1.6569
11134TIP3   OH254816   2.960   1.974   2.723 -0.1377  0.2948  0.5591
11134TIP3    H154817   2.889   2.022   2.765  0.2128  0.4143  1.0337
11134TIP3    H254818   2.934   1.882   2.729  0.5668  0.1659  2.3855
11135TIP3   OH254819   5.134   1.081   5.645 -0.6969 -0.0154 -0.0527
11135TIP3    H154820   5.144   1.150   5.712  0.1432 -0.5546  0.3883
11135TIP3    H254821   5.160   1.123   5.563 -0.1482  0.1879  0.2208
11136TIP3   OH254822   1.977   5.161  14.714 -0.4134 -0.1698 -0.3195
11136TIP3    H154823   2.007   5.238  14.762  0.4354 -0.6360 -0.0902
11136TIP3    H254824   2.039   5.093  14.736 -0.6405 -0.6889 -1.2289
11137TIP3   OH254825   2.429   2.390   5.418 -0.7466 -0.2067 -0.2111
11137TIP3    H154826   2.514   2.383   5.462 -0.6189  0.9380 -0.2492
11137TIP3    H254827   2.451   2.415   5.328 -1.1636  1.2530  0.0811
11138TIP3   OH254828   5.954   6.180   0.747 -0.4552  0.4694  0.3896
11138TIP3    H154829   5.867   6.181   0.709 -0.4287 -3.6813 -0.2471
11138TIP3    H254830   6.010   6.144   0.678  1.0247 -0.2633  1.8934
11139TIP3   OH254831   1.706   4.896   1.958  0.2652  0.1131 -0.0460
11139TIP3    H154832   1.756   4.907   1.877  1.4165  0.9254  0.7467
11139TIP3    H254833   1.634   4.838   1.934  0.5386  0.3993 -1.6649
11140TIP3   OH254834   2.228   6.659  15.591 -0.5411 -0.1251  0.2463
11140TIP3    H154835   2.208   6.635  15.681  0.4047 -1.1935  0.1951
11140TIP3    H254836   2.243   6.575  15.547 -1.7559  0.3308 -1.0953
11141TIP3   OH254837   1.760   5.257   2.654  0.2641  0.8194 -0.2623
11141TIP3    H154838   1.694   5.192   2.629 -0.5229  1.3332  0.4007
11141TIP3    H254839   1.734   5.283   2.742  3.0696 -1.1310  1.3050
11142TIP3   OH254840   2.038   2.082   6.662  0.2103 -0.1353 -0.1678
11142TIP3    H154841   1.947   2.057   6.646  0.2412 -0.1410 -0.3298
11142TIP3    H254842   2.067   2.022   6.731 -0.1208  0.3203  0.3833
11143TIP3   OH254843   5.321   4.854   5.320 -0.1349 -0.7150 -0.3459
11143TIP3    H154844   5.317   4.791   5.392 -1.6324 -0.3088 -0.0431
11143TIP3    H254845   5.410   4.846   5.287  0.6791 -0.7510  1.6968
11144TIP3   OH254846   6.462   0.826   0.973 -0.4344  0.4119 -0.1937
11144TIP3    H154847   6.381   0.867   0.943 -1.5485 -1.9881 -0.8029
11144TIP3    H254848   6.468   0.849   1.066 -0.1743  3.0150 -0.7828
11145TIP3   OH254849   2.148   6.275   4.935  0.4198  0.2031  0.5759
11145TIP3    H154850   2.077   6.326   4.975  1.7372  2.3776  0.3574
11145TIP3    H254851   2.213   6.267   5.005  1.1381  0.7222 -0.0191
11146TIP3   OH254852   2.237   4.899   3.979  0.1405  0.2214  0.4238
11146TIP3    H154853   2.189   4.951   4.044  0.0610  1.3799 -0.5204
11146TIP3    H254854   2.182   4.901   3.901  0.1205 -1.3603  0.3748
11147TIP3   OH254855   5.319   0.516  14.097  0.3246 -0.3033 -0.2931
11147TIP3    H154856   5.291   0.474  14.179 -0.0700  0.4082 -0.0546
11147TIP3    H254857   5.348   0.443  14.042 -1.9649 -1.1182 -0.5421
11148TIP3   OH254858   4.099   1.113  12.024 -0.1633 -0.2442  0.1596
11148TIP3    H154859   4.100   1.209  12.024  1.0799 -0.2430  0.0759
11148TIP3    H254860   4.043   1.090  12.098 -1.0381  0.5402 -0.2383
11149TIP3   OH254861   5.405   0.936   5.490 -0.2768 -0.1314 -0.2990
11149TIP3    H154862   5.326   0.953   5.438  0.0673 -1.6943 -1.3952
11149TIP3    H254863   5.400   0.843   5.512 -0.8050  0.5970  3.2465
11150TIP3   OH254864   1.386   2.181  11.034  0.1420  0.3846 -0.3239
11150TIP3    H154865   1.449   2.244  10.998  1.2610 -0.6406 -0.2109
11150TIP3    H254866   1.431   2.143  11.110  0.2894 -1.9215 -1.4910
11151TIP3   OH254867   0.220   0.749  15.371 -0.4128 -0.1612  0.4418
11151TIP3    H154868   0.248   0.689  15.302 -1.5473 -1.1381  0.7972
11151TIP3    H254869   0.301   0.773  15.416  0.4328  0.8920 -1.4961
11152TIP3   OH254870   6.345   3.352   5.388  0.1263  0.5413 -0.3134
11152TIP3    H154871   6.425   3.313   5.422 -0.5098 -1.6412 -1.1637
11152TIP3    H254872   6.290   3.364   5.465  0.4511 -0.0224  0.0130
11153TIP3   OH254873   6.328   5.510  10.558  0.0523 -0.0653 -0.2716
11153TIP3    H154874   6.296   5.565  10.487  0.4788  0.9658  0.3196
11153TIP3    H254875   6.249   5.482  10.604 -0.1316  0.5981 -0.1830
11154TIP3   OH254876   0.350   3.060  16.550  0.0488 -0.6578 -0.5167
11154TIP3    H154877   0.270   3.043  16.600  0.0021 -0.6744 -0.5972
11154TIP3    H254878   0.321   3.106  16.472  0.2066  0.0093 -0.1832
11155TIP3   OH254879   0.303   1.347  12.926 -0.2120  0.3447 -0.7013
11155TIP3    H154880   0.393   1.379  12.936 -0.1832  0.4466 -1.2714
11155TIP3    H254881   0.309   1.280  12.858 -0.3736 -0.4672  0.0713
11156TIP3   OH254882   1.471   3.251  13.974  0.3629  0.0384 -0.1176
11156TIP3    H154883   1.450   3.339  14.004 -0.5399  0.1595 -1.0524
11156TIP3    H254884   1.550   3.227  14.022 -0.3020  0.7162  1.3745
11157TIP3   OH254885   1.660   5.311  16.801  0.1765 -0.1539 -0.2312
11157TIP3    H154886   1.639   5.367  16.726  0.9791 -0.2367 -0.5244
11157TIP3    H254887   1.737   5.351  16.840 -0.5746  0.2144  0.9006
11158TIP3   OH254888   4.945   0.067  10.383 -0.2749 -0.4146 -0.2750
11158TIP3    H154889   5.031   0.108  10.382  0.3731 -1.4392  2.9973
11158TIP3    H254890   4.962  -0.026  10.366 -0.9733 -0.3715 -1.3082
11159TIP3   OH254891   1.307   4.785  16.966 -0.5307  0.3896  0.1107
11159TIP3    H154892   1.235   4.800  16.905  0.7341 -0.6840 -1.7385
11159TIP3    H254893   1.384   4.774  16.910  0.8573  0.2367  1.9577
11160TIP3   OH254894   2.262   3.450  14.842  0.5329 -0.0829 -0.6062
11160TIP3    H154895   2.318   3.491  14.907 -0.9213 -0.7590  1.1829
11160TIP3    H254896   2.322   3.404  14.783  1.9347  1.1887 -0.2252
11161TIP3   OH254897   2.264   2.828   2.176 -0.0785  0.3437  0.2085
11161TIP3    H154898   2.322   2.872   2.114 -1.0058  0.6371 -0.4748
11161TIP3    H254899   2.321   2.771   2.227  0.9917  1.5730  0.4223
11162TIP3   OH254900   1.028   4.159  16.296  0.0094 -0.0301  0.4163
11162TIP3    H154901   1.051   4.207  16.375 -0.3929 -1.2109  1.2802
11162TIP3    H254902   1.062   4.213  16.224  2.8996 -0.2556  1.4814
11163TIP3   OH254903   4.802   6.317  13.288 -0.1226  0.0413 -0.3993
11163TIP3    H154904   4.780   6.410  13.295  1.7698  0.6973 -2.2265
11163TIP3    H254905   4.738   6.282  13.226 -1.4835 -0.1846  1.0474
11164TIP3   OH254906   5.530   3.597   4.309 -0.1584 -0.6119  0.3751
11164TIP3    H154907   5.564   3.642   4.387  1.2273  0.8027 -0.9512
11164TIP3    H254908   5.438   3.623   4.304 -0.2694 -0.7594  1.5565
11165TIP3   OH254909   3.740   5.209   5.180 -0.1691 -0.1492 -0.2266
11165TIP3    H154910   3.729   5.251   5.265 -0.4112 -0.1435 -0.2603
11165TIP3    H254911   3.834   5.216   5.162 -0.4099  1.9410 -1.0194
11166TIP3   OH254912   5.731   2.434  14.456  0.3951 -0.0077  0.1739
11166TIP3    H154913   5.664   2.428  14.388  0.2988  0.0104  0.2655
11166TIP3    H254914   5.814   2.432  14.409  0.3499 -0.9090  0.1174
11167TIP3   OH254915   3.818   5.302   6.018 -0.1183  0.0197 -0.3270
11167TIP3    H154916   3.837   5.384   5.974 -1.1463  1.0722  1.1003
11167TIP3    H254917   3.723   5.298   6.022 -0.0764 -0.1951  1.4227
11168TIP3   OH254918   4.941   2.982  13.634  0.6101  0.1077  0.1165
11168TIP3    H154919   4.990   2.972  13.552 -0.8223 -1.4003 -0.6389
11168TIP3    H254920   4.955   3.073  13.660  1.4641  0.5006 -1.5756
11169TIP3   OH254921   3.404   3.626   2.784 -0.3736 -0.2320  0.3893
11169TIP3    H154922   3.331   3.658   2.731 -0.5791 -1.1023  0.1315
11169TIP3    H254923   3.481   3.672   2.749 -0.8985  1.4748  1.3339
11170TIP3   OH254924   3.384   1.475  16.056  0.4152 -0.1762  0.5944
11170TIP3    H154925   3.426   1.440  15.978 -0.1265 -0.6453  0.5087
11170TIP3    H254926   3.441   1.547  16.084  0.0239  0.7567 -0.8913
11171TIP3   OH254927   1.878   3.966  14.637 -0.0172 -0.2755  0.8370
11171TIP3    H154928   1.802   3.911  14.655 -2.2845  1.7508 -1.7263
11171TIP3    H254929   1.900   4.006  14.720 -3.2847  0.8299  1.2938
11172TIP3   OH254930   3.643   5.240  15.666  0.0733  0.3250 -0.2406
11172TIP3    H154931   3.598   5.159  15.692 -0.4601  0.2635 -1.2791
11172TIP3    H254932   3.578   5.309  15.680 -0.5322  0.1918 -2.0986
11173TIP3   OH254933   5.621   1.813  11.310 -0.0829 -0.0854  0.3443
11173TIP3    H154934   5.674   1.872  11.364 -1.7540  1.2034  0.6521
11173TIP3    H254935   5.556   1.776  11.371 -1.0036  0.1717 -0.4577
11174TIP3   OH254936   1.305   3.161  14.317  0.6001 -0.3282 -0.7642
11174TIP3    H154937   1.381   3.213  14.292  1.1311 -1.4620 -1.6429
11174TIP3    H254938   1.325   3.073  14.284 -0.0609 -1.2019  1.0199
11175TIP3   OH254939   3.886   5.596  12.758  0.1739  1.0372 -0.6453
11175TIP3    H154940   3.814   5.648  12.795 -0.5703  1.3277 -2.3969
11175TIP3    H254941   3.883   5.615  12.664  0.9011 -0.9454 -1.1138
11176TIP3   OH254942   1.575   0.664   4.770 -0.2845 -0.0220  0.2082
11176TIP3    H154943   1.493   0.688   4.727 -0.9348  1.6097  2.1694
11176TIP3    H254944   1.604   0.745   4.811  2.5076 -0.4936 -0.6618
11177TIP3   OH254945   6.316   1.490  15.809  0.2015  0.4807 -0.0693
11177TIP3    H154946   6.303   1.410  15.758 -1.1815  0.6160  0.0481
11177TIP3    H254947   6.410   1.489  15.831  0.0295 -1.7063  0.8816
11178TIP3   OH254948   3.684   0.894  16.265  0.4060  0.0454 -0.3398
11178TIP3    H154949   3.677   0.847  16.348  1.0968 -3.0223 -1.8511
11178TIP3    H254950   3.594   0.917  16.243  0.3567  2.6287  2.0234
11179TIP3   OH254951   6.410   1.322   5.097 -0.5441 -0.3517  0.1026
11179TIP3    H154952   6.360   1.254   5.142 -0.6501 -0.2286  0.1723
11179TIP3    H254953   6.364   1.403   5.119  0.4383 -0.0847  1.2094
11180TIP3   OH254954   3.492   3.084  11.660 -0.7563  0.6331  0.0975
11180TIP3    H154955   3.467   3.007  11.711 -0.5988  0.1892 -0.4803
11180TIP3    H254956   3.409   3.123  11.633 -0.8632  1.6352  1.7940
11181TIP3   OH254957   1.887   4.109  17.241  0.1365  0.1567 -0.2155
11181TIP3    H154958   1.952   4.049  17.204 -0.3226 -0.4835 -0.0226
11181TIP3    H254959   1.937   4.172  17.292  0.5280 -1.1384  1.0610
11182TIP3   OH254960   5.844   1.002   2.223 -0.3326  0.2105  0.4061
11182TIP3    H154961   5.857   1.097   2.223  0.3432  0.1285  0.5003
11182TIP3    H254962   5.872   0.975   2.311  1.6106 -0.3214 -0.3259
11183TIP3   OH254963   6.013   4.676  12.199  0.1455 -0.2169 -0.4920
11183TIP3    H154964   5.996   4.765  12.170  0.0921 -0.0513  0.0458
11183TIP3    H254965   5.926   4.638  12.214  0.1736  0.3180  1.3016
11184TIP3   OH254966   2.761   1.673  17.272 -0.7038  0.0375 -0.4515
11184TIP3    H154967   2.770   1.720  17.189 -0.2455 -0.2157 -0.5536
11184TIP3    H254968   2.678   1.703  17.308 -0.0811  1.4771 -0.1505
11185TIP3   OH254969   3.873   1.170   5.828  0.2895 -0.3032  0.0228
11185TIP3    H154970   3.852   1.172   5.735 -0.7659 -0.0187  0.2486
11185TIP3    H254971   3.895   1.261   5.849 -0.5779 -0.1396  0.2728
11186TIP3   OH254972   4.014   6.738  12.510  0.3433 -0.1364 -0.4175
11186TIP3    H154973   4.031   6.645  12.497  0.4224 -0.3689  1.2087
11186TIP3    H254974   3.946   6.741  12.577 -0.2820  0.9759 -1.0720
11187TIP3   OH254975   1.417   0.266  11.509  0.4135 -0.2593  0.1546
11187TIP3    H154976   1.412   0.336  11.574  0.0509 -0.3817  0.2663
11187TIP3    H254977   1.413   0.310  11.425 -1.1302 -0.2036  0.2154
11188TIP3   OH254978   3.614   5.096   1.823  0.7847  0.4646  0.2593
11188TIP3    H154979   3.564   5.097   1.741  1.0326  1.6395  0.0942
11188TIP3    H254980   3.685   5.034   1.807 -0.7006 -1.4027  0.5808
11189TIP3   OH254981   5.880   0.704  15.091  0.5999 -0.4433 -0.4858
11189TIP3    H154982   5.845   0.791  15.111  0.9712 -0.9567  3.1123
11189TIP3    H254983   5.803   0.649  15.080  0.3686  0.1022 -1.8290
11190TIP3   OH254984   3.223   5.186   0.753 -0.3523 -1.0063 -0.1290
11190TIP3    H154985   3.132   5.176   0.781 -0.1123 -1.6631  0.4403
11190TIP3    H254986   3.220   5.176   0.658 -0.9905 -0.1475 -0.2051
11191TIP3   OH254987   4.103   0.315  16.706 -0.2542  0.3748 -0.1182
11191TIP3    H154988   4.044   0.365  16.649 -1.5028  1.4264  1.9665
11191TIP3    H254989   4.063   0.322  16.793  1.7694 -0.8307  0.9718
11192TIP3   OH254990   3.506   3.771  17.045  0.3934  0.0526  0.1594
11192TIP3    H154991   3.459   3.781  16.963  2.9552 -0.1116 -1.4230
11192TIP3    H254992   3.524   3.861  17.073  1.8032  0.1287 -0.9017
11193TIP3   OH254993   1.246   2.646  15.066 -0.2808 -0.6788 -0.1947
11193TIP3    H154994   1.154   2.626  15.084  0.1081 -2.3690  0.0968
11193TIP3    H254995   1.284   2.661  15.152 -0.8486  3.1696 -0.4293
11194TIP3   OH254996   6.296   5.519   3.605 -0.0577 -0.1623 -0.0534
11194TIP3    H154997   6.367   5.473   3.561 -0.5623 -3.1894  1.9434
11194TIP3    H254998   6.316   5.510   3.698 -1.3500  1.9042  0.4948
11195TIP3   OH254999   2.663   3.875  12.213  0.1945 -0.6505 -0.1259
11195TIP3    H155000   2.720   3.947  12.241 -0.5580  0.4443 -1.3119
11195TIP3    H255001   2.709   3.796  12.242  1.4641  0.2660  0.4584
11196TIP3   OH255002   1.430   3.910  14.873  0.1053  0.0838  0.2504
11196TIP3    H155003   1.351   3.941  14.829  0.2118  0.8809  0.6064
11196TIP3    H255004   1.465   3.987  14.917  1.9903  0.1374 -1.2256
11197TIP3   OH255005   1.505   5.504   3.474 -0.0601  0.0146 -0.5959
11197TIP3    H155006   1.541   5.575   3.528  0.7801 -1.0734  0.3379
11197TIP3    H255007   1.578   5.480   3.416 -0.4009  0.0415 -1.0354
11198TIP3   OH255008   3.114   5.729  12.013 -0.4655 -0.3342  0.0614
11198TIP3    H155009   3.078   5.662  11.955 -0.5836 -2.1427  2.1081
11198TIP3    H255010   3.037   5.775  12.047 -0.5095 -0.3879  0.0357
11199TIP3   OH255011   5.528   5.445  15.887  0.2566  0.3404 -0.4968
11199TIP3    H155012   5.469   5.377  15.855  0.1094  0.3431 -0.2311
11199TIP3    H255013   5.479   5.490  15.956  0.3191  0.7734 -0.7260
11200TIP3   OH255014   1.295   1.055  16.752  0.2410  0.1316  0.0169
11200TIP3    H155015   1.203   1.034  16.767 -0.5009  1.7166 -1.8859
11200TIP3    H255016   1.330   0.980  16.704  0.0743 -0.6474  1.0821
11201TIP3   OH255017   3.881   4.267  12.198 -0.0842  0.7441  0.4618
11201TIP3    H155018   3.837   4.331  12.254 -1.6243  1.7272 -1.7261
11201TIP3    H255019   3.810   4.222  12.152  0.9316 -2.6489  1.8721
11202TIP3   OH255020   1.314   2.294  12.083  0.0280 -0.3976  0.2887
11202TIP3    H155021   1.358   2.344  12.015  0.2449  0.0969  0.7783
11202TIP3    H255022   1.313   2.353  12.159 -1.2148 -0.5118  0.3846
11203TIP3   OH255023   2.418   0.346  15.647  0.3304  0.1684 -0.1452
11203TIP3    H155024   2.503   0.372  15.611  0.1268 -0.0981 -0.8273
11203TIP3    H255025   2.356   0.361  15.576  0.1755 -1.9721 -0.5297
11204TIP3   OH255026   0.901   4.489   1.739 -0.0661  0.2995 -0.0577
11204TIP3    H155027   0.900   4.486   1.835  3.2329 -1.5782  0.0432
11204TIP3    H255028   0.909   4.582   1.719  0.6793  0.6216  1.5528
11205TIP3   OH255029   5.477   1.844   1.137 -0.0733  0.1928  0.3975
11205TIP3    H155030   5.509   1.889   1.216  2.2532 -0.1175 -0.2755
11205TIP3    H255031   5.489   1.908   1.067  0.4060 -0.4258 -0.0998
11206TIP3   OH255032   6.508   2.638  15.739 -0.3551  0.0176  0.3334
11206TIP3    H155033   6.521   2.706  15.806 -1.4549  0.1139  0.4640
11206TIP3    H255034   6.571   2.660  15.670  0.7143 -0.0166  1.2801
11207TIP3   OH255035   5.180   6.282  14.749 -0.7761  0.9155  0.0756
11207TIP3    H155036   5.232   6.235  14.684 -0.2602  0.3104  0.9091
11207TIP3    H255037   5.096   6.298  14.706 -1.3373 -1.6329  0.0863
11208TIP3   OH255038   1.690   3.382  11.828 -0.1354 -0.1205  0.4192
11208TIP3    H155039   1.712   3.467  11.790  0.9151 -1.0287 -1.0832
11208TIP3    H255040   1.774   3.339  11.844 -0.5818 -0.3529  2.5540
11209TIP3   OH255041   4.128   2.060   3.069 -0.4333  0.2493  0.0809
11209TIP3    H155042   4.139   1.967   3.047  0.7407  0.6757 -1.3433
11209TIP3    H255043   4.042   2.083   3.033 -0.8976 -0.3530  0.7712
11210TIP3   OH255044   5.078   2.599   0.509  0.5534  0.5448  0.1656
11210TIP3    H155045   5.084   2.694   0.497 -0.2029  0.7628  1.3478
11210TIP3    H255046   5.109   2.562   0.426  4.0062  1.7227  0.7817
11211TIP3   OH255047   0.603   2.099  15.511 -0.8255  0.7853  0.2797
11211TIP3    H155048   0.573   2.011  15.488  1.3422  0.3001 -0.9896
11211TIP3    H255049   0.582   2.108  15.604  1.7835 -2.4427  1.3838
11212TIP3   OH255050   0.795   1.097   5.119  0.5675 -0.2262 -0.2521
11212TIP3    H155051   0.850   1.171   5.094  0.8342 -0.0075  0.9347
11212TIP3    H255052   0.858   1.027   5.139  0.3550 -0.4355 -0.3106
11213TIP3   OH255053   3.434   4.401   2.745 -0.1273  0.6424  0.0401
11213TIP3    H155054   3.477   4.421   2.662 -0.5059 -0.6539 -0.4931
11213TIP3    H255055   3.505   4.402   2.809  0.3595  0.5016 -0.4883
11214TIP3   OH255056   1.704   6.289  11.397 -0.0995  0.3483  0.2310
11214TIP3    H155057   1.746   6.363  11.354 -1.9590  1.0104 -0.5783
11214TIP3    H255058   1.683   6.320  11.485  0.0162  0.4442  0.2233
11215TIP3   OH255059   6.392   1.858  16.501 -0.0288 -0.4888  0.0972
11215TIP3    H155060   6.322   1.914  16.468  0.2836  0.1522  0.4935
11215TIP3    H255061   6.423   1.903  16.580  1.2827 -0.3918 -0.4422
11216TIP3   OH255062   2.232   6.041   1.545 -0.1166  0.2095  0.1213
11216TIP3    H155063   2.292   6.110   1.575  0.0515 -0.2109  0.7820
11216TIP3    H255064   2.187   6.012   1.625  1.0961 -1.6787  0.1829
11217TIP3   OH255065   6.202   3.273   4.436  0.4304  0.5447  0.5825
11217TIP3    H155066   6.236   3.244   4.351 -1.0886 -0.7277  0.3421
11217TIP3    H255067   6.128   3.329   4.414  0.5993  0.9603  1.0681
11218TIP3   OH255068   2.162   0.219   1.627  0.0951 -0.5064  0.4920
11218TIP3    H155069   2.215   0.173   1.562 -0.8566 -1.2704  0.2212
11218TIP3    H255070   2.165   0.310   1.599 -1.3847 -0.9752 -1.4963
11219TIP3   OH255071   3.988   4.112  11.779 -0.1342 -0.5082  0.1703
11219TIP3    H155072   3.946   4.029  11.756  1.7368 -1.4199 -0.1394
11219TIP3    H255073   3.923   4.158  11.831 -0.6289 -2.9394  1.9155
11220TIP3   OH255074   3.064   0.821   3.475  0.1183  0.1435  0.4831
11220TIP3    H155075   3.105   0.875   3.407  1.1103 -1.6644 -0.4301
11220TIP3    H255076   3.104   0.850   3.557  0.4377  0.9558  0.0520
11221TIP3   OH255077   4.126   0.141  12.308 -0.2593 -0.3014  0.5005
11221TIP3    H155078   4.085   0.095  12.382 -0.9787  0.1432  0.3908
11221TIP3    H255079   4.054   0.156  12.247  0.2208 -0.1466 -0.0315
11222TIP3   OH255080   5.982   4.618   3.371  0.3189  0.4743 -0.2335
11222TIP3    H155081   5.988   4.712   3.387  0.2240  0.3540  0.5228
11222TIP3    H255082   5.889   4.598   3.377  0.4429  0.1462  0.7045
11223TIP3   OH255083   2.354   0.355   4.478  0.0550 -0.1471  0.0838
11223TIP3    H155084   2.377   0.293   4.547 -0.1486 -1.0116 -0.6089
11223TIP3    H255085   2.261   0.374   4.492  0.3757  0.9211  0.9844
11224TIP3   OH255086   3.157   4.931   3.246  0.3752 -0.2737  0.0346
11224TIP3    H155087   3.072   4.945   3.205  0.8832  3.9794  0.0167
11224TIP3    H255088   3.216   4.911   3.173  0.0104  0.2784 -0.4192
11225TIP3   OH255089   3.159   0.719  12.261  0.0713  0.2986  0.6795
11225TIP3    H155090   3.222   0.728  12.190 -0.7727 -0.7837 -0.2502
11225TIP3    H255091   3.075   0.704  12.216 -0.4744 -0.4318  1.9029
11226TIP3   OH255092   6.514   1.233  16.620 -0.4768 -0.2508 -0.2411
11226TIP3    H155093   6.454   1.189  16.680  1.4940 -0.7349  1.5459
11226TIP3    H255094   6.488   1.325  16.622 -1.7162 -0.5956 -0.2483
11227TIP3   OH255095   0.452   5.946   4.660 -0.2808 -0.6863 -0.3931
11227TIP3    H155096   0.545   5.946   4.635 -0.2821  0.6389 -0.4676
11227TIP3    H255097   0.407   5.985   4.585 -0.5108  1.5628  0.8184
11228TIP3   OH255098   2.694   6.141   2.876  0.3668 -0.0656  0.1296
11228TIP3    H155099   2.674   6.181   2.961 -0.4095 -0.3711  0.1069
11228TIP3    H255100   2.696   6.047   2.893  0.5996 -0.1059 -0.1125
11229TIP3   OH255101   5.119   3.542   1.374 -0.3531 -0.2246  0.2148
11229TIP3    H155102   5.066   3.470   1.410 -1.4054  0.5304  0.2137
11229TIP3    H255103   5.189   3.554   1.437 -0.4181 -0.9536  0.4405
11230TIP3   OH255104   0.587   3.352  11.643  0.0737 -0.1294 -0.1229
11230TIP3    H155105   0.520   3.384  11.582 -0.2023 -0.8572 -0.2109
11230TIP3    H255106   0.655   3.419  11.642 -0.6092  0.5717 -0.1177
11231TIP3   OH255107   5.961   4.234   6.084  0.4896 -0.0692 -0.7607
11231TIP3    H155108   5.971   4.167   6.151 -0.6430  0.8597  0.3693
11231TIP3    H255109   5.989   4.315   6.126 -0.3171  0.5434 -1.3755
11232TIP3   OH255110   5.640   4.230   4.788  0.3109 -0.4333 -0.5132
11232TIP3    H155111   5.635   4.321   4.760  2.0889  0.3237  1.3776
11232TIP3    H255112   5.731   4.205   4.772  0.1215 -1.5252  0.0057
11233TIP3   OH255113   4.551   0.725   3.289 -0.1305 -0.0573  1.0372
11233TIP3    H155114   4.492   0.666   3.335 -2.1023  0.6688 -0.4465
11233TIP3    H255115   4.502   0.807   3.280  1.7243  1.1496  1.1557
11234TIP3   OH255116   0.952   1.283   0.941  0.4923 -0.2077  0.1325
11234TIP3    H155117   1.038   1.323   0.929 -0.0732  0.6497 -1.3620
11234TIP3    H255118   0.965   1.191   0.918  0.9070  0.0278 -0.6178
11235TIP3   OH255119   5.851   2.648   1.024  0.4639  0.0741  0.1586
11235TIP3    H155120   5.865   2.604   0.940 -0.6074 -0.3593  0.1962
11235TIP3    H255121   5.756   2.648   1.036  0.6150 -0.1494  1.5165
11236TIP3   OH255122   1.759   2.013  15.172  0.2186 -1.0035 -0.0632
11236TIP3    H155123   1.737   1.930  15.131 -1.2594  0.0529 -1.5529
11236TIP3    H255124   1.674   2.050  15.198  0.9412 -0.5140  1.7830
11237TIP3   OH255125   3.329   0.177   1.640 -0.2046  0.3494 -0.0514
11237TIP3    H155126   3.279   0.259   1.638  1.1721  1.2730  1.0847
11237TIP3    H255127   3.398   0.189   1.574  0.3482  0.3593  0.5166
11238TIP3   OH255128   1.736   0.797  14.669 -0.1265 -0.1036  0.0523
11238TIP3    H155129   1.691   0.728  14.621 -0.6540  1.0221 -1.1372
11238TIP3    H255130   1.675   0.822  14.738 -1.7847  1.9337 -2.0022
11239TIP3   OH255131   2.327   3.554  11.174 -0.2551  0.3635 -0.0033
11239TIP3    H155132   2.380   3.627  11.142 -0.9169  0.2649 -1.4426
11239TIP3    H255133   2.237   3.586  11.166 -0.5405 -0.5290 -0.4583
11240TIP3   OH255134   2.044   2.190  12.435 -0.3303 -0.1407  0.3377
11240TIP3    H155135   2.079   2.276  12.412 -2.4126  0.2806 -1.6321
11240TIP3    H255136   1.959   2.210  12.475  0.2109 -1.2429  2.1714
11241TIP3   OH255137   0.437   2.187   5.173  0.1925  0.2389  0.1480
11241TIP3    H155138   0.425   2.102   5.216  0.7173  0.8108  1.4984
11241TIP3    H255139   0.461   2.246   5.245 -0.9015  1.6967 -0.6436
11242TIP3   OH255140   3.061   1.882  10.523 -0.1179  0.2812  0.8491
11242TIP3    H155141   3.036   1.917  10.437  1.3868  0.2152  0.3627
11242TIP3    H255142   3.021   1.943  10.585  0.5067  1.5428  0.0605
11243TIP3   OH255143   4.254   5.815  10.929  0.0445  0.8028 -0.2473
11243TIP3    H155144   4.164   5.817  10.899  0.0264  0.1295 -0.2403
11243TIP3    H255145   4.290   5.734  10.894  0.4667  0.7613  0.2660
11244TIP3   OH255146   0.443   1.753  13.788  0.0688  0.1151  0.0650
11244TIP3    H155147   0.472   1.765  13.697 -2.0732 -1.6831 -0.9318
11244TIP3    H255148   0.454   1.660  13.805 -1.6871  0.0281  0.8612
11245TIP3   OH255149   1.765   5.394  16.388  0.6013  0.7285  0.1245
11245TIP3    H155150   1.804   5.315  16.426 -2.0539 -2.1805 -2.6058
11245TIP3    H255151   1.713   5.432  16.459  0.4391 -1.0720  1.0181
11246TIP3   OH255152   3.427   4.537  14.642  0.6122  0.7092  0.1445
11246TIP3    H155153   3.466   4.484  14.572 -0.6014 -0.2236  0.1309
11246TIP3    H255154   3.334   4.513  14.641  0.7093 -0.0647  2.7051
11247TIP3   OH255155   6.724   4.098   0.902  0.4209 -0.3348  0.4056
11247TIP3    H155156   6.744   4.172   0.960 -0.3934  1.2955 -1.2619
11247TIP3    H255157   6.707   4.025   0.961 -0.1028  1.1630  2.2103
11248TIP3   OH255158   6.375   6.316  13.532  0.3983 -0.0597 -0.1926
11248TIP3    H155159   6.387   6.289  13.623 -0.0652  0.0096 -0.1096
11248TIP3    H255160   6.436   6.388  13.520 -1.2032  1.5443  0.7792
11249TIP3   OH255161   2.043   1.511  12.723 -0.1045 -0.0700  0.2484
11249TIP3    H155162   2.112   1.472  12.776  0.5858  0.7922 -0.0063
11249TIP3    H255163   1.979   1.440  12.711  1.3341 -1.2739 -0.5653
11250TIP3   OH255164   0.269   1.713  15.855  0.1077  0.0772  0.0976
11250TIP3    H155165   0.268   1.624  15.892  0.9298 -0.3826 -0.9416
11250TIP3    H255166   0.212   1.707  15.778 -0.9949  0.8423  0.8184
11251TIP3   OH255167   3.688   5.680   4.245  0.2730 -0.3922  0.0370
11251TIP3    H155168   3.671   5.587   4.235  4.5279 -1.2736 -0.6857
11251TIP3    H255169   3.678   5.697   4.339  0.4301 -1.8081  0.3223
11252TIP3   OH255170   1.801   2.095   1.506 -0.3407 -0.2819 -0.0230
11252TIP3    H155171   1.795   2.111   1.600 -0.5863 -0.2911 -0.0362
11252TIP3    H255172   1.871   2.152   1.476 -0.7681  0.2895  0.0365
11253TIP3   OH255173   4.869   0.926  16.507  0.4364  1.1529 -0.0031
11253TIP3    H155174   4.820   0.850  16.538 -0.3942  1.7296  0.1239
11253TIP3    H255175   4.838   0.940  16.418  0.2415  1.6244  0.1366
11254TIP3   OH255176   4.984   3.261  16.046  0.1528  0.6406  0.4653
11254TIP3    H155177   4.913   3.238  16.106  0.3192  0.0312  0.4334
11254TIP3    H255178   5.012   3.349  16.074  1.6106 -0.4306  2.6062
11255TIP3   OH255179   2.105   3.364  17.064  0.1337 -0.1703 -0.3982
11255TIP3    H155180   2.095   3.454  17.096 -1.3461  0.1040 -1.5232
11255TIP3    H255181   2.023   3.346  17.018  0.4394 -2.0797 -0.2669
11256TIP3   OH255182   3.193   4.845  11.398  0.1256  0.5425 -0.4240
11256TIP3    H155183   3.243   4.797  11.332  0.6702 -0.7025  0.8345
11256TIP3    H255184   3.236   4.930  11.403  0.4272  0.4476 -1.2629
11257TIP3   OH255185   0.976   2.877  13.529  0.6415  0.0613 -0.3631
11257TIP3    H155186   0.893   2.892  13.484 -0.6519  2.2503  2.4189
11257TIP3    H255187   0.967   2.789  13.568 -0.3100  0.2021 -0.2520
11258TIP3   OH255188   4.335   4.473   3.113  0.3129  0.0106 -0.3732
11258TIP3    H155189   4.425   4.466   3.144 -0.1882  0.3857  1.2790
11258TIP3    H255190   4.340   4.453   3.020  1.7702 -2.2592  0.1034
11259TIP3   OH255191   0.393   0.774  14.351  0.3601  0.8329 -0.4569
11259TIP3    H155192   0.304   0.741  14.358  0.9859 -0.9900 -0.5302
11259TIP3    H255193   0.406   0.826  14.430 -0.2084 -0.3622  0.4466
11260TIP3   OH255194   1.517   6.331   2.074 -0.6075  0.3176  0.0392
11260TIP3    H155195   1.589   6.370   2.123  1.2576 -1.6284 -0.9821
11260TIP3    H255196   1.524   6.367   1.986 -1.3645  0.6797  0.1185
11261TIP3   OH255197   2.795   0.002  15.907  0.5648  0.1448 -0.0889
11261TIP3    H155198   2.879   0.021  15.865 -0.1502  1.0366 -1.1437
11261TIP3    H255199   2.745   0.083  15.899 -1.0022 -0.8572 -0.9408
11262TIP3   OH255200   0.550   4.049  11.832  0.5934 -0.2101  0.1677
11262TIP3    H155201   0.505   4.050  11.747 -1.7297  1.4681  1.3256
11262TIP3    H255202   0.480   4.054  11.896  2.3875  2.1047  2.1157
11263TIP3   OH255203   5.656   6.279   2.652  0.3559  0.7378  0.0107
11263TIP3    H155204   5.598   6.205   2.635  0.0078  1.2196 -1.0365
11263TIP3    H255205   5.738   6.256   2.608 -0.6015  2.0618 -2.7015
11264TIP3   OH255206   4.289   1.417  11.365  0.4997  0.0673  0.3739
11264TIP3    H155207   4.251   1.448  11.283  1.2127  0.1478  0.0682
11264TIP3    H255208   4.299   1.323  11.352 -1.7613 -0.3781  1.3389
11265TIP3   OH255209   1.366   1.268   6.024 -0.1700 -0.7001  0.3954
11265TIP3    H155210   1.330   1.249   6.110 -0.0625 -0.5398  0.4766
11265TIP3    H255211   1.301   1.235   5.962 -0.4491 -0.4213  0.5397
11266TIP3   OH255212   2.809   2.184  14.216 -0.1291  0.5499  0.2930
11266TIP3    H155213   2.843   2.185  14.305 -0.5825 -0.9722  0.5140
11266TIP3    H255214   2.886   2.198  14.161  0.9689 -2.7878  0.7809
11267TIP3   OH255215   6.561   0.399  14.562 -0.0966 -0.4030 -0.0845
11267TIP3    H155216   6.470   0.408  14.590  0.9236  1.1170  3.2218
11267TIP3    H255217   6.582   0.307  14.575 -0.5137 -0.2934  1.6092
11268TIP3   OH255218   6.224   4.531  10.834  0.5650  0.1267  0.3700
11268TIP3    H155219   6.282   4.468  10.793  0.1349 -0.4111  0.5657
11268TIP3    H255220   6.282   4.594  10.876  1.0359  1.2507 -1.8325
11269TIP3   OH255221   4.292   5.892   4.795  0.0135 -0.5647  0.0091
11269TIP3    H155222   4.218   5.831   4.800  0.5247 -1.1077  1.2061
11269TIP3    H255223   4.369   5.837   4.806  0.5449  0.1606 -0.0469
11270TIP3   OH255224   4.362   0.437  16.729 -0.2024 -0.4012 -0.7250
11270TIP3    H155225   4.325   0.525  16.738  0.3604  0.1228 -2.8993
11270TIP3    H255226   4.286   0.380  16.718 -0.5199  0.0666 -1.0006
11271TIP3   OH255227   3.951   1.520  10.341 -0.4233 -0.6445  0.9124
11271TIP3    H155228   3.981   1.525  10.251 -1.2185 -0.6338  0.6396
11271TIP3    H255229   3.987   1.437  10.374  0.7257 -0.1612  0.9258
11272TIP3   OH255230   2.890   3.566   4.426  0.2491  0.3928  0.2465
11272TIP3    H155231   2.862   3.524   4.344 -2.1926  0.3546  1.0180
11272TIP3    H255232   2.905   3.493   4.486 -0.5455  0.4960  0.5767
11273TIP3   OH255233   1.837   6.375   0.396 -0.0761 -0.4002 -0.7999
11273TIP3    H155234   1.805   6.404   0.481 -0.8833 -0.6299 -1.0197
11273TIP3    H255235   1.782   6.420   0.332  1.2598  0.6722 -1.2520
11274TIP3   OH255236   4.362   0.963   2.790 -0.0519  0.5078 -0.9524
11274TIP3    H155237   4.270   0.982   2.771  0.2547  0.8771 -2.1663
11274TIP3    H255238   4.360   0.891   2.853 -1.1911  1.6472  0.3921
11275TIP3   OH255239   2.444   5.387   5.746 -0.6109 -0.0754 -0.0251
11275TIP3    H155240   2.363   5.417   5.788 -0.6697 -0.1400 -0.0941
11275TIP3    H255241   2.428   5.295   5.724 -0.4131 -0.1727  0.2282
11276TIP3   OH255242   5.642   6.415  16.575 -0.2230  0.5762  0.7643
11276TIP3    H155243   5.607   6.393  16.662  0.9092 -1.6588  0.7354
11276TIP3    H255244   5.648   6.331  16.530 -2.2074  1.7979 -2.1329
11277TIP3   OH255245   4.945   0.893   0.877 -0.1292  0.0409 -0.6245
11277TIP3    H155246   4.886   0.928   0.944  0.6317 -0.2127  0.1997
11277TIP3    H255247   5.030   0.887   0.921  0.1374 -1.1954 -1.2729
11278TIP3   OH255248   2.029   5.090  13.015  0.3613  0.8512  0.6460
11278TIP3    H155249   1.946   5.112  13.058 -0.1738 -0.3456  0.2582
11278TIP3    H255250   2.033   5.149  12.940 -1.0162 -0.2372 -0.3332
11279TIP3   OH255251   6.558   2.408   0.749 -0.4461  0.1851 -0.6479
11279TIP3    H155252   6.492   2.381   0.685 -1.9373  1.1521  0.4211
11279TIP3    H255253   6.588   2.493   0.717 -0.2060  0.0529 -0.7747
11280TIP3   OH255254   4.775   4.902   5.025  0.1825 -0.3399 -0.0539
11280TIP3    H155255   4.783   4.961   4.950  0.6321 -0.0573  0.2106
11280TIP3    H255256   4.793   4.815   4.989 -0.0355 -0.2626 -0.3569
11281TIP3   OH255257   3.067   3.190  14.408  1.3618  0.0123  0.3372
11281TIP3    H155258   2.976   3.212  14.388  1.4320 -0.4917 -0.5673
11281TIP3    H255259   3.099   3.144  14.331  1.7835 -1.6053  1.4145
11282TIP3   OH255260   5.776   6.370   3.707 -0.0791  0.1639  0.0532
11282TIP3    H155261   5.729   6.297   3.665 -1.0223  1.0058 -0.3944
11282TIP3    H255262   5.868   6.343   3.707 -0.2713 -0.5464 -1.1213
11283TIP3   OH255263   1.727   0.648  16.714 -0.2297  0.2678 -0.1728
11283TIP3    H155264   1.727   0.611  16.626  4.1768  0.3565 -0.3926
11283TIP3    H255265   1.659   0.599  16.761 -0.2560 -2.2688 -2.6401
11284TIP3   OH255266   6.227   0.754  12.167  0.0250  0.7167  0.6068
11284TIP3    H155267   6.183   0.670  12.185 -0.2817  0.8245  0.3837
11284TIP3    H255268   6.306   0.729  12.119  0.1833  0.5227  0.9615
11285TIP3   OH255269   5.851   2.952   3.720  0.2206  0.0491  0.3717
11285TIP3    H155270   5.878   3.028   3.772  0.5286 -0.2967  0.7236
11285TIP3    H255271   5.810   2.893   3.783  0.7667 -0.4575  0.2647
11286TIP3   OH255272   3.405   0.515  16.782 -0.1809  0.6325 -0.1201
11286TIP3    H155273   3.462   0.486  16.711 -0.0681  0.3336  0.0896
11286TIP3    H255274   3.448   0.592  16.818  0.2200  0.2667  0.1940
11287TIP3   OH255275   6.120   0.781   5.581  0.7212  0.2320 -0.0636
11287TIP3    H155276   6.140   0.857   5.636 -1.2927 -0.7587  2.2018
11287TIP3    H255277   6.193   0.721   5.596  1.1853  0.7741 -0.0828
11288TIP3   OH255278   4.690   4.565   1.616 -0.0801 -0.4242  0.0116
11288TIP3    H155279   4.725   4.639   1.665 -1.3013 -0.1234  0.4792
11288TIP3    H255280   4.697   4.491   1.677 -1.2400 -0.1312  0.5312
11289TIP3   OH255281   0.580   3.000   3.274  0.1580 -0.2002 -0.4209
11289TIP3    H155282   0.525   2.959   3.207  0.8511 -0.3884 -0.8774
11289TIP3    H255283   0.534   2.983   3.356 -1.4378  1.2358 -0.9560
11290TIP3   OH255284   0.788   1.293   1.240  0.4083  0.0528 -0.7068
11290TIP3    H155285   0.698   1.322   1.256  0.4901  0.1230 -0.3635
11290TIP3    H255286   0.814   1.339   1.161  0.1347  0.0153 -0.8220
11291TIP3   OH255287   2.936   2.482  11.774 -0.0146  0.2182 -0.3581
11291TIP3    H155288   3.027   2.454  11.769 -0.4792 -1.1528 -1.7266
11291TIP3    H255289   2.886   2.401  11.786 -1.1376  0.8363 -0.6707
11292TIP3   OH255290   4.148   3.476  11.910  0.1346 -0.1536  0.3224
11292TIP3    H155291   4.150   3.534  11.985 -0.5960  1.4457 -0.8306
11292TIP3    H255292   4.218   3.508  11.852 -1.8540  1.2320 -1.4406
11293TIP3   OH255293   6.131   0.098   3.746 -0.5610  0.0702 -0.2866
11293TIP3    H155294   6.118   0.014   3.788 -1.1041  0.2432 -0.0971
11293TIP3    H255295   6.223   0.118   3.759 -0.4036 -0.5443 -0.4326
11294TIP3   OH255296   5.703   2.157   4.159  0.4926 -0.2460  0.2688
11294TIP3    H155297   5.730   2.202   4.239 -0.7711 -1.1883  1.2747
11294TIP3    H255298   5.679   2.069   4.188  0.3230 -0.7189 -1.2104
11295TIP3   OH255299   5.678   5.483  13.461 -0.4725  0.2194  0.2063
11295TIP3    H155300   5.631   5.512  13.383 -2.0500 -1.8582  0.2865
11295TIP3    H255301   5.620   5.506  13.534 -0.0768  0.1039  0.5624
11296TIP3   OH255302   3.987   3.267  13.159 -0.2332 -0.3644 -0.9190
11296TIP3    H155303   3.898   3.233  13.150 -1.2059  1.6273  0.4629
11296TIP3    H255304   3.994   3.335  13.091  0.6273 -1.2109 -1.7031
11297TIP3   OH255305   3.352   1.805  15.303 -0.9418  0.6836 -0.0527
11297TIP3    H155306   3.430   1.822  15.249 -0.7166  0.5130  0.2143
11297TIP3    H255307   3.288   1.870  15.275 -0.9256  0.4159 -0.7216
11298TIP3   OH255308   4.835   0.603  12.991 -0.1925  0.4012  0.4512
11298TIP3    H155309   4.857   0.516  13.023 -0.2886  0.5298  0.8758
11298TIP3    H255310   4.801   0.649  13.068 -2.6173 -0.0036 -0.2734
11299TIP3   OH255311   3.780   6.121   5.267 -0.1787  0.5266  0.5950
11299TIP3    H155312   3.811   6.176   5.196  0.1939 -1.3176 -0.7380
11299TIP3    H255313   3.692   6.095   5.241 -1.0244  1.7661  2.0188
11300TIP3   OH255314   5.860   0.693  13.010  1.1609 -0.7311  0.4568
11300TIP3    H155315   5.882   0.750  13.084  0.5370  0.2976 -0.1288
11300TIP3    H255316   5.914   0.726  12.938 -0.3826  0.1983 -0.3234
11301TIP3   OH255317   5.923   4.249  16.737 -0.3534 -0.4178 -0.4234
11301TIP3    H155318   5.960   4.215  16.656  2.1153  0.3513  0.2877
11301TIP3    H255319   5.992   4.235  16.802 -1.3018  1.1641  0.9899
11302TIP3   OH255320   2.545   6.523  14.521 -0.3796  0.7000  0.3853
11302TIP3    H155321   2.598   6.476  14.586 -0.0910  1.5694  0.8020
11302TIP3    H255322   2.494   6.455  14.477  0.7709 -0.1067  0.2727
11303TIP3   OH255323   6.416   2.750  16.723 -0.2241  0.0768 -0.3030
11303TIP3    H155324   6.367   2.669  16.707  0.6266 -0.3336 -0.9343
11303TIP3    H255325   6.432   2.750  16.817  0.0584 -0.6675 -0.3439
11304TIP3   OH255326   2.276   1.431  14.545 -0.1341 -0.5362 -0.4681
11304TIP3    H155327   2.326   1.509  14.522 -0.2827 -0.7982 -1.7779
11304TIP3    H255328   2.191   1.445  14.502 -1.5694  0.3135  2.4328
11305TIP3   OH255329   2.209   2.451   5.114  0.2006  0.0932  1.0248
11305TIP3    H155330   2.172   2.527   5.159 -1.5592  0.0413 -0.2525
11305TIP3    H255331   2.256   2.488   5.039 -0.6238 -0.0725  0.4239
11306TIP3   OH255332   3.445   3.331   0.904  0.4663  0.1427 -0.6636
11306TIP3    H155333   3.537   3.345   0.882  0.2005  1.4869 -1.0073
11306TIP3    H255334   3.401   3.412   0.876 -0.4594  0.4638  1.5037
11307TIP3   OH255335   5.822   0.743  15.862  0.1691  0.3309 -0.5344
11307TIP3    H155336   5.727   0.730  15.862  0.2295 -0.2011  0.4387
11307TIP3    H255337   5.837   0.818  15.919  0.3672  0.0479 -0.2046
11308TIP3   OH255338   5.674   4.766  12.725  0.8924 -0.4130  0.0658
11308TIP3    H155339   5.678   4.802  12.636 -0.1686 -2.1851 -0.7636
11308TIP3    H255340   5.607   4.698  12.720  2.2034 -1.9120  1.7378
11309TIP3   OH255341   0.700   2.609   1.490 -0.0762  0.1162 -0.0820
11309TIP3    H155342   0.752   2.687   1.510  0.1261 -0.0319 -0.0267
11309TIP3    H255343   0.610   2.634   1.513  0.1775 -0.1246  1.2988
11310TIP3   OH255344   0.878   1.141  14.756 -0.2111  0.3268 -0.1839
11310TIP3    H155345   0.930   1.196  14.814  0.8352 -1.4324  0.6354
11310TIP3    H255346   0.943   1.097  14.701 -0.9681 -0.4950 -0.4403
11311TIP3   OH255347   0.245   4.307  15.690 -0.5822  0.4306  0.1233
11311TIP3    H155348   0.277   4.363  15.619  0.4851  0.3450  0.5101
11311TIP3    H255349   0.321   4.255  15.715 -0.6231  1.1944  2.0312
11312TIP3   OH255350   1.985   6.407  11.874  0.1435 -0.0827 -0.3430
11312TIP3    H155351   2.011   6.359  11.796 -0.1139 -1.8168  0.5936
11312TIP3    H255352   1.898   6.373  11.896 -0.1808  1.0310  0.1936
11313TIP3   OH255353   6.053   4.424   6.249 -0.4844 -0.1689 -0.3631
11313TIP3    H155354   6.024   4.358   6.312  2.5356  0.9150  2.4860
11313TIP3    H255355   6.028   4.508   6.289  0.6973  0.5320 -1.0180
11314TIP3   OH255356   2.757   2.774  14.352  0.0060  0.0685 -0.0474
11314TIP3    H155357   2.663   2.761  14.344  0.3944 -2.7989 -1.0423
11314TIP3    H255358   2.795   2.692  14.322  2.8253  0.7738  1.3096
11315TIP3   OH255359   2.249   0.051   1.383 -0.3939  0.1008  0.4362
11315TIP3    H155360   2.338   0.032   1.353 -0.2540 -1.7911  1.9170
11315TIP3    H255361   2.210  -0.035   1.400 -2.7882  0.8330 -0.8537
11316TIP3   OH255362   5.095   5.744   0.323 -0.1900  0.1282  0.6908
11316TIP3    H155363   5.189   5.724   0.326 -0.2445 -0.1781  0.4124
11316TIP3    H255364   5.074   5.749   0.230 -0.2442  1.2189  0.7460
11317TIP3   OH255365   4.442   4.303  13.227 -0.5038 -0.8285  0.4836
11317TIP3    H155366   4.421   4.281  13.136 -1.6771  1.2216  0.1940
11317TIP3    H255367   4.531   4.338  13.224 -0.9800  0.3773 -0.1111
11318TIP3   OH255368   6.022   5.583  16.220 -0.4047  0.7171 -0.7605
11318TIP3    H155369   6.105   5.553  16.256 -1.6063 -0.8625  0.8760
11318TIP3    H255370   6.019   5.545  16.132 -0.6246 -1.7410  0.2363
11319TIP3   OH255371   5.941   5.799  16.847  0.7322 -0.4375  0.5507
11319TIP3    H155372   6.020   5.777  16.797  1.3204  0.9171  0.8420
11319TIP3    H255373   5.958   5.764  16.935  1.6272  0.9789  0.9876
11320TIP3   OH255374   2.230   5.697  11.826 -0.0061 -0.1922  0.0350
11320TIP3    H155375   2.286   5.720  11.900  0.7431  1.4805 -0.9786
11320TIP3    H255376   2.290   5.656  11.763 -0.1094  0.6230 -0.6151
11321TIP3   OH255377   6.470   4.645  13.363 -0.0633 -0.1877 -0.5540
11321TIP3    H155378   6.552   4.595  13.358 -0.2124 -0.4217 -0.6857
11321TIP3    H255379   6.438   4.647  13.273 -0.1575 -0.0238 -0.5158
11322TIP3   OH255380   5.158   1.225  13.645 -0.2877 -0.6319 -0.0341
11322TIP3    H155381   5.178   1.302  13.699  0.1434 -1.1705  0.5970
11322TIP3    H255382   5.094   1.176  13.697 -0.1054 -0.9973 -0.1552
11323TIP3   OH255383   1.685   4.888   4.234  0.1695  0.1896  0.2553
11323TIP3    H155384   1.748   4.961   4.241  0.8103 -0.2079 -1.0148
11323TIP3    H255385   1.624   4.917   4.166  1.7175 -1.3137 -1.9000
11324TIP3   OH255386   5.825   1.221   1.111 -0.0666  0.3603  0.0141
11324TIP3    H155387   5.871   1.275   1.047 -0.0555  1.3132  0.8025
11324TIP3    H255388   5.793   1.283   1.176  3.0205 -0.7498  2.9422
11325TIP3   OH255389   6.514   5.677   5.499  0.8725  0.0899 -0.0489
11325TIP3    H155390   6.556   5.704   5.581  0.0468 -2.1977  1.2265
11325TIP3    H255391   6.428   5.718   5.501  0.2051 -1.2659  1.1297
11326TIP3   OH255392   6.377   3.011   3.938  0.1473 -0.0996 -0.0812
11326TIP3    H155393   6.332   3.007   4.023  1.8576  0.0345  0.8853
11326TIP3    H255394   6.338   2.940   3.887 -2.1425  0.8903  0.1535
11327TIP3   OH255395   1.038   1.555   1.629 -0.0333  0.0314 -0.6899
11327TIP3    H155396   1.078   1.491   1.571  0.6155  0.4144 -0.6760
11327TIP3    H255397   0.979   1.605   1.572 -1.0195 -0.9759 -0.5687
11328TIP3   OH255398   0.382   5.126  16.385  0.4040  0.0646 -0.3706
11328TIP3    H155399   0.330   5.139  16.306  1.0521  0.0609 -0.7959
11328TIP3    H255400   0.389   5.031  16.393  0.1556  0.0596 -0.1824
11329TIP3   OH255401   3.424   2.607  16.622 -0.0405 -0.1496  0.6795
11329TIP3    H155402   3.438   2.514  16.642 -1.1664  0.1842  3.5561
11329TIP3    H255403   3.427   2.650  16.708  0.2311  2.4554 -0.5537
11330TIP3   OH255404   3.501   2.605  14.178 -0.3740  0.1536 -0.0975
11330TIP3    H155405   3.415   2.611  14.222 -0.3273 -0.7219  0.1497
11330TIP3    H255406   3.555   2.555  14.240  0.2454  0.4993 -0.3585
11331TIP3   OH255407   5.573   2.500  13.895 -0.0580 -0.0773 -0.0532
11331TIP3    H155408   5.592   2.406  13.888  1.8633  0.2676 -0.1480
11331TIP3    H255409   5.629   2.541  13.829 -0.8562  1.1383 -0.0018
11332TIP3   OH255410   4.674   5.797   1.178  0.5717  0.7751 -0.1348
11332TIP3    H155411   4.653   5.751   1.096  0.8171 -0.2274  0.3496
11332TIP3    H255412   4.737   5.864   1.152  2.5525 -1.0868 -0.4495
11333TIP3   OH255413   0.426   0.572  13.126 -0.1326  0.0368 -0.2027
11333TIP3    H155414   0.482   0.508  13.169 -0.5309  0.3029  0.7416
11333TIP3    H255415   0.388   0.525  13.052  2.6369  0.3352 -1.9685
11334TIP3   OH255416   3.180   5.383   4.613 -0.4550  0.3251 -0.2541
11334TIP3    H155417   3.197   5.362   4.705  0.3826  1.3912 -0.1408
11334TIP3    H255418   3.093   5.347   4.595 -0.2415 -0.7053  0.6863
11335TIP3   OH255419   0.695   0.118   3.457 -0.2450  0.0338 -0.7968
11335TIP3    H155420   0.655   0.037   3.488 -0.6713  0.4422 -0.2488
11335TIP3    H255421   0.786   0.096   3.441 -0.5213 -0.7323 -1.3552
11336TIP3   OH255422   0.528   4.003  12.259 -0.3632  0.4125  0.0855
11336TIP3    H155423   0.621   4.024  12.266 -0.6997  1.5203  1.6130
11336TIP3    H255424   0.483   4.083  12.284 -1.7354 -0.2851 -0.0620
11337TIP3   OH255425   5.473   5.986  13.890  0.4135  0.3400 -0.4256
11337TIP3    H155426   5.564   5.983  13.863  1.1682  1.7466  1.7282
11337TIP3    H255427   5.476   5.978  13.985 -1.4906  2.7664 -0.0631
11338TIP3   OH255428   0.790   4.141   5.792  0.4033  0.4830 -0.8876
11338TIP3    H155429   0.801   4.163   5.699  1.4883 -1.7048 -1.3515
11338TIP3    H255430   0.868   4.176   5.835  0.4182  0.5613 -0.9776
11339TIP3   OH255431   4.242   2.713   2.715  0.4654 -0.0787 -0.3427
11339TIP3    H155432   4.197   2.655   2.776 -0.0065 -0.8430 -1.3887
11339TIP3    H255433   4.192   2.794   2.716 -0.2643 -0.5197 -0.6240
11340TIP3   OH255434   2.024   3.301  14.006 -0.2057  0.0193 -0.0122
11340TIP3    H155435   2.048   3.371  13.945  1.3503 -1.6517 -1.3965
11340TIP3    H255436   2.088   3.309  14.077  1.0914 -1.0250 -1.0210
11341TIP3   OH255437   5.018   1.342   3.060  0.4707 -0.3550 -0.2186
11341TIP3    H155438   4.930   1.380   3.066  0.5846 -0.3059  1.9870
11341TIP3    H255439   5.004   1.249   3.045  0.1331 -0.0178 -2.3168
11342TIP3   OH255440   4.654   2.034  17.016  0.4598 -0.2917  0.3885
11342TIP3    H155441   4.631   2.074  17.100 -0.5704 -0.5138  0.2146
11342TIP3    H255442   4.659   2.107  16.955  1.6972 -0.0643  0.7193
11343TIP3   OH255443   0.811   6.265   5.765  0.5057  0.0496 -0.7072
11343TIP3    H155444   0.836   6.319   5.690 -1.0942  1.0427 -0.5858
11343TIP3    H255445   0.738   6.312   5.804  2.2052  0.3875  2.3969
11344TIP3   OH255446   1.428   1.379   4.537  0.0851 -0.5460 -0.4273
11344TIP3    H155447   1.495   1.334   4.588  0.0440  0.5898  0.6732
11344TIP3    H255448   1.461   1.468   4.527  0.2541 -0.7864 -2.7262
11345TIP3   OH255449   5.858   2.003  11.643  0.0520 -0.2793 -0.1135
11345TIP3    H155450   5.851   2.086  11.691 -1.4261 -0.9559  0.9442
11345TIP3    H255451   5.844   2.026  11.551  0.3893  0.7272  0.0830
11346TIP3   OH255452   2.495   0.592  16.284  0.1355  0.4076  0.0622
11346TIP3    H155453   2.409   0.580  16.244  0.4448 -1.5039 -0.1019
11346TIP3    H255454   2.497   0.684  16.310 -0.9283  1.1669 -2.3297
11347TIP3   OH255455   1.505   1.051  13.930 -0.1230 -0.4918  0.0484
11347TIP3    H155456   1.569   0.981  13.944 -0.1394 -0.3590  0.8884
11347TIP3    H255457   1.440   1.014  13.871  1.0349 -0.4304 -1.3035
11348TIP3   OH255458   1.795   5.856  15.339 -0.2504  0.0547  0.5863
11348TIP3    H155459   1.756   5.812  15.263 -2.1334  2.2871  0.1301
11348TIP3    H255460   1.786   5.793  15.411  0.6743 -1.7302 -0.7803
11349TIP3   OH255461   3.385   3.088   0.706  0.4263  0.1807 -0.2793
11349TIP3    H155462   3.358   3.155   0.643 -0.8322  0.2291  0.2836
11349TIP3    H255463   3.407   3.137   0.785 -1.5127 -0.0951  0.4805
11350TIP3   OH255464   6.398   0.103   3.790 -0.2328  0.7105 -0.6070
11350TIP3    H155465   6.465   0.112   3.722  0.3771 -1.1381 -0.3290
11350TIP3    H255466   6.448   0.093   3.871 -0.9417  2.3672  0.0557
11351TIP3   OH255467   0.753   0.280  10.995 -0.3695  0.3055  0.4669
11351TIP3    H155468   0.825   0.222  10.972  0.5018  0.8726  1.6592
11351TIP3    H255469   0.689   0.222  11.037 -0.6162 -0.1936 -0.5607
11352TIP3   OH255470   0.228   3.210  11.577 -0.1500  0.0054  0.1855
11352TIP3    H155471   0.134   3.195  11.589  0.0254 -0.1927  1.4125
11352TIP3    H255472   0.268   3.177  11.657  1.0727 -0.8002 -0.7319
11353TIP3   OH255473   4.162   6.487  12.536  0.5083 -0.0517 -0.4111
11353TIP3    H155474   4.100   6.475  12.608  0.6804  1.3045 -0.0021
11353TIP3    H255475   4.146   6.412  12.478 -1.9293  0.5288 -0.6179
11354TIP3   OH255476   4.432   6.306  13.884 -0.1477  0.6006 -0.4680
11354TIP3    H155477   4.498   6.350  13.937  0.2950 -0.3970 -0.1754
11354TIP3    H255478   4.476   6.288  13.801 -0.8344  2.1476 -1.2092
11355TIP3   OH255479   2.560   3.707  15.151  0.4898  0.1807  0.5629
11355TIP3    H155480   2.628   3.771  15.173  0.9510 -0.0840 -0.0395
11355TIP3    H255481   2.512   3.692  15.233  0.0391  1.6763  0.5865
11356TIP3   OH255482   4.524   1.533   5.006  0.4424 -0.2899  0.3417
11356TIP3    H155483   4.618   1.535   5.026  0.2244  0.5414  1.3448
11356TIP3    H255484   4.508   1.443   4.979  1.7550 -0.1704 -1.0126
11357TIP3   OH255485   3.016   1.410   1.043 -0.2082  0.4629 -0.3867
11357TIP3    H155486   3.026   1.339   0.980  0.5819 -0.1519  0.4089
11357TIP3    H255487   2.921   1.417   1.058 -0.3864  0.4912 -1.4791
11358TIP3   OH255488   5.908   3.273   1.113  0.1603  0.1558 -0.2685
11358TIP3    H155489   5.874   3.241   1.196  0.6613  2.1282  0.7671
11358TIP3    H255490   5.986   3.221   1.097  0.2412 -0.0175  0.6699
11359TIP3   OH255491   6.432   3.655   5.436  0.3211 -0.1409  0.3748
11359TIP3    H155492   6.464   3.601   5.509  2.3300 -0.2173 -0.5117
11359TIP3    H255493   6.431   3.744   5.471  1.3183 -0.1724  0.4930
11360TIP3   OH255494   2.574   3.509  14.334  0.3757  0.5756 -0.0679
11360TIP3    H155495   2.547   3.471  14.250 -1.0009  0.4453  0.4229
11360TIP3    H255496   2.622   3.588  14.310  0.4508  0.2652 -0.9840
11361TIP3   OH255497   3.943   0.484   4.416 -0.4669 -0.7456 -0.6772
11361TIP3    H155498   4.034   0.455   4.409  0.5885  1.7729  1.0975
11361TIP3    H255499   3.922   0.477   4.509 -1.5317  0.2812 -0.8156
11362TIP3   OH255500   4.928   3.028   2.516  0.0367 -0.1794 -0.1911
11362TIP3    H155501   4.841   2.991   2.503  0.2403 -0.5236 -0.6002
11362TIP3    H255502   4.916   3.122   2.503 -0.0973 -0.3227 -1.2093
11363TIP3   OH255503   0.626   4.169   5.362 -0.0891 -0.3865 -0.0531
11363TIP3    H155504   0.586   4.225   5.295 -1.8738 -1.4135  0.0805
11363TIP3    H255505   0.654   4.230   5.430  0.9060  0.5906 -1.2714
11364TIP3   OH255506   0.584   2.856   5.672  0.1095 -0.2211 -0.1043
11364TIP3    H155507   0.651   2.787   5.674  1.4046  0.9999  0.3626
11364TIP3    H255508   0.553   2.856   5.582  0.3604 -1.1680 -0.2037
11365TIP3   OH255509   2.729   1.126  16.477 -0.4210  0.5424  0.0658
11365TIP3    H155510   2.728   1.109  16.571 -0.6626  0.5932  0.0728
11365TIP3    H255511   2.645   1.168  16.459 -0.4840  0.3021 -0.2140
11366TIP3   OH255512   1.372   6.230   4.869 -0.1130 -0.1215 -0.2238
11366TIP3    H155513   1.341   6.320   4.879 -1.3103 -0.5827  0.5367
11366TIP3    H255514   1.309   6.178   4.920 -1.5337 -1.7907 -3.4097
11367TIP3   OH255515   6.041   3.018  12.539 -0.3451 -0.0281  0.5118
11367TIP3    H155516   6.023   2.924  12.537 -1.4117  0.1152  1.9554
11367TIP3    H255517   6.111   3.030  12.475 -2.5443 -1.2390 -2.3340
11368TIP3   OH255518   4.998   6.631   4.199  0.2504 -0.1679  0.1866
11368TIP3    H155519   5.084   6.589   4.200  0.5439  0.4107 -0.3662
11368TIP3    H255520   4.957   6.602   4.118 -0.5988 -1.4423  1.0307
11369TIP3   OH255521   3.542   6.301  14.272 -0.5136  0.8816  0.1905
11369TIP3    H155522   3.576   6.386  14.300 -0.2785  0.4690  1.2138
11369TIP3    H255523   3.557   6.298  14.178  1.6717  0.9954  0.4980
11370TIP3   OH255524   1.450   6.490   3.044  0.0154 -0.1053  0.0600
11370TIP3    H155525   1.362   6.453   3.040  0.4132 -0.9935 -1.9389
11370TIP3    H255526   1.497   6.434   3.106 -0.6607  0.0628  0.7442
11371TIP3   OH255527   5.187   0.229  13.298  0.1049  0.0297  0.6525
11371TIP3    H155528   5.233   0.257  13.219 -1.6126  1.1578 -0.0051
11371TIP3    H255529   5.106   0.190  13.266  0.4721 -1.7766  1.7815
11372TIP3   OH255530   4.294   1.215  17.332  0.1908 -1.3494 -0.4564
11372TIP3    H155531   4.251   1.299  17.346  2.6692 -0.0373  0.0002
11372TIP3    H255532   4.304   1.209  17.237 -2.0631 -2.3279 -0.6887
11373TIP3   OH255533   5.114   0.204   1.950  0.0385 -0.5002  0.4938
11373TIP3    H155534   5.134   0.254   2.030 -0.9682 -0.9575  1.0414
11373TIP3    H255535   5.195   0.211   1.898  0.5746  0.1355  1.3659
11374TIP3   OH255536   6.736   4.587   4.675 -0.2044  0.5156 -0.0122
11374TIP3    H155537   6.828   4.579   4.699 -0.0842 -0.4904 -0.7743
11374TIP3    H255538   6.702   4.498   4.679 -1.2605  0.9278  0.6581
11375TIP3   OH255539   0.916   1.550  16.762 -0.8787  0.0744 -0.1412
11375TIP3    H155540   0.865   1.584  16.836  1.0123  2.4320  0.1806
11375TIP3    H255541   0.957   1.471  16.795 -0.9026  0.5201  0.9916
11376TIP3   OH255542   0.179   4.223  11.192 -0.6560  0.4833  0.8635
11376TIP3    H155543   0.134   4.217  11.108 -0.1731  0.1375  0.6225
11376TIP3    H255544   0.150   4.307  11.228  0.9446  1.8097 -0.7261
11377TIP3   OH255545   0.616   1.010   4.913 -0.1717 -0.1277  0.5910
11377TIP3    H155546   0.681   1.041   4.976  1.1392 -0.8897 -0.3395
11377TIP3    H255547   0.531   1.029   4.954  0.6139  1.5380  1.5304
11378TIP3   OH255548   4.094   2.397  12.555 -0.0002 -0.4497 -0.2266
11378TIP3    H155549   4.115   2.309  12.587  1.4282 -0.0666 -0.0262
11378TIP3    H255550   4.097   2.451  12.634  0.0244 -0.0780 -0.4844
11379TIP3   OH255551   1.213   1.909  13.078  0.6841  0.8146 -0.1919
11379TIP3    H155552   1.133   1.962  13.078  0.2847  0.2410 -1.1670
11379TIP3    H255553   1.195   1.840  13.143  0.9747  1.5222  0.6511
11380TIP3   OH255554   2.581   3.093  11.673  0.3739 -0.0904 -0.3022
11380TIP3    H155555   2.554   3.176  11.711 -1.4075 -0.3899 -0.8391
11380TIP3    H255556   2.499   3.045  11.659  1.2357 -1.2796 -1.5042
11381TIP3   OH255557   0.699   2.199  10.059  0.2834 -0.3792  0.5044
11381TIP3    H155558   0.783   2.161  10.087  0.3686  0.4142  1.3914
11381TIP3    H255559   0.663   2.239  10.138 -1.0026 -0.8075  0.1612
11382TIP3   OH255560   5.916   4.576   0.074 -0.1079  0.0848 -0.2391
11382TIP3    H155561   5.849   4.512   0.051 -0.0430  0.3090 -1.0924
11382TIP3    H255562   5.990   4.555   0.016  0.3880  0.1312  0.3643
11383TIP3   OH255563   5.791   5.087  13.877 -0.2657 -0.0102 -0.9185
11383TIP3    H155564   5.727   5.152  13.850  0.7194  0.6718 -1.6760
11383TIP3    H255565   5.740   5.023  13.927 -1.2794  1.2374 -0.2965
11384TIP3   OH255566   3.547   2.760  12.127 -0.0777 -0.4228  0.0143
11384TIP3    H155567   3.581   2.728  12.211  0.0820 -1.4010 -0.4084
11384TIP3    H255568   3.466   2.711  12.115  0.3035 -0.8725 -0.7704
11385TIP3   OH255569   5.475   1.686  15.852 -0.0350  0.0755 -0.3435
11385TIP3    H155570   5.426   1.653  15.927  0.0997  0.0935 -0.2468
11385TIP3    H255571   5.559   1.715  15.889  0.5278 -1.0752 -0.6935
11386TIP3   OH255572   4.155   4.291   0.795  0.2042 -0.4481 -0.5035
11386TIP3    H155573   4.073   4.325   0.758  0.4933 -0.8800 -1.5610
11386TIP3    H255574   4.219   4.360   0.779  0.2477 -0.4737 -0.4424
11387TIP3   OH255575   1.489   5.066  16.871 -0.2659  0.3478 -0.0507
11387TIP3    H155576   1.555   5.132  16.850 -0.3138  0.5360  0.3904
11387TIP3    H255577   1.529   4.983  16.846 -0.0622  0.5097 -0.2617
11388TIP3   OH255578   1.960   4.312   1.888  0.0561  0.0155  0.5781
11388TIP3    H155579   1.966   4.274   1.975 -1.7270  0.3109  0.8639
11388TIP3    H255580   2.019   4.388   1.890  0.5987 -0.4178  1.2683
11389TIP3   OH255581   5.345   1.254  16.531  0.5686 -0.2039 -0.3803
11389TIP3    H155582   5.381   1.221  16.614  0.6100  2.1780  0.6358
11389TIP3    H255583   5.410   1.230  16.465  1.6952 -0.1369  0.6687
11390TIP3   OH255584   3.658   4.357  16.543  0.4397 -0.8154  0.3350
11390TIP3    H155585   3.662   4.440  16.590  2.1554 -1.1981  0.9547
11390TIP3    H255586   3.718   4.367  16.469 -0.7931 -0.8800 -0.7245
11391TIP3   OH255587   2.988   6.267   5.576  0.1850  0.4060 -0.1879
11391TIP3    H155588   3.041   6.301   5.649  1.7808 -0.0439 -1.0837
11391TIP3    H255589   2.937   6.196   5.614  2.1289 -0.8443  0.2252
11392TIP3   OH255590   2.668   6.316   1.558  0.1943  0.4679  0.3573
11392TIP3    H155591   2.583   6.284   1.585 -0.5305  1.3364 -0.7551
11392TIP3    H255592   2.718   6.238   1.534 -0.5638  0.0019  0.2893
11393TIP3   OH255593   3.039   3.861  15.333  0.3396 -0.3134 -0.0971
11393TIP3    H155594   3.126   3.862  15.293 -0.2287  1.4070 -1.4284
11393TIP3    H255595   3.033   3.946  15.377 -0.3152 -0.8286  0.8418
11394TIP3   OH255596   2.644   0.541   4.497 -0.1410  0.0361  0.5842
11394TIP3    H155597   2.677   0.628   4.516 -2.2152  1.1135 -0.4161
11394TIP3    H255598   2.640   0.497   4.582  0.6103  1.0202  1.1431
11395TIP3   OH255599   6.372   3.855  16.762  0.0236 -0.1163  0.7209
11395TIP3    H155600   6.375   3.874  16.856 -0.6155  4.9412 -0.0013
11395TIP3    H255601   6.282   3.873  16.737  0.5913  0.3926 -1.1111
11396TIP3   OH255602   4.632   3.760  10.960 -0.2288  0.0557  0.0152
11396TIP3    H155603   4.679   3.778  10.879 -0.2434 -0.3143 -0.0776
11396TIP3    H255604   4.669   3.821  11.024 -1.1307  1.2813 -0.5777
11397TIP3   OH255605   3.704   2.048  10.371  0.0433 -0.7375  0.7109
11397TIP3    H155606   3.787   2.075  10.332 -0.8794  0.6723 -0.3831
11397TIP3    H255607   3.662   2.130  10.397 -1.6569 -1.2875 -0.1566
11398TIP3   OH255608   2.012   4.317   1.178 -0.4067 -0.1566  0.4755
11398TIP3    H155609   1.971   4.247   1.229 -1.5221  1.8552  2.5461
11398TIP3    H255610   2.020   4.390   1.239 -0.6574  2.0355 -1.9207
11399TIP3   OH255611   4.005   4.299   1.876  0.7073  0.1978 -0.2437
11399TIP3    H155612   3.966   4.348   1.948 -0.1429 -0.8031  0.0029
11399TIP3    H255613   4.003   4.359   1.802  0.0944  0.6872  0.1592
11400TIP3   OH255614   2.709   1.085   2.953 -0.1277 -0.0197  0.2949
11400TIP3    H155615   2.670   1.135   2.882  0.6722 -0.7483 -0.6930
11400TIP3    H255616   2.784   1.138   2.981 -0.7618  0.5300  0.9870
11401TIP3   OH255617   3.299   4.303  13.346 -0.4389 -0.0279 -0.3621
11401TIP3    H155618   3.354   4.354  13.406 -1.0274 -0.5229  0.6280
11401TIP3    H255619   3.297   4.215  13.383 -0.1372 -0.5722 -1.5863
11402TIP3   OH255620   6.347   3.265  14.808 -0.3145  0.2771 -0.2704
11402TIP3    H155621   6.377   3.355  14.796  0.2199  0.1660  0.1741
11402TIP3    H255622   6.262   3.273  14.851  0.0392  0.5632  0.3975
11403TIP3   OH255623   3.067   1.200  14.909  0.2659 -0.0753  0.3848
11403TIP3    H155624   2.976   1.187  14.881 -0.7537  2.1941  2.3334
11403TIP3    H255625   3.073   1.156  14.994  1.3968 -1.2262 -0.2488
11404TIP3   OH255626   5.604   4.081   0.162  0.0691  0.0897  0.0344
11404TIP3    H155627   5.568   4.037   0.085 -0.1552  1.0341 -0.4197
11404TIP3    H255628   5.699   4.080   0.148  0.2545 -1.9957  1.0097
11405TIP3   OH255629   2.181   0.214   5.002 -0.4033 -0.4449 -0.3164
11405TIP3    H155630   2.163   0.221   5.095 -0.1289 -0.6870 -0.2443
11405TIP3    H255631   2.261   0.161   4.996 -0.6428 -0.7701 -0.7046
11406TIP3   OH255632   5.950   5.869  13.788 -0.2571  0.0649 -0.0269
11406TIP3    H155633   5.978   5.861  13.697  0.1692 -0.0640  0.1160
11406TIP3    H255634   5.897   5.950  13.790 -0.8059 -0.2731 -0.5209
11407TIP3   OH255635   0.514   3.231   1.574 -0.3597 -0.6065  0.7366
11407TIP3    H155636   0.571   3.298   1.539 -1.0462 -0.6467 -0.5329
11407TIP3    H255637   0.426   3.258   1.547 -0.8019 -1.2490  1.4768
11408TIP3   OH255638   1.562   3.589   0.287  0.0105  0.3795 -0.7506
11408TIP3    H155639   1.620   3.556   0.218 -0.0515 -0.9534 -0.2046
11408TIP3    H255640   1.475   3.593   0.247 -0.1049 -0.8088 -0.6512
11409TIP3   OH255641   2.368   5.108  11.680 -0.0103  0.0601 -0.3009
11409TIP3    H155642   2.420   5.068  11.610  2.1831  0.6170  0.8922
11409TIP3    H255643   2.428   5.172  11.719 -0.9833 -0.5119  2.3338
11410TIP3   OH255644   6.266   6.004  12.902  0.6966  0.1099 -0.2512
11410TIP3    H155645   6.223   6.081  12.938  1.4489  0.2641  0.3554
11410TIP3    H255646   6.204   5.933  12.915  0.5635  0.3495  0.4850
11411TIP3   OH255647   3.282   2.512   0.332  0.3079  0.0286  0.3835
11411TIP3    H155648   3.344   2.523   0.404  2.0760 -0.2193 -1.0333
11411TIP3    H255649   3.294   2.590   0.278 -0.8062  0.0826  0.1901
11412TIP3   OH255650   4.277   3.141  13.761  0.2465 -0.5690 -0.0120
11412TIP3    H155651   4.338   3.210  13.785  1.2759 -0.9304 -1.4354
11412TIP3    H255652   4.320   3.095  13.689 -2.0514 -0.3082 -1.6765
11413TIP3   OH255653   1.633   0.651   1.687  0.0709 -0.4983  0.2368
11413TIP3    H155654   1.666   0.571   1.646  0.9472 -0.1058  0.1601
11413TIP3    H255655   1.667   0.648   1.776  0.2604 -0.1270  0.1796
11414TIP3   OH255656   6.158   5.104  14.678 -0.0796 -0.4202 -0.5250
11414TIP3    H155657   6.222   5.176  14.676  0.1478 -0.5759  0.4670
11414TIP3    H255658   6.212   5.025  14.685 -0.3758 -0.5377  0.5742
11415TIP3   OH255659   4.497   0.995  16.993 -0.5308 -0.0317 -0.0003
11415TIP3    H155660   4.558   1.057  16.952 -2.9514  0.9796 -2.3983
11415TIP3    H255661   4.529   0.909  16.968 -0.2271  0.4930 -1.5079
11416TIP3   OH255662   4.625   4.648  13.836  0.7937  0.3464  0.1226
11416TIP3    H155663   4.694   4.650  13.903 -0.1261  0.2026  1.1063
11416TIP3    H255664   4.589   4.736  13.836 -0.4231 -0.1243  1.1464
11417TIP3   OH255665   4.832   0.444  14.069  0.1036 -0.7944  0.5226
11417TIP3    H155666   4.856   0.522  14.118  0.4763 -0.9528  0.5991
11417TIP3    H255667   4.775   0.476  13.999  1.9041 -0.1313 -0.7279
11418TIP3   OH255668   2.209   6.432  12.280  0.6317 -0.0553 -0.2234
11418TIP3    H155669   2.232   6.427  12.374 -0.9399 -1.9570  0.1245
11418TIP3    H255670   2.133   6.489  12.277  1.2346  0.7492 -0.4860
11419TIP3   OH255671   3.509   4.137   2.098 -0.4541  0.4829 -0.3556
11419TIP3    H155672   3.417   4.113   2.098 -0.1760 -1.0888  2.6287
11419TIP3    H255673   3.509   4.232   2.086 -2.5071  0.5788  0.0426
11420TIP3   OH255674   2.680   2.373  12.464  0.2807 -0.5374  0.1472
11420TIP3    H155675   2.756   2.389  12.409  0.7247 -0.3583  0.7967
11420TIP3    H255676   2.610   2.424  12.423  0.6861 -0.1386 -0.0642
11421TIP3   OH255677   5.958   2.463  16.919  0.5066 -0.4911 -0.6026
11421TIP3    H155678   5.904   2.536  16.950 -0.6762 -1.7939  0.5925
11421TIP3    H255679   6.014   2.442  16.994 -0.3860 -1.8631 -0.2769
11422TIP3   OH255680   5.437   0.308  11.197 -0.4891  0.4397 -0.1148
11422TIP3    H155681   5.353   0.308  11.150 -0.6156  0.1002  0.0998
11422TIP3    H255682   5.503   0.302  11.129 -0.6440  0.6230 -0.2831
11423TIP3   OH255683   6.677   3.086  16.455 -0.3854 -0.0506  0.5186
11423TIP3    H155684   6.653   3.146  16.384 -0.8128  0.4900  1.1083
11423TIP3    H255685   6.600   3.082  16.511 -0.0821 -0.5332  0.9137
11424TIP3   OH255686   4.391   4.423   5.074  0.2610  0.3921 -0.1348
11424TIP3    H155687   4.396   4.352   5.139 -1.5998  0.5350  0.2301
11424TIP3    H255688   4.370   4.501   5.126  0.2498  0.8062 -0.7533
11425TIP3   OH255689   5.486   4.171  15.563  0.1806  0.0049 -0.4337
11425TIP3    H155690   5.564   4.151  15.511  0.7822  1.8067 -0.3138
11425TIP3    H255691   5.503   4.132  15.649  1.0367  0.4885 -0.3724
11426TIP3   OH255692   2.775   0.225   6.626  0.7233  0.3906 -0.3767
11426TIP3    H155693   2.869   0.239   6.635  0.3118  3.4583  0.0648
11426TIP3    H255694   2.756   0.242   6.534  0.6697 -1.0306 -0.6523
11427TIP3   OH255695   2.489   1.031  12.539  0.8749 -0.0978 -0.0235
11427TIP3    H155696   2.462   0.998  12.453  4.3539 -1.3958 -0.8051
11427TIP3    H255697   2.487   0.954  12.596  2.6160 -0.2480 -0.1078
11428TIP3   OH255698   6.336   0.407  16.857 -0.0766  0.3549 -0.3048
11428TIP3    H155699   6.390   0.346  16.808 -1.6707 -0.6720 -0.8524
11428TIP3    H255700   6.308   0.471  16.792  0.0964  0.6257 -0.1171
11429TIP3   OH255701   5.981   2.993   5.578  0.1026  0.0022 -0.0450
11429TIP3    H155702   6.064   2.949   5.561  0.6621  0.8727  0.3180
11429TIP3    H255703   5.987   3.075   5.529 -0.1196  0.5170  0.7692
11430TIP3   OH255704   6.651   1.147  17.232  0.1114 -0.4911  0.1433
11430TIP3    H155705   6.656   1.184  17.144 -0.0801 -0.2236  0.2428
11430TIP3    H255706   6.565   1.104  17.234  1.1438 -2.7552 -0.6797
11431TIP3   OH255707   2.896   1.906   2.421  0.2067  0.3821 -0.0459
11431TIP3    H155708   2.926   1.816   2.411 -0.5232  0.1966 -0.5854
11431TIP3    H255709   2.818   1.899   2.476 -0.4621  0.5710 -0.9619
11432TIP3   OH255710   1.020   0.763   2.631  0.5232 -0.2063  0.1683
11432TIP3    H155711   1.111   0.783   2.608  0.0779  0.2740 -1.2868
11432TIP3    H255712   1.027   0.707   2.708  2.0079  1.0095  0.9914
11433TIP3   OH255713   6.050   0.346   2.249 -0.1569  0.3725  0.4096
11433TIP3    H155714   6.084   0.267   2.209 -1.6727  0.7680 -1.8236
11433TIP3    H255715   5.963   0.322   2.282 -0.7104  1.1006 -0.4567
11434TIP3   OH255716   3.055   2.509   5.495  0.1025  0.2284 -1.2619
11434TIP3    H155717   3.123   2.442   5.500  0.0140  0.2065 -0.3059
11434TIP3    H255718   3.029   2.525   5.585 -0.0083  1.4225 -1.4811
11435TIP3   OH255719   6.364   0.195  13.106 -0.6675 -0.1438 -0.0460
11435TIP3    H155720   6.344   0.257  13.036  2.3495  0.0352 -0.8895
11435TIP3    H255721   6.427   0.134  13.067 -2.0712 -2.6199  1.3352
11436TIP3   OH255722   5.959   3.709  16.565  0.0981  0.2950 -0.2480
11436TIP3    H155723   5.882   3.742  16.518 -1.6219  0.8471  2.6817
11436TIP3    H255724   6.003   3.788  16.597  0.5851 -0.0788  0.0212
11437TIP3   OH255725   3.410   6.084   4.331  0.3068  0.1068  0.3261
11437TIP3    H155726   3.477   6.094   4.398 -1.9720 -1.2517  3.0297
11437TIP3    H255727   3.443   6.017   4.272  1.8642  0.4522  0.7776
11438TIP3   OH255728   3.015   1.474  12.902  0.2720  0.4769 -0.4515
11438TIP3    H155729   3.091   1.447  12.953  0.7018  0.7413 -0.9405
11438TIP3    H255730   2.943   1.472  12.964  0.3927 -1.1589 -0.3201
11439TIP3   OH255731   3.592   0.680  15.645 -0.3626  0.2337 -0.2089
11439TIP3    H155732   3.575   0.603  15.591 -2.6923  1.3405 -1.2247
11439TIP3    H255733   3.634   0.742  15.585 -0.7072  0.5806 -0.1033
11440TIP3   OH255734   4.817   1.015  15.843  0.1626 -0.3288 -0.1791
11440TIP3    H155735   4.839   0.965  15.921  1.6440  0.1885 -0.2420
11440TIP3    H255736   4.811   0.949  15.773  3.9630 -0.3697 -0.6673
11441TIP3   OH255737   1.979   2.293  17.343  0.1648  0.0913  0.4645
11441TIP3    H155738   1.928   2.215  17.364 -0.4161  0.2867 -0.1712
11441TIP3    H255739   2.046   2.298  17.411 -0.8863  0.0190  1.5268
11442TIP3   OH255740   1.035   0.085  12.398 -0.4107 -0.5240 -0.1459
11442TIP3    H155741   0.959   0.120  12.446  0.7298 -0.2167  1.5479
11442TIP3    H255742   1.110   0.109  12.453  0.9028 -0.9890 -1.6721
11443TIP3   OH255743   3.875   4.565  17.069  0.1278  0.6945 -0.4988
11443TIP3    H155744   3.842   4.619  16.997  0.5939 -0.0493 -1.3003
11443TIP3    H255745   3.860   4.617  17.148 -1.2384  1.1435 -1.0307
11444TIP3   OH255746   4.758   3.084   4.953  0.1709  0.0731 -0.3831
11444TIP3    H155747   4.726   3.148   5.017  0.3785  1.1714 -1.3467
11444TIP3    H255748   4.685   3.023   4.942 -0.3233  0.5843 -0.0052
11445TIP3   OH255749   2.222   3.171   4.614 -0.1123  0.2048  0.2693
11445TIP3    H155750   2.291   3.209   4.668 -0.9066  1.1328  0.6755
11445TIP3    H255751   2.259   3.090   4.580  1.0969  0.5918  0.6304
11446TIP3   OH255752   2.447   4.511   3.335 -0.3063 -0.2767  0.2491
11446TIP3    H155753   2.398   4.552   3.264 -1.7331  0.3948  1.5525
11446TIP3    H255754   2.501   4.582   3.371 -0.4751 -0.3141  0.5767
11447TIP3   OH255755   1.197   4.959   6.886  0.5228  0.1788  0.3062
11447TIP3    H155756   1.274   4.933   6.834 -0.2567 -0.1631 -0.7107
11447TIP3    H255757   1.123   4.923   6.837 -0.2739  0.3493  1.3745
11448TIP3   OH255758   0.597   1.579   0.821  0.1810  0.2798 -0.3616
11448TIP3    H155759   0.683   1.539   0.826  0.1923  0.3372 -0.0947
11448TIP3    H255760   0.596   1.644   0.891 -0.0132  0.4043 -0.4782
11449TIP3   OH255761   6.056   2.876   0.331  0.4814  0.0938 -0.4235
11449TIP3    H155762   6.035   2.969   0.330  1.7208  0.3929 -0.0742
11449TIP3    H255763   6.021   2.844   0.414 -0.6751  0.0544 -0.9087
11450TIP3   OH255764   2.733   2.851  12.352 -0.0087  0.3486  0.3351
11450TIP3    H155765   2.663   2.799  12.391  0.0792  1.0493  1.4599
11450TIP3    H255766   2.808   2.838  12.410  1.9730 -3.1190 -2.5887
11451TIP3   OH255767   5.677   0.043  12.874 -0.1732 -0.1724  0.4496
11451TIP3    H155768   5.701   0.119  12.822  1.4602 -1.1935 -0.4138
11451TIP3    H255769   5.725   0.054  12.956 -0.6351  0.1609  0.6716
11452TIP3   OH255770   5.987   3.633  15.292 -0.0777 -0.4191 -0.5795
11452TIP3    H155771   6.067   3.684  15.309 -0.3073 -0.8942  2.4818
11452TIP3    H255772   6.014   3.542  15.304 -1.2194 -0.5385  1.5263
11453TIP3   OH255773   4.735   3.730   4.226  0.8053  0.2208 -0.1868
11453TIP3    H155774   4.699   3.682   4.301  3.0747  0.5438  1.1854
11453TIP3    H255775   4.712   3.676   4.150 -0.0083 -1.0424  0.9002
11454TIP3   OH255776   2.197   2.925  17.036 -0.2360  0.5976 -0.6468
11454TIP3    H155777   2.212   3.019  17.038  0.4586  0.5263  2.0769
11454TIP3    H255778   2.106   2.916  17.006  0.3848  1.9127 -3.2008
11455TIP3   OH255779   0.217   3.597  12.766  0.6040  0.4633 -0.2686
11455TIP3    H155780   0.310   3.609  12.746  0.7481  0.3676  0.3177
11455TIP3    H255781   0.171   3.628  12.688  1.0636  2.2194  0.0991
11456TIP3   OH255782   3.972   1.842  12.824 -0.0759  0.3402  0.1755
11456TIP3    H155783   3.977   1.880  12.912 -1.8427  0.0979  0.4310
11456TIP3    H255784   3.895   1.884  12.785  0.2653 -0.0823 -1.0013
11457TIP3   OH255785   6.613   2.403   0.433 -0.0908  0.2565 -0.7750
11457TIP3    H155786   6.581   2.354   0.358 -0.8769 -0.7076  0.1471
11457TIP3    H255787   6.540   2.459   0.459 -0.3991 -0.5482  0.1796
11458TIP3   OH255788   2.274   2.029   3.884  0.0890  0.4677  0.4217
11458TIP3    H155789   2.266   2.121   3.862  0.8859 -0.0175 -2.2151
11458TIP3    H255790   2.369   2.013   3.889  0.0768  0.5900  5.1058
11459TIP3   OH255791   1.339   4.007  11.259 -0.0935 -0.0058 -0.3990
11459TIP3    H155792   1.337   3.921  11.303  0.5844  0.5908  0.8648
11459TIP3    H255793   1.332   3.987  11.166 -1.6494 -1.3334 -0.0481
11460TIP3   OH255794   4.001   3.317   1.992  0.2986  0.1991  0.7335
11460TIP3    H155795   4.046   3.234   2.010 -2.2492 -1.4877 -0.1788
11460TIP3    H255796   4.014   3.369   2.071  1.2992 -1.3821  1.6593
11461TIP3   OH255797   3.177   3.207  11.027  1.0724 -0.2445 -0.1299
11461TIP3    H155798   3.255   3.170  10.987 -0.0551 -1.4735 -1.2853
11461TIP3    H255799   3.164   3.291  10.983  2.4574  0.6407  1.0328
11462TIP3   OH255800   0.499   1.492  15.568  0.1820 -0.3906 -0.2443
11462TIP3    H155801   0.568   1.522  15.509  0.4506 -0.6517 -0.0643
11462TIP3    H255802   0.418   1.522  15.527  0.4234  0.3017 -0.2355
11463TIP3   OH255803   5.325   3.804   0.260 -0.4896 -0.3269  0.2879
11463TIP3    H155804   5.239   3.844   0.268  0.0196  0.9113 -0.1389
11463TIP3    H255805   5.317   3.743   0.187 -1.1471 -0.6275  0.6093
11464TIP3   OH255806   4.522   6.416   3.323 -0.1751  0.1321  0.2062
11464TIP3    H155807   4.448   6.396   3.380  0.3720 -1.2765  0.4582
11464TIP3    H255808   4.561   6.331   3.303  0.6998  0.7470 -0.8505
11465TIP3   OH255809   5.159   1.909   3.839 -0.3639  0.2135  0.5337
11465TIP3    H155810   5.140   1.815   3.849  0.1061  0.1358  0.7618
11465TIP3    H255811   5.251   1.912   3.811 -0.5674  0.5868 -0.1145
11466TIP3   OH255812   6.702   3.906  14.881 -0.5084 -0.1834 -0.0686
11466TIP3    H155813   6.795   3.926  14.891 -0.8067  0.6153  1.3888
11466TIP3    H255814   6.659   3.953  14.952 -1.9439 -1.2666 -0.1629
11467TIP3   OH255815   0.495   3.559  16.780  0.4545 -0.5250 -0.8811
11467TIP3    H155816   0.430   3.547  16.711  0.0246 -2.7938 -0.1530
11467TIP3    H255817   0.504   3.473  16.820  2.7928  0.0744  0.0618
11468TIP3   OH255818   3.708   4.637  17.303  0.6244  0.9717  0.0790
11468TIP3    H155819   3.639   4.637  17.370 -0.0977 -2.6719 -0.4563
11468TIP3    H255820   3.765   4.710  17.328 -1.8527  2.3718  2.1867
11469TIP3   OH255821   3.756   0.940  14.390  0.2187 -0.0702  0.2495
11469TIP3    H155822   3.666   0.973  14.390  0.5209  0.7679 -0.2759
11469TIP3    H255823   3.747   0.848  14.365 -0.3954  0.3352 -1.1273
11470TIP3   OH255824   3.171   0.814  14.554 -0.5777 -0.1258  0.4339
11470TIP3    H155825   3.158   0.722  14.531  0.1149 -0.2692  0.5808
11470TIP3    H255826   3.131   0.863  14.483  0.3432 -0.5547 -0.4050
11471TIP3   OH255827   6.372   4.983   2.275 -0.3307 -0.6570  0.1507
11471TIP3    H155828   6.357   4.907   2.331 -1.6564 -0.3245  0.2833
11471TIP3    H255829   6.447   4.958   2.220  0.1683 -1.4842  1.1748
11472TIP3   OH255830   5.775   0.149   4.191 -0.1402  0.2994 -0.2002
11472TIP3    H155831   5.718   0.104   4.253  0.0705 -0.2545 -0.4000
11472TIP3    H255832   5.822   0.078   4.146  0.6223  0.7405 -0.1104
11473TIP3   OH255833   2.863   0.270   2.486 -0.1306 -0.2753  0.4310
11473TIP3    H155834   2.931   0.306   2.429 -1.5232  0.9798 -0.5165
11473TIP3    H255835   2.886   0.302   2.573 -0.2675  1.3996 -0.1052
11474TIP3   OH255836   0.996   5.483   2.569 -0.0977  0.3237 -0.1182
11474TIP3    H155837   1.071   5.538   2.592  0.4760 -0.7196  0.5915
11474TIP3    H255838   1.025   5.434   2.491  0.4464 -0.9662  0.8581
11475TIP3   OH255839   2.617   2.510   0.208 -0.1487 -0.3256  0.2572
11475TIP3    H155840   2.708   2.479   0.209 -0.2543 -0.6028  1.5758
11475TIP3    H255841   2.625   2.606   0.203  0.2286 -0.3042  1.1963
11476TIP3   OH255842   4.955   5.200   2.763 -0.2985  0.2259 -0.8548
11476TIP3    H155843   4.983   5.231   2.848 -0.2174 -0.5850 -0.5797
11476TIP3    H255844   4.927   5.109   2.778  1.5777 -0.6100 -2.0432
11477TIP3   OH255845   4.388   4.661   2.887  0.0980 -0.6832  0.0915
11477TIP3    H155846   4.344   4.705   2.960  1.6184 -0.2402  0.7874
11477TIP3    H255847   4.448   4.727   2.852 -0.3625 -0.9978 -1.3583
11478TIP3   OH255848   5.688   4.528   1.825  0.3364  0.7191 -0.2084
11478TIP3    H155849   5.772   4.492   1.796 -0.0009 -1.0551  0.8597
11478TIP3    H255850   5.702   4.547   1.918 -0.4475  0.3062  0.0042
11479TIP3   OH255851   3.711   4.481   2.267 -0.3805  0.2115 -0.3481
11479TIP3    H155852   3.764   4.560   2.257 -0.1059 -0.0120 -0.6599
11479TIP3    H255853   3.641   4.490   2.203 -0.0043 -0.0799 -0.8048
11480TIP3   OH255854   3.781   4.915  11.585 -0.2588 -0.0572  0.0196
11480TIP3    H155855   3.830   4.940  11.506 -1.9107 -0.2594 -1.1185
11480TIP3    H255856   3.695   4.891  11.553 -0.6862 -1.0867  1.8132
11481TIP3   OH255857   3.905   0.816  14.612  0.1394  0.3734 -0.0457
11481TIP3    H155858   3.872   0.838  14.700 -0.4857 -0.2721 -0.1049
11481TIP3    H255859   3.881   0.892  14.558  0.5584  0.7899  0.3456
11482TIP3   OH255860   5.849   2.383  13.749 -0.3662 -0.0859  0.0782
11482TIP3    H155861   5.771   2.401  13.697 -0.7399  0.0527  0.6806
11482TIP3    H255862   5.921   2.386  13.687 -0.5846  1.8717 -0.1297
11483TIP3   OH255863   5.078   0.252  15.477 -0.0378 -0.0195  0.3601
11483TIP3    H155864   5.119   0.267  15.393 -0.6732 -0.0968  0.0282
11483TIP3    H255865   5.149   0.259  15.541  0.2640  1.0637 -0.0782
11484TIP3   OH255866   3.218   1.284   3.736  0.4031  0.4367 -0.2315
11484TIP3    H155867   3.233   1.189   3.740  0.5036  0.4937  1.0560
11484TIP3    H255868   3.305   1.322   3.742  0.3058  0.6190  0.0533
11485TIP3   OH255869   4.141   2.399   1.367 -0.1308 -0.2037  0.0616
11485TIP3    H155870   4.048   2.422   1.378 -0.7781 -2.3474 -0.5197
11485TIP3    H255871   4.143   2.344   1.289  1.9390  1.2264 -0.9903
11486TIP3   OH255872   5.726   3.980  17.108  0.1869 -0.4519  1.0366
11486TIP3    H155873   5.663   3.918  17.143  2.0588 -1.7464  2.2786
11486TIP3    H255874   5.745   4.039  17.181 -0.6083  0.8436  0.2445
11487TIP3   OH255875   0.713   2.437   3.207 -0.4422 -0.1598 -0.0986
11487TIP3    H155876   0.803   2.416   3.231 -1.1175 -0.5269  2.4193
11487TIP3    H255877   0.664   2.359   3.232 -1.5890  0.4377 -0.4394
11488TIP3   OH255878   6.668   1.816   3.906 -0.2431 -0.3777 -0.0340
11488TIP3    H155879   6.671   1.724   3.933  3.0717 -0.4157 -0.1581
11488TIP3    H255880   6.719   1.819   3.826 -1.3536  1.4292 -0.7295
11489TIP3   OH255881   2.559   0.988   0.842  0.3324 -0.2054  0.0325
11489TIP3    H155882   2.590   1.067   0.886  2.1259  0.6435 -2.5226
11489TIP3    H255883   2.472   1.010   0.811  0.1854  0.1706  0.7011
11490TIP3   OH255884   3.706   6.429   0.931 -0.0291  0.4764  0.6059
11490TIP3    H155885   3.647   6.448   1.004  1.0136 -0.9278  1.8668
11490TIP3    H255886   3.791   6.461   0.961  0.3072  0.3767 -0.2322
11491TIP3   OH255887   4.947   6.024   0.564 -0.1397 -0.0318 -0.2986
11491TIP3    H155888   4.863   6.001   0.605  0.6776  0.0877  1.5077
11491TIP3    H255889   4.938   6.117   0.544 -0.4764 -0.0364 -0.1850
11492TIP3   OH255890   0.978   3.883  14.681  0.0102  0.0155  0.2259
11492TIP3    H155891   0.934   3.935  14.747  0.0239  1.0865 -0.5844
11492TIP3    H255892   0.921   3.807  14.668 -0.4309  0.2434  0.8090
11493TIP3   OH255893   3.677   4.263   4.970  0.0918 -0.1138  0.5081
11493TIP3    H155894   3.691   4.272   5.064 -0.8539  2.2926  0.4820
11493TIP3    H255895   3.588   4.228   4.962  0.6520 -1.6143  0.4777
11494TIP3   OH255896   6.270   1.065   1.765  0.0643 -0.0318 -0.0681
11494TIP3    H155897   6.256   1.058   1.860 -0.8732 -0.5518 -0.2300
11494TIP3    H255898   6.365   1.061   1.754  0.1316 -3.1232  0.6531
11495TIP3   OH255899   2.237   2.420  16.486  0.0744 -0.3067 -0.4819
11495TIP3    H155900   2.190   2.484  16.432  1.0761 -0.8242 -1.9988
11495TIP3    H255901   2.230   2.338  16.438 -1.3862 -1.4629  1.5496
11496TIP3   OH255902   5.587   5.715   4.065  0.1883 -0.2055 -0.0352
11496TIP3    H155903   5.506   5.712   4.014  0.0797  0.3842  0.0970
11496TIP3    H255904   5.654   5.745   4.004  0.6179 -2.0246 -0.5201
11497TIP3   OH255905   5.868   5.661  11.863  0.0321  0.3741  0.0942
11497TIP3    H155906   5.838   5.739  11.816  0.5792  0.4622 -0.1192
11497TIP3    H255907   5.924   5.615  11.799 -0.3263 -0.2164  0.2011
11498TIP3   OH255908   4.787   1.410  16.486 -0.2959 -0.2671 -0.1172
11498TIP3    H155909   4.840   1.485  16.514 -0.8150 -0.1583  0.6286
11498TIP3    H255910   4.782   1.354  16.563 -0.6376 -0.6371 -0.4023
11499TIP3   OH255911   5.225   5.389  12.308 -0.1640 -0.4039 -0.0571
11499TIP3    H155912   5.197   5.309  12.263 -1.3325 -1.1619  1.8823
11499TIP3    H255913   5.308   5.365  12.348  0.7342  0.1820 -1.4936
11500TIP3   OH255914   2.226   5.452  15.884  0.7293  0.6186  0.0212
11500TIP3    H155915   2.254   5.392  15.816 -1.3879 -1.0655  0.5387
11500TIP3    H255916   2.147   5.493  15.850  0.6378  1.0836  0.7611
11501TIP3   OH255917   1.643   1.399   1.006  0.6770  0.4070 -0.4528
11501TIP3    H155918   1.627   1.310   1.038 -2.7939  1.4826  1.2665
11501TIP3    H255919   1.591   1.405   0.926  0.0075  1.1917  0.0332
11502TIP3   OH255920   3.989   4.711   4.895 -0.4531 -0.1103 -0.1887
11502TIP3    H155921   3.970   4.645   4.828 -0.1275  0.8853 -1.2963
11502TIP3    H255922   3.906   4.726   4.939 -0.4352 -1.5971  0.4250
11503TIP3   OH255923   4.068   6.231   2.866  0.3055  0.2136 -0.0137
11503TIP3    H155924   4.137   6.270   2.921  1.3249 -1.2828 -0.1389
11503TIP3    H255925   4.110   6.219   2.781 -1.2198  2.3753 -1.1539
11504TIP3   OH255926   0.536   4.644  11.080 -0.1535  0.1239 -0.0000
11504TIP3    H155927   0.526   4.639  10.985 -0.4377  1.3802 -0.0538
11504TIP3    H255928   0.505   4.732  11.103 -0.3010 -0.2367  1.2831
11505TIP3   OH255929   6.141   6.232  13.969 -0.8142 -0.3894 -0.0513
11505TIP3    H155930   6.070   6.169  13.957 -0.8887 -0.1591 -0.8715
11505TIP3    H255931   6.099   6.318  13.969 -0.7055 -0.3202  1.0021
11506TIP3   OH255932   0.415   1.587  13.142  0.2409 -0.4004 -0.2151
11506TIP3    H155933   0.381   1.674  13.121  0.5397  0.3449  2.0846
11506TIP3    H255934   0.347   1.547  13.197 -1.0703 -2.7265 -3.2531
11507TIP3   OH255935   0.984   5.568   5.108  0.0685 -0.1164 -0.3795
11507TIP3    H155936   0.988   5.499   5.175 -2.6643  0.2685  0.3004
11507TIP3    H255937   1.010   5.524   5.027  1.5494 -1.0801  0.5671
11508TIP3   OH255938   3.645   2.126   3.535 -0.1237  0.5525  0.3750
11508TIP3    H155939   3.590   2.200   3.510  0.1093  0.2129 -1.2156
11508TIP3    H255940   3.675   2.088   3.453  1.5089 -0.0248  1.1720
11509TIP3   OH255941   0.561   2.467  13.764 -0.7230  0.2141  0.9688
11509TIP3    H155942   0.596   2.379  13.778 -0.6135 -0.0408 -0.7042
11509TIP3    H255943   0.636   2.519  13.736 -1.1275  0.3836  0.1748
11510TIP3   OH255944   5.974   5.999   5.893 -0.4037  0.0025 -0.0515
11510TIP3    H155945   5.969   5.977   5.986  1.3036  0.2172  0.1135
11510TIP3    H255946   5.898   6.054   5.878 -0.7083 -0.0334  1.2181
11511TIP3   OH255947   3.338   0.129  14.557 -0.0101 -0.3395 -0.1525
11511TIP3    H155948   3.280   0.116  14.632 -0.5400  0.1780 -0.4579
11511TIP3    H255949   3.325   0.051  14.503 -1.1913  0.2012 -0.7014
11512TIP3   OH255950   6.479   2.188  15.971 -0.0078  0.7367  0.3150
11512TIP3    H155951   6.542   2.260  15.970  0.9860 -0.1105 -0.9623
11512TIP3    H255952   6.502   2.136  16.048  2.5367 -0.9182 -1.4014
11513TIP3   OH255953   0.930   5.444  14.930  0.3514  0.3524  0.1720
11513TIP3    H155954   0.847   5.397  14.936  0.3493  0.3175 -0.0986
11513TIP3    H255955   0.992   5.379  14.896  0.0088  0.9281 -1.6957
11514TIP3   OH255956   3.018   1.873  12.565 -0.2347 -0.3678 -0.3121
11514TIP3    H155957   3.058   1.905  12.646  2.8816  0.3400 -1.9980
11514TIP3    H255958   3.090   1.835  12.515 -1.5858  0.9909 -3.5957
11515TIP3   OH255959   1.955   6.305  15.246 -0.3372 -0.0033  0.1743
11515TIP3    H155960   1.888   6.255  15.292 -1.1221  0.4005 -0.5028
11515TIP3    H255961   1.972   6.255  15.166 -0.3650  0.2727 -0.0053
11516TIP3   OH255962   0.817   2.956   2.680  0.4604 -0.2053 -0.2424
11516TIP3    H155963   0.899   2.962   2.630  0.4347 -1.6829 -0.5123
11516TIP3    H255964   0.751   2.996   2.623  0.9490  0.8759 -0.0775
11517TIP3   OH255965   6.215   5.755  10.947  0.4477  0.1299 -0.6887
11517TIP3    H155966   6.144   5.733  10.886 -0.3471 -0.3546  0.3932
11517TIP3    H255967   6.277   5.683  10.939 -1.3769 -1.8676  1.6629
11518TIP3   OH255968   1.965   6.421   5.605  0.6619 -0.1235  0.0518
11518TIP3    H155969   2.038   6.463   5.649  0.9127  0.4194 -0.8595
11518TIP3    H255970   1.943   6.346   5.660  0.7348  0.7263  1.2636
11519TIP3   OH255971   2.125   5.917   2.241 -0.0114 -0.1868  0.7775
11519TIP3    H155972   2.070   5.991   2.215 -0.3502 -1.0792 -1.2343
11519TIP3    H255973   2.201   5.922   2.182 -1.0439 -2.5880 -0.9432
11520TIP3   OH255974   1.352   6.218   1.849  0.6563  0.3264 -0.3851
11520TIP3    H155975   1.367   6.227   1.943  2.6877 -1.3976 -0.4833
11520TIP3    H255976   1.433   6.245   1.808  0.4463 -0.6685 -1.5311
11521TIP3   OH255977   4.337   3.081   0.329  0.6155  0.5214  0.5307
11521TIP3    H155978   4.295   3.017   0.386  0.0665  0.8828  0.5363
11521TIP3    H255979   4.265   3.126   0.285  0.9863  1.2311  0.6321
11522TIP3   OH255980   6.635   3.429  14.691 -0.2549 -0.2983 -0.5813
11522TIP3    H155981   6.551   3.438  14.737  0.1945  0.7697  0.0617
11522TIP3    H255982   6.619   3.360  14.627 -1.8894  0.4408 -1.0389
11523TIP3   OH255983   6.617   5.749  14.676 -0.5795 -0.5447 -0.2849
11523TIP3    H155984   6.554   5.820  14.665  0.4662  0.3288 -0.7771
11523TIP3    H255985   6.640   5.752  14.769  0.2070  0.4295 -0.4972
11524TIP3   OH255986   3.191   5.951  12.252 -0.1943 -0.0971  0.1728
11524TIP3    H155987   3.161   6.018  12.190 -0.3230  0.8631  1.2375
11524TIP3    H255988   3.129   5.879  12.241 -0.3305  0.1381 -0.6665
11525TIP3   OH255989   2.916   2.218   2.494 -0.3122 -0.3989  0.0395
11525TIP3    H155990   2.823   2.205   2.481 -0.2478 -0.5348 -0.2828
11525TIP3    H255991   2.955   2.133   2.476 -0.0581 -0.1771 -0.4789
11526TIP3   OH255992   4.177   4.388   2.165 -0.0868  0.3599  0.4435
11526TIP3    H155993   4.092   4.393   2.120 -0.6972  1.2246  1.6560
11526TIP3    H255994   4.156   4.356   2.253  1.0479 -0.8919  0.2992
11527TIP3   OH255995   1.023   4.117   1.668 -0.1236  0.0105  0.0789
11527TIP3    H155996   0.950   4.179   1.673 -0.7573 -0.8166  1.4334
11527TIP3    H255997   0.983   4.031   1.677  1.0118 -0.4667  0.8091
11528TIP3   OH255998   4.548   0.173   0.955  0.9857 -0.3123  0.1500
11528TIP3    H155999   4.539   0.207   0.866  0.6228  0.3910  0.4515
11528TIP3    H256000   4.459   0.177   0.992  1.6412  2.7469  1.7299
11529TIP3   OH256001   1.135   1.574  11.690 -0.0220 -0.2817 -0.0799
11529TIP3    H156002   1.217   1.615  11.719 -0.1540  0.2112 -0.3872
11529TIP3    H256003   1.080   1.574  11.768  0.3405 -0.8041  0.1812
11530TIP3   OH256004   2.057   4.285  17.374 -0.3596  0.2364 -0.5707
11530TIP3    H156005   2.075   4.275  17.467  0.0183  0.7032 -0.5861
11530TIP3    H256006   2.144   4.296  17.334 -0.3261 -2.0732 -1.2663
11531TIP3   OH256007   0.338   2.991  14.784  0.5128  0.3247 -0.2301
11531TIP3    H156008   0.340   3.060  14.850 -0.0500  0.2325 -0.1052
11531TIP3    H256009   0.258   2.942  14.804  0.8037 -0.2402 -0.4377
11532TIP3   OH256010   6.425   4.921   1.874 -0.4242 -0.2100  0.6387
11532TIP3    H156011   6.476   4.856   1.825  0.4012  1.1488 -0.3829
11532TIP3    H256012   6.437   4.896   1.966  0.0884 -1.3378  0.2897
11533TIP3   OH256013   2.167   6.300  15.622 -0.4318  0.3231  0.5883
11533TIP3    H156014   2.106   6.230  15.599  1.3241 -0.4167 -2.4804
11533TIP3    H256015   2.250   6.254  15.639  0.4039  1.5325 -0.0603
11534TIP3   OH256016   4.511   0.282   4.626  0.3336  0.0838 -0.3673
11534TIP3    H156017   4.422   0.262   4.598 -0.0515 -1.9787  1.8924
11534TIP3    H256018   4.511   0.375   4.646 -1.3618  0.0860 -0.3075
11535TIP3   OH256019   6.295   2.874   1.836 -0.9621  0.2646 -0.0421
11535TIP3    H156020   6.214   2.891   1.884 -1.0079 -0.8643  0.3233
11535TIP3    H256021   6.362   2.866   1.904 -0.7421  0.1686 -0.2669
11536TIP3   OH256022   4.368   6.251   4.158  0.3381 -0.7821 -0.6167
11536TIP3    H156023   4.339   6.305   4.085 -0.2794  0.6570  0.6391
11536TIP3    H256024   4.287   6.218   4.197  0.6961 -2.5554 -1.2658
11537TIP3   OH256025   6.041   5.265   2.475 -0.2111  0.3612 -0.9345
11537TIP3    H156026   5.979   5.198   2.446 -1.1455  1.7413 -2.2803
11537TIP3    H256027   6.110   5.265   2.409  0.5019 -0.1822 -0.2081
11538TIP3   OH256028   2.276   1.073   4.666 -0.0543  0.3707 -0.2833
11538TIP3    H156029   2.291   1.008   4.735 -1.0305 -0.5812 -0.9350
11538TIP3    H256030   2.191   1.111   4.688 -0.0938  0.4833 -0.6360
11539TIP3   OH256031   4.558   4.647  14.972 -0.4875 -0.0492 -0.2683
11539TIP3    H156032   4.481   4.646  15.029 -0.7563  1.3950 -0.5596
11539TIP3    H256033   4.522   4.636  14.884 -0.1125 -1.8516 -0.2324
11540TIP3   OH256034   0.127   3.016  15.100 -0.2656  0.1981 -0.3859
11540TIP3    H156035   0.108   2.986  15.188  1.1996 -1.5088 -0.5829
11540TIP3    H256036   0.080   2.955  15.043 -0.8065  0.9907 -0.8049
11541TIP3   OH256037   4.972   3.530  15.509 -0.5173 -0.8330 -0.0975
11541TIP3    H156038   5.017   3.514  15.426  0.2743 -0.2084  0.2002
11541TIP3    H256039   4.996   3.455  15.564  1.4169  0.1891  0.5607
11542TIP3   OH256040   3.878   5.256  12.010  0.0090  0.1811  0.4857
11542TIP3    H156041   3.845   5.180  11.962  1.5187 -0.6872  0.7668
11542TIP3    H256042   3.946   5.292  11.954 -0.8310  1.4915  0.2581
11543TIP3   OH256043   3.634   2.546   3.559 -0.8359  0.1316  0.0401
11543TIP3    H156044   3.569   2.481   3.532 -0.0064 -0.2376 -1.1510
11543TIP3    H256045   3.621   2.619   3.500 -1.7004  1.0466  1.3151
11544TIP3   OH256046   0.881   3.324  15.212 -0.3229 -0.0591 -0.3078
11544TIP3    H156047   0.959   3.272  15.232  1.0640  1.0684 -2.4828
11544TIP3    H256048   0.847   3.348  15.298  1.7243 -0.5703  0.7239
11545TIP3   OH256049   0.742   0.796   1.209 -0.3344 -0.0455 -0.4853
11545TIP3    H156050   0.714   0.749   1.287  0.0313 -0.4465 -0.5937
11545TIP3    H256051   0.679   0.867   1.200 -0.3210  0.0682  0.2370
11546TIP3   OH256052   6.163   2.172   0.181  0.1237 -0.2129 -0.7706
11546TIP3    H156053   6.078   2.208   0.206  0.7080  1.2523 -0.7475
11546TIP3    H256054   6.173   2.094   0.236 -0.9226 -0.0537 -0.3243
11547TIP3   OH256055   4.458   3.481   3.555  0.1016  0.1801 -0.5250
11547TIP3    H156056   4.549   3.505   3.568 -0.2700  1.6248 -0.4016
11547TIP3    H256057   4.420   3.554   3.506 -0.6928 -0.9921 -1.7478
11548TIP3   OH256058   5.988   3.062   2.933  0.1612 -0.5703 -0.4703
11548TIP3    H156059   5.995   3.061   3.028 -1.2611  0.9533 -0.3110
11548TIP3    H256060   6.077   3.082   2.903  0.2360  1.0050  0.6576
11549TIP3   OH256061   3.502   1.251  12.065  0.1411  0.8328 -0.0358
11549TIP3    H156062   3.559   1.219  11.995  1.5612  0.8092  1.0964
11549TIP3    H256063   3.454   1.173  12.093  1.8778  0.1257  1.1158
11550TIP3   OH256064   2.802   6.009   5.147  0.0703 -0.2245  0.1646
11550TIP3    H156065   2.897   6.012   5.136  0.0529  0.9669  0.2288
11550TIP3    H256066   2.789   5.981   5.237  0.3302 -1.3433 -0.1244
11551TIP3   OH256067   4.900   0.777  11.782  0.0611 -0.4111 -0.2628
11551TIP3    H156068   4.976   0.719  11.783  0.4677  0.1122  0.2702
11551TIP3    H256069   4.933   0.861  11.814 -0.8041 -0.2600  0.2929
11552TIP3   OH256070   0.320   0.827  12.937  0.6136 -0.4819 -0.1310
11552TIP3    H156071   0.354   0.738  12.944  0.7892 -0.5068 -1.1646
11552TIP3    H256072   0.386   0.882  12.979 -0.0059 -0.9218  1.5156
11553TIP3   OH256073   2.880   4.083  15.461 -0.1832  0.2822  0.1035
11553TIP3    H156074   2.800   4.043  15.494 -0.0645 -0.3534 -0.3698
11553TIP3    H256075   2.912   4.136  15.534 -2.0484  2.1016 -0.2947
11554TIP3   OH256076   1.370   6.520  13.985  0.2664 -0.1137  0.0680
11554TIP3    H156077   1.312   6.460  14.033 -0.6564  0.5227 -0.2115
11554TIP3    H256078   1.311   6.587  13.950  1.2329  0.7906  0.1162
11555TIP3   OH256079   2.361   0.127   4.661 -0.0366  0.1567 -0.2300
11555TIP3    H156080   2.292   0.062   4.676  0.9946 -0.8417  0.3481
11555TIP3    H256081   2.442   0.076   4.662  0.7590  1.3921 -0.2844
11556TIP3   OH256082   6.698   4.800  12.215  0.3824  0.3470  0.0782
11556TIP3    H156083   6.696   4.704  12.214 -1.4270  0.2770  2.1101
11556TIP3    H256084   6.790   4.822  12.227  0.5929 -1.2712  2.0586
11557TIP3   OH256085   6.339   4.092  10.577 -0.0876  0.1028 -0.0679
11557TIP3    H156086   6.395   4.085  10.499 -1.3909 -0.6729 -0.9829
11557TIP3    H256087   6.293   4.008  10.580 -0.3932  0.3071  1.2914
11558TIP3   OH256088   3.630   1.686  16.933 -0.4035 -0.3535  0.0087
11558TIP3    H156089   3.610   1.620  17.000 -1.6627  1.0280  1.0443
11558TIP3    H256090   3.699   1.740  16.973  2.3761 -2.3195 -1.7458
11559TIP3   OH256091   2.419   0.922  16.444  0.1898 -0.2984  0.1931
11559TIP3    H156092   2.446   0.904  16.534  1.2763 -0.9048 -0.2387
11559TIP3    H256093   2.456   1.008  16.425  2.5326 -1.4183 -0.6290
11560TIP3   OH256094   2.853   2.276  14.463  0.4026 -0.2516 -0.2280
11560TIP3    H156095   2.891   2.362  14.482  3.1979 -1.5583  0.5493
11560TIP3    H256096   2.838   2.238  14.550 -1.9129 -0.1840 -0.5382
11561TIP3   OH256097   4.989   5.157   3.373 -0.6675 -0.0683  0.1870
11561TIP3    H156098   4.992   5.078   3.320 -1.7085 -1.3812  1.9753
11561TIP3    H256099   4.932   5.217   3.325  0.0099 -0.4420 -1.1126
11562TIP3   OH256100   6.112   2.209   4.872 -0.7991  0.0051 -0.2791
11562TIP3    H156101   6.168   2.286   4.859 -1.0035  0.0276 -1.0547
11562TIP3    H256102   6.173   2.137   4.887 -0.6116  0.3728  0.8389
11563TIP3   OH256103   4.817   5.364   5.619  0.0446  0.5567  0.2830
11563TIP3    H156104   4.736   5.405   5.648 -0.5683 -0.9957  0.8909
11563TIP3    H256105   4.817   5.375   5.524 -0.6546  0.9540  0.3205
11564TIP3   OH256106   4.433   2.439  16.494 -0.3192  0.2317  0.0127
11564TIP3    H156107   4.422   2.420  16.401 -0.2971 -1.0554  0.2423
11564TIP3    H256108   4.351   2.409  16.534 -0.3202  0.7555  0.4075
11565TIP3   OH256109   3.559   3.940   3.204  0.4764 -0.5198  0.0230
11565TIP3    H156110   3.511   4.011   3.246  1.2231 -0.1124  0.1905
11565TIP3    H256111   3.616   3.983   3.140  0.7315 -0.9893 -0.0735
11566TIP3   OH256112   0.598   5.935  13.383 -0.2342  0.3886 -0.6585
11566TIP3    H156113   0.580   6.028  13.398 -1.2511  0.0509  0.3107
11566TIP3    H256114   0.519   5.902  13.340 -0.6810 -0.4255  0.7354
11567TIP3   OH256115   5.473   0.916  10.398 -0.1297  0.2933 -0.5040
11567TIP3    H156116   5.568   0.919  10.404 -0.0099  0.1159 -1.9730
11567TIP3    H256117   5.446   1.007  10.382 -0.3284  0.5318  0.9890
11568TIP3   OH256118   0.058   0.714  11.176 -0.4404  0.2179 -1.0822
11568TIP3    H156119  -0.006   0.654  11.138 -0.2239 -0.8504  0.1492
11568TIP3    H256120   0.143   0.680  11.147 -0.2765 -0.5896  0.2609
11569TIP3   OH256121   1.201   6.290  15.601 -0.2355 -0.7353 -0.3517
11569TIP3    H156122   1.217   6.201  15.569  1.0980 -0.3754 -0.7431
11569TIP3    H256123   1.276   6.308  15.658 -0.4686  0.1568 -0.3150
11570TIP3   OH256124   1.650   5.297   0.114  0.7101 -0.1847 -0.3814
11570TIP3    H156125   1.740   5.289   0.083  0.0499  0.3267 -2.5922
11570TIP3    H256126   1.636   5.391   0.124 -0.0589 -0.1220 -1.7470
11571TIP3   OH256127   3.524   3.036  15.429 -0.3457  0.5360 -0.2707
11571TIP3    H156128   3.599   3.096  15.425 -1.1828  1.9322  2.4403
11571TIP3    H256129   3.479   3.060  15.510 -2.1277 -2.1705 -0.3379
11572TIP3   OH256130   1.385   5.330  16.600  0.5626 -0.0563 -0.4657
11572TIP3    H156131   1.331   5.305  16.675 -0.8523  0.6655 -1.2157
11572TIP3    H256132   1.393   5.250  16.548 -2.2994  0.4407 -1.8482
11573TIP3   OH256133   2.567   3.600  12.198 -0.3335 -0.2803  0.2690
11573TIP3    H156134   2.651   3.611  12.242  0.9446 -2.1787 -1.4824
11573TIP3    H256135   2.553   3.682  12.151  0.3772  0.1769  0.8400
11574TIP3   OH256136   2.643   4.446   0.574 -0.0588 -0.1492  0.8355
11574TIP3    H156137   2.690   4.508   0.629 -0.6278  0.1937  0.9448
11574TIP3    H256138   2.566   4.494   0.543 -0.3476 -0.6984  0.6738
11575TIP3   OH256139   6.629   5.363   0.574 -0.3439  0.4377 -0.1156
11575TIP3    H156140   6.543   5.388   0.608 -0.1273  0.5295  0.3775
11575TIP3    H256141   6.626   5.386   0.481 -0.3929  1.7191  0.1763
11576TIP3   OH256142   0.444   5.488   6.044  0.0207  0.7131 -0.2934
11576TIP3    H156143   0.530   5.447   6.045  0.9617  2.5930  0.2885
11576TIP3    H256144   0.394   5.436   5.981  1.1374 -1.2352  0.3525
11577TIP3   OH256145   1.331   4.056  15.142  0.4243  0.8014 -0.0651
11577TIP3    H156146   1.420   4.081  15.168  0.3712  1.0438 -0.1147
11577TIP3    H256147   1.318   4.100  15.058  0.7212 -0.2319 -0.6856
11578TIP3   OH256148   6.673   2.462  13.034  0.7080 -0.0429  0.0576
11578TIP3    H156149   6.636   2.447  12.947  1.2045  1.0684 -0.3642
11578TIP3    H256150   6.602   2.441  13.095 -0.0878  0.4893 -0.6718
11579TIP3   OH256151   2.813   6.468   1.747 -0.5055  0.1403  0.5082
11579TIP3    H156152   2.894   6.437   1.706 -0.2673  0.8948  0.4039
11579TIP3    H256153   2.743   6.428   1.696 -0.2082  0.8464 -0.4741
11580TIP3   OH256154   6.491   4.447   5.545 -0.8517  0.4906  0.0619
11580TIP3    H156155   6.458   4.359   5.527  0.1948 -0.5660  2.7236
11580TIP3    H256156   6.583   4.444   5.517 -1.3852  1.5945 -2.0527
11581TIP3   OH256157   1.923   0.039   3.897 -0.2301  0.7544 -0.2481
11581TIP3    H156158   1.984  -0.001   3.835  0.3268  0.2827  0.5824
11581TIP3    H256159   1.894  -0.034   3.953  1.2551  1.5562  1.6803
11582TIP3   OH256160   3.757   1.832  17.141  0.3795 -0.0813  0.0354
11582TIP3    H156161   3.821   1.784  17.194 -0.9469 -0.0049  1.7700
11582TIP3    H256162   3.766   1.923  17.169 -1.1194 -0.2065  1.0114
11583TIP3   OH256163   0.940   5.432   4.430 -0.2011  0.7231 -0.5030
11583TIP3    H156164   0.939   5.361   4.494 -0.3374  1.7457  0.6517
11583TIP3    H256165   1.023   5.477   4.445  0.7018 -0.1777 -2.3888
11584TIP3   OH256166   2.844   0.934  13.336  0.5851  0.4125  0.2069
11584TIP3    H156167   2.891   1.010  13.370 -0.6668  1.2341  0.1827
11584TIP3    H256168   2.761   0.934  13.383  0.2655 -0.5156 -0.3226
11585TIP3   OH256169   5.784   5.848  10.372  0.3446  0.2344  0.4912
11585TIP3    H156170   5.801   5.940  10.354  0.8314  0.1125  0.3161
11585TIP3    H256171   5.689   5.844  10.388 -0.5511  0.1412 -3.6251
11586TIP3   OH256172   4.917   2.906  15.231  0.4684  0.2407  0.2116
11586TIP3    H156173   4.875   2.936  15.150  0.1942  0.0196  0.2708
11586TIP3    H256174   4.873   2.824  15.253  1.9833 -0.8375 -0.5706
11587TIP3   OH256175   6.060   3.296  16.953 -0.1649 -0.3188  0.0349
11587TIP3    H156176   5.968   3.273  16.937  0.2708 -1.4723 -0.9873
11587TIP3    H256177   6.083   3.353  16.881 -0.1755  0.2757  0.4978
11588TIP3   OH256178   4.393   3.949  15.371 -0.2801 -0.5098  0.0573
11588TIP3    H156179   4.323   3.908  15.422  0.4875 -0.2424  1.3607
11588TIP3    H256180   4.414   4.029  15.420 -0.0737  0.1829 -1.1211
11589TIP3   OH256181   4.049   6.319  13.373  0.0495  0.1723 -0.2148
11589TIP3    H156182   4.089   6.369  13.302  0.9643 -1.6547 -1.0219
11589TIP3    H256183   3.978   6.271  13.332  0.8223 -1.1961 -0.0058
11590TIP3   OH256184   4.047   0.848  12.959  0.0605 -0.1288  0.2593
11590TIP3    H156185   4.014   0.919  12.905 -1.6448 -0.8726  0.2631
11590TIP3    H256186   4.080   0.783  12.897  0.4132  0.0886  0.2150
11591TIP3   OH256187   3.365   3.341   3.147  0.1364 -0.3916  0.5377
11591TIP3    H156188   3.391   3.318   3.058 -1.9999 -1.7429  0.1863
11591TIP3    H256189   3.394   3.268   3.201  0.0219 -0.3256  0.6907
11592TIP3   OH256190   1.741   4.299  16.466 -0.7530  0.4971  0.0305
11592TIP3    H156191   1.788   4.373  16.503 -0.1108  1.1250 -1.9225
11592TIP3    H256192   1.675   4.277  16.532 -1.0960  2.9224  0.6026
11593TIP3   OH256193   0.890   0.251   2.388 -0.2983  0.2479 -0.0851
11593TIP3    H156194   0.851   0.297   2.462  2.4485  1.5853  0.6551
11593TIP3    H256195   0.838   0.279   2.313 -1.3899  1.1146  0.9432
11594TIP3   OH256196   5.445   0.562   1.758  0.0530  0.1268 -0.3316
11594TIP3    H156197   5.482   0.593   1.675 -1.2862  1.0110 -0.6453
11594TIP3    H256198   5.481   0.621   1.824 -1.1260  1.3397 -0.7055
11595TIP3   OH256199   2.023   2.564  14.150 -0.6744  0.1989 -0.5116
11595TIP3    H156200   2.027   2.646  14.100  2.1458  0.4859  0.0098
11595TIP3    H256201   1.995   2.498  14.086  1.2748  0.8407 -2.1264
11596TIP3   OH256202   1.879   1.701   4.096  0.2230 -0.2602  0.3538
11596TIP3    H156203   1.961   1.748   4.083 -0.5937  0.5506 -2.8001
11596TIP3    H256204   1.815   1.770   4.115  0.1480 -0.8577  2.4870
11597TIP3   OH256205   1.528   4.427   1.561  0.3858  0.1916  0.5515
11597TIP3    H156206   1.591   4.492   1.529  0.8634 -1.2191 -1.6091
11597TIP3    H256207   1.447   4.446   1.512  0.2406 -0.2148  0.6286
11598TIP3   OH256208   3.523   3.314  15.231  0.6623 -0.1692 -0.0777
11598TIP3    H156209   3.606   3.316  15.280  1.2692 -1.0440 -1.0266
11598TIP3    H256210   3.513   3.404  15.199  1.8891 -0.2963 -0.9343
11599TIP3   OH256211   2.962   6.225  12.197 -0.2413 -0.5522  0.1409
11599TIP3    H156212   2.886   6.219  12.139 -1.1814 -1.8305  1.4341
11599TIP3    H256213   3.035   6.244  12.138 -1.4714  0.3126 -1.1899
11600TIP3   OH256214   5.739   1.422  11.177 -0.1610  0.5473 -0.3126
11600TIP3    H156215   5.729   1.515  11.155  0.9767  0.4920 -1.1848
11600TIP3    H256216   5.820   1.396  11.134  0.5448 -0.3921  1.4793
11601TIP3   OH256217   1.366   4.968   1.332  0.2070  0.0764 -0.5124
11601TIP3    H156218   1.362   4.981   1.238 -0.5697  2.9091 -0.1998
11601TIP3    H256219   1.447   5.012   1.359 -1.4706  2.9225  0.4394
11602TIP3   OH256220   1.695   5.512   3.284 -0.2960  0.0499  0.1824
11602TIP3    H156221   1.717   5.426   3.249 -0.1980  0.0935  0.1349
11602TIP3    H256222   1.743   5.574   3.228 -1.1233  0.1879 -0.3870
11603TIP3   OH256223   2.643   5.439  16.108  0.0513 -0.4322 -0.0712
11603TIP3    H156224   2.681   5.418  16.023  0.7987 -1.9106  0.5967
11603TIP3    H256225   2.554   5.468  16.087 -0.1041 -1.6656 -1.3142
11604TIP3   OH256226   5.190   5.415  14.496 -0.5294  0.2760 -0.5589
11604TIP3    H156227   5.262   5.473  14.521  0.3013 -0.9690  0.0445
11604TIP3    H256228   5.159   5.449  14.412  1.3065  0.3682 -1.2410
11605TIP3   OH256229   2.121   3.930   2.664  0.3550 -0.6755  0.1399
11605TIP3    H156230   2.164   3.845   2.651  0.2639 -0.4892 -1.7113
11605TIP3    H256231   2.028   3.910   2.660  0.3353 -0.4713 -0.5479
11606TIP3   OH256232   1.411   5.986  16.286  0.3388 -0.3059 -0.2243
11606TIP3    H156233   1.472   6.002  16.214 -2.0819  0.4654 -2.2385
11606TIP3    H256234   1.366   5.905  16.261  0.9130 -1.2440  1.5702
11607TIP3   OH256235   3.666   1.823  11.291 -0.0767 -0.3909  0.5451
11607TIP3    H156236   3.589   1.824  11.347  0.9997  2.2330  2.1566
11607TIP3    H256237   3.652   1.894  11.229  0.0622 -1.3970 -0.6858
11608TIP3   OH256238   5.685   2.045  12.098  0.4728 -0.3642 -0.3228
11608TIP3    H156239   5.605   2.097  12.094 -0.3683 -1.5506  0.7166
11608TIP3    H256240   5.656   1.956  12.118  2.1786 -0.3467  2.7869
11609TIP3   OH256241   1.911   1.351   6.271 -0.1441 -0.0694 -0.1800
11609TIP3    H156242   1.972   1.280   6.250  0.8805  0.1814  1.7453
11609TIP3    H256243   1.967   1.423   6.299 -1.2583  0.9174 -0.4080
11610TIP3   OH256244   2.080   2.512   4.576  0.0780 -0.2694  0.6153
11610TIP3    H156245   2.139   2.451   4.621 -1.6640 -1.4182  1.4742
11610TIP3    H256246   2.087   2.489   4.484  0.5426 -0.7786  0.7697
11611TIP3   OH256247   1.610   6.579  14.145 -0.8816 -0.0068 -0.5831
11611TIP3    H156248   1.599   6.516  14.216  2.4312 -0.4605 -0.3285
11611TIP3    H256249   1.521   6.592  14.111 -2.0294 -2.9536  0.9188
11612TIP3   OH256250   1.947   2.341  15.674 -0.4343 -0.7116  0.2070
11612TIP3    H156251   2.033   2.374  15.647 -0.5544 -1.2232 -0.8944
11612TIP3    H256252   1.967   2.265  15.728 -0.1667 -1.3915 -0.8010
11613TIP3   OH256253   1.647   2.292  16.703 -0.4822 -0.2984  0.1077
11613TIP3    H156254   1.726   2.249  16.736 -0.9205 -2.0741 -0.9949
11613TIP3    H256255   1.676   2.340  16.626 -0.2238  0.3071  0.5762
11614TIP3   OH256256   5.937   4.270   6.428 -0.0396 -0.0348 -0.6612
11614TIP3    H156257   5.986   4.194   6.396 -0.4114 -0.1617 -0.9413
11614TIP3    H256258   5.846   4.250   6.408 -0.2938 -0.1272  0.5001
11615TIP3   OH256259   6.229   1.196  15.186  0.0222  0.1344 -0.5205
11615TIP3    H156260   6.217   1.164  15.276  1.8194  1.3908  0.2228
11615TIP3    H256261   6.308   1.152  15.156  0.4456  1.0925 -0.8196
11616TIP3   OH256262   4.987   3.937   2.161 -0.9585 -0.1782 -0.5870
11616TIP3    H156263   5.049   3.935   2.089 -1.7805 -0.6650 -1.2963
11616TIP3    H256264   4.965   4.029   2.173  1.3511  0.2641  0.9787
11617TIP3   OH256265   3.120   6.365   1.271 -0.3599 -0.5335 -0.0928
11617TIP3    H156266   3.160   6.286   1.307  1.0107 -0.7185 -1.8633
11617TIP3    H256267   3.123   6.352   1.176 -1.5425  0.9764 -0.3766
11618TIP3   OH256268   4.218   4.060  14.883 -0.0063 -0.1033 -0.0893
11618TIP3    H156269   4.271   3.996  14.930 -0.6892  0.1917  1.1152
11618TIP3    H256270   4.141   4.074  14.938 -1.4972 -0.7134 -1.8866
11619TIP3   OH256271   4.584   5.028  11.908  0.3043  0.0328  0.7357
11619TIP3    H156272   4.517   5.081  11.951 -0.0010 -1.5148  2.2878
11619TIP3    H256273   4.557   4.937  11.925  1.4963 -0.6228 -0.7007
11620TIP3   OH256274   5.400   1.905   4.760 -0.6135  0.0192  0.2639
11620TIP3    H156275   5.417   1.815   4.787 -0.0506 -0.4854 -1.6449
11620TIP3    H256276   5.443   1.959   4.826  0.6166 -1.1370  0.4362
11621TIP3   OH256277   5.097   5.927  16.874 -0.4211  0.0251  0.6810
11621TIP3    H156278   5.171   5.928  16.813 -1.6833  0.4139 -0.9156
11621TIP3    H256279   5.079   6.020  16.891 -1.2744 -0.0143  0.0870
11622TIP3   OH256280   3.693   3.474  14.628  0.2803  0.4886 -0.1183
11622TIP3    H156281   3.651   3.557  14.651 -1.7145  0.3914 -2.9577
11622TIP3    H256282   3.707   3.479  14.534  2.6823 -1.3535  0.0490
11623TIP3   OH256283   5.616   1.467  15.441 -0.3065 -0.2051  0.0224
11623TIP3    H156284   5.536   1.506  15.407 -2.4353 -2.5334  1.9336
11623TIP3    H256285   5.587   1.417  15.517  2.9265 -1.5219  0.5313
11624TIP3   OH256286   1.031   4.246  17.421  0.0731 -0.0370 -0.1170
11624TIP3    H156287   0.970   4.320  17.419 -0.2065 -0.2139  1.2009
11624TIP3    H256288   1.001   4.189  17.350 -0.3537  0.6035 -0.4651
11625TIP3   OH256289   5.773   3.003   1.306 -0.4951  0.0510  0.3212
11625TIP3    H156290   5.705   2.981   1.242  0.1775 -1.1264 -0.0267
11625TIP3    H256291   5.742   3.082   1.348 -2.8967 -1.3107  1.3057
11626TIP3   OH256292   3.675   1.400   2.294 -0.0595  0.2442  0.2811
11626TIP3    H156293   3.732   1.345   2.349 -2.1317 -0.0583  2.2835
11626TIP3    H256294   3.671   1.484   2.340 -0.3413  0.6422 -0.4524
11627TIP3   OH256295   4.812   3.145  11.465 -0.3811  0.1863  0.1194
11627TIP3    H156296   4.856   3.116  11.545 -1.0520  0.9345  0.7829
11627TIP3    H256297   4.802   3.066  11.413  1.6929 -0.0179 -0.0448
11628TIP3   OH256298   0.725   1.679   4.850 -0.1010  0.2792  0.0085
11628TIP3    H156299   0.749   1.635   4.769  0.1027 -1.5120  0.9917
11628TIP3    H256300   0.631   1.696   4.841  0.1427  1.1834 -1.0567
11629TIP3   OH256301   2.698   6.263   4.446 -0.3793  0.0155 -0.0420
11629TIP3    H156302   2.660   6.175   4.451 -0.7929  0.1722 -0.3961
11629TIP3    H256303   2.680   6.301   4.531  0.2322 -0.4157  0.2871
11630TIP3   OH256304   2.249   3.316  16.530  0.2838 -0.0773 -0.1320
11630TIP3    H156305   2.154   3.321  16.531  0.1723 -1.4465  1.8476
11630TIP3    H256306   2.275   3.320  16.622  2.1245 -0.1275 -0.5977
11631TIP3   OH256307   5.538   4.739  12.420 -0.2923 -0.5774  0.1416
11631TIP3    H156308   5.495   4.705  12.341  0.6010 -0.1116 -0.5747
11631TIP3    H256309   5.620   4.777  12.387 -0.6478  1.0893  1.0658
11632TIP3   OH256310   3.034   2.141  13.047  0.4331  0.0659  0.0288
11632TIP3    H156311   2.953   2.090  13.056  1.1611 -0.7802  2.4658
11632TIP3    H256312   3.102   2.076  13.030  0.7777  0.6833 -1.0493
11633TIP3   OH256313   3.860   0.177  13.525 -0.1702 -0.5655 -0.0770
11633TIP3    H156314   3.892   0.267  13.525 -1.4478 -0.0843  0.3895
11633TIP3    H256315   3.910   0.133  13.594 -0.8006  0.2836  0.9484
11634TIP3   OH256316   5.728   3.480   2.022 -0.6846 -0.3705 -0.2061
11634TIP3    H156317   5.735   3.426   2.100  1.5226  0.3631  0.1686
11634TIP3    H256318   5.779   3.434   1.956 -3.0940 -1.3442 -1.5136
11635TIP3   OH256319   5.601   0.893  11.536  0.3363  0.4277  0.1811
11635TIP3    H156320   5.631   0.980  11.512  1.0770 -0.1108 -0.9129
11635TIP3    H256321   5.520   0.881  11.486  1.8160 -0.6476 -2.1322
11636TIP3   OH256322   6.100   2.509   2.803  0.2379  0.4406 -0.0327
11636TIP3    H156323   6.137   2.427   2.835  0.1787  0.2992 -0.3256
11636TIP3    H256324   6.014   2.485   2.769 -0.9933  1.0736  2.3988
11637TIP3   OH256325   0.810   3.828  14.446  0.2104  0.1390  0.0136
11637TIP3    H156326   0.754   3.764  14.401 -0.1881  0.3176  0.2473
11637TIP3    H256327   0.776   3.913  14.417  0.5716  0.2463 -0.0949
11638TIP3   OH256328   1.228   1.326   1.160 -0.1019  0.4137 -0.4044
11638TIP3    H156329   1.272   1.407   1.135  0.2380  0.0453 -1.0387
11638TIP3    H256330   1.245   1.266   1.087 -0.2837 -0.2506  0.0882
11639TIP3   OH256331   2.477   6.668  12.753 -0.0793  0.5925 -0.3112
11639TIP3    H156332   2.466   6.758  12.721 -0.3328 -0.0924 -2.3017
11639TIP3    H256333   2.417   6.662  12.827  0.1153  2.1294  0.0148
11640TIP3   OH256334   3.617   5.977   0.134 -0.3532  0.1398  0.5341
11640TIP3    H156335   3.670   6.056   0.143 -0.9200  0.4826  0.9213
11640TIP3    H256336   3.679   5.909   0.107  0.0970  0.7670 -0.0416
11641TIP3   OH256337   0.657   5.574  12.693 -0.1910 -0.3949  0.3024
11641TIP3    H156338   0.658   5.529  12.609 -3.3408 -0.6942  0.3373
11641TIP3    H256339   0.682   5.507  12.757 -1.3983 -1.1605 -0.0169
11642TIP3   OH256340   0.643   1.927   5.020 -0.8111 -0.2704 -0.0936
11642TIP3    H156341   0.589   1.848   5.026 -0.2902 -0.8536 -2.0820
11642TIP3    H256342   0.618   1.979   5.096 -2.0071 -1.8295  0.6527
11643TIP3   OH256343   6.300   2.724   1.573  0.5509 -0.5817  0.1797
11643TIP3    H156344   6.364   2.760   1.634 -0.0184 -1.2635  1.2113
11643TIP3    H256345   6.353   2.679   1.507  1.2469  1.4825 -0.7527
11644TIP3   OH256346   1.707   3.101   1.962  0.4043 -0.1226 -0.5124
11644TIP3    H156347   1.636   3.144   2.009 -0.0282 -0.0630 -1.2082
11644TIP3    H256348   1.787   3.139   1.998  0.0317  1.4552 -1.2839
11645TIP3   OH256349   3.920   1.421  15.798 -0.3495  0.6182  0.0212
11645TIP3    H156350   3.966   1.344  15.831  0.3300  1.4791  1.1245
11645TIP3    H256351   3.941   1.422  15.704 -1.1853 -1.0726 -0.2332
11646TIP3   OH256352   5.676   4.369  12.457  0.0653  0.2540 -0.5871
11646TIP3    H156353   5.582   4.358  12.445  0.2325 -1.3532 -0.5479
11646TIP3    H256354   5.699   4.310  12.528  0.9815  1.2550 -0.0217
11647TIP3   OH256355   0.493   3.843   0.365  0.6765 -0.0303 -0.0906
11647TIP3    H156356   0.562   3.866   0.426  0.6635  1.9506 -0.7394
11647TIP3    H256357   0.422   3.905   0.384  0.0921 -0.3474 -1.1217
11648TIP3   OH256358   6.647   3.072  11.119 -1.0485  0.3784  0.2008
11648TIP3    H156359   6.674   3.163  11.106  0.5721 -0.1200 -0.2248
11648TIP3    H256360   6.727   3.022  11.102 -1.9142 -1.1207  0.4514
11649TIP3   OH256361   5.566   6.021   6.044  0.2941 -0.0763 -0.2074
11649TIP3    H156362   5.522   6.069   6.115 -1.4190 -1.7693 -0.0388
11649TIP3    H256363   5.536   5.931   6.054  0.8747 -0.5786 -2.4471
11650TIP3   OH256364   3.677   3.242  11.510 -0.3431 -0.4498  0.6293
11650TIP3    H156365   3.687   3.305  11.581 -1.3979  0.0917  0.3121
11650TIP3    H256366   3.610   3.181  11.540 -0.1544 -0.7490  0.4603
11651TIP3   OH256367   3.954   5.461   2.931 -0.1197  0.0507 -0.6200
11651TIP3    H156368   3.866   5.437   2.901 -0.3687  2.9879 -2.6512
11651TIP3    H256369   4.012   5.431   2.861  0.3764 -0.6486  0.0721
11652TIP3   OH256370   4.236   5.456   5.654 -0.2309 -0.4834  0.4286
11652TIP3    H156371   4.237   5.498   5.740 -0.1415  0.2928  0.0554
11652TIP3    H256372   4.149   5.476   5.618 -0.0849 -0.3649  0.1328
11653TIP3   OH256373   5.271   1.439   3.249 -0.4605 -0.4642 -0.1860
11653TIP3    H156374   5.266   1.531   3.273  0.9302 -0.3620 -0.2133
11653TIP3    H256375   5.219   1.432   3.169 -1.1321  0.1494  0.1833
11654TIP3   OH256376   4.969   1.902   2.237  0.3852  0.6406 -0.1663
11654TIP3    H156377   4.962   1.961   2.312  2.2001  0.1849  0.4138
11654TIP3    H256378   4.960   1.814   2.275  0.6844  0.4334 -0.5623
11655TIP3   OH256379   5.270   2.271  11.135  0.2722  0.2749 -0.3387
11655TIP3    H156380   5.362   2.288  11.158  0.6775 -2.1588  0.0595
11655TIP3    H256381   5.257   2.317  11.052  1.8436  0.6877 -0.3818
11656TIP3   OH256382   4.497   2.101  14.830  0.1670  0.5229 -0.3092
11656TIP3    H156383   4.570   2.122  14.888 -0.4061 -0.4663  0.8027
11656TIP3    H256384   4.533   2.040  14.766  0.3529  0.1543  0.1459
11657TIP3   OH256385   2.043   6.638  12.815 -0.5163  0.1986 -0.2715
11657TIP3    H156386   2.080   6.699  12.879  0.0002 -0.5049  0.1167
11657TIP3    H256387   1.971   6.686  12.774 -0.3849  0.9127  0.3249
11658TIP3   OH256388   5.087   5.195  12.572  0.2983 -0.0047 -0.0591
11658TIP3    H156389   5.009   5.187  12.518  1.0505 -0.2577 -1.1408
11658TIP3    H256390   5.061   5.157  12.656 -1.0416  0.8492 -0.0602
11659TIP3   OH256391   5.379   0.117  12.160 -0.0513 -0.5220  0.5919
11659TIP3    H156392   5.422   0.066  12.091  0.2509 -0.4507  0.7258
11659TIP3    H256393   5.338   0.053  12.217 -1.3216 -0.5445 -0.3110
11660TIP3   OH256394   2.345   1.136  10.658  0.0932 -0.2098 -0.0679
11660TIP3    H156395   2.382   1.213  10.617  0.2047  0.3461  1.0302
11660TIP3    H256396   2.407   1.066  10.639  2.5291  0.9350  2.7703
11661TIP3   OH256397   0.229   4.158   2.278  0.3139  0.4149 -0.0485
11661TIP3    H156398   0.173   4.233   2.257  2.1012  1.9598  0.3711
11661TIP3    H256399   0.199   4.088   2.219  1.8209  2.9847 -4.3511
11662TIP3   OH256400   1.667   1.161  12.906 -0.4700  0.2060 -0.1708
11662TIP3    H156401   1.691   1.095  12.971  1.1900  0.8386 -0.1145
11662TIP3    H256402   1.744   1.169  12.850 -1.4424  0.5408 -1.5143
11663TIP3   OH256403   2.184   1.666   3.735  0.6615 -0.0285 -1.0623
11663TIP3    H156404   2.210   1.582   3.697  2.2776 -0.0482  0.0354
11663TIP3    H256405   2.253   1.688   3.797 -0.9753  0.9169  0.5243
11664TIP3   OH256406   0.092   0.755   1.228  0.3373  0.1892 -0.3794
11664TIP3    H156407   0.097   0.721   1.317  0.1499 -2.6692 -1.3463
11664TIP3    H256408   0.067   0.679   1.175  1.5535  1.5048 -3.0292
11665TIP3   OH256409   3.844   6.702  12.128  0.5495  0.5873 -0.1602
11665TIP3    H156410   3.860   6.608  12.137  1.4154  0.8667  1.8784
11665TIP3    H256411   3.928   6.738  12.100  0.1605  0.7583 -1.1538
11666TIP3   OH256412   6.618   3.253  16.781  0.0071  0.2957  0.1150
11666TIP3    H156413   6.549   3.211  16.832 -1.0152  2.2038  0.4091
11666TIP3    H256414   6.580   3.337  16.754  2.7295  2.2174  1.7210
11667TIP3   OH256415   5.352   1.531  14.907  0.6178 -0.4506 -0.4592
11667TIP3    H156416   5.406   1.574  14.841 -0.4483 -2.1067 -2.5324
11667TIP3    H256417   5.265   1.568  14.894  0.3637 -0.9016 -0.0760
11668TIP3   OH256418   3.783   4.209  15.090  0.6033  0.4066  1.3108
11668TIP3    H156419   3.753   4.153  15.161 -2.3496 -0.2158 -0.2648
11668TIP3    H256420   3.753   4.297  15.114 -1.7960 -0.0400  0.2665
11669TIP3   OH256421   3.151   1.076   3.970 -0.1539  0.6079 -0.3261
11669TIP3    H156422   3.104   0.993   3.969  1.1526 -0.2318  1.6310
11669TIP3    H256423   3.086   1.141   3.941 -3.1999 -0.1613  3.8437
11670TIP3   OH256424   1.584   3.173  16.719 -0.0229 -0.0657  0.0340
11670TIP3    H156425   1.660   3.125  16.686 -0.7271  0.3338 -2.3405
11670TIP3    H256426   1.620   3.257  16.747  0.6975 -0.6554  0.9479
11671TIP3   OH256427   5.068   6.732   3.738  0.3449 -0.4365 -0.1797
11671TIP3    H156428   5.142   6.685   3.776  0.6037  0.0893 -0.0368
11671TIP3    H256429   5.100   6.821   3.724  0.3263 -0.6403 -1.7911
11672TIP3   OH256430   2.147   3.798  12.551  0.0929 -0.4437  0.0435
11672TIP3    H156431   2.140   3.709  12.585  0.6961 -0.2241  0.7809
11672TIP3    H256432   2.235   3.804  12.514  0.1776 -0.0691  0.2890
11673TIP3   OH256433   1.493   3.615  12.250 -0.0501  0.0407  0.1222
11673TIP3    H156434   1.585   3.616  12.224  0.2647  1.2952  1.2051
11673TIP3    H256435   1.473   3.522  12.263  1.4990 -0.1607  1.3332
11674TIP3   OH256436   0.520   6.167   5.168  0.0901  0.3581 -0.7062
11674TIP3    H156437   0.471   6.249   5.172  0.9419  1.0050 -2.4442
11674TIP3    H256438   0.484   6.122   5.091  0.6335 -0.2325 -0.6181
11675TIP3   OH256439   2.575   2.342  14.400  0.1039  0.2096  0.1971
11675TIP3    H156440   2.590   2.373  14.489  2.5805  0.8009 -0.3323
11675TIP3    H256441   2.656   2.295  14.378  0.1448  1.2866 -2.1940
11676TIP3   OH256442   5.976   0.975   6.413  0.4837  0.1393  0.6353
11676TIP3    H156443   5.896   0.993   6.364  0.0698 -1.8533  0.4834
11676TIP3    H256444   6.020   0.907   6.362  1.3649 -0.0804  1.6504
11677TIP3   OH256445   3.283   0.938  17.056 -0.1695  0.0667 -0.6509
11677TIP3    H156446   3.201   0.940  17.104  0.2383  0.0395  0.0560
11677TIP3    H256447   3.305   0.845  17.050 -0.0701  0.0900 -0.6412
11678TIP3   OH256448   3.417   2.114  15.807 -0.1263  0.2369 -0.4486
11678TIP3    H156449   3.477   2.169  15.757  1.2646 -0.9977 -0.2085
11678TIP3    H256450   3.458   2.107  15.893  0.4638 -2.1946 -0.8535
11679TIP3   OH256451   5.176   0.088   4.178 -0.0447 -0.2621 -0.1888
11679TIP3    H156452   5.088   0.049   4.172  0.7811 -2.0007 -2.1146
11679TIP3    H256453   5.186   0.137   4.097  1.0249 -0.6930 -0.3332
11680TIP3   OH256454   3.404   5.043  12.255 -0.1630  0.4639  0.4144
11680TIP3    H156455   3.324   5.003  12.223 -0.3059  0.9519  0.1559
11680TIP3    H256456   3.376   5.099  12.328 -0.1197  0.9627  0.0546
11681TIP3   OH256457   1.547   1.226   3.663 -0.3621  0.2390  0.2544
11681TIP3    H156458   1.604   1.210   3.588 -0.8002  0.8747 -0.2268
11681TIP3    H256459   1.586   1.175   3.734  0.0310 -0.4117 -0.4132
11682TIP3   OH256460   3.548   4.243  15.893 -0.0236  0.5310  0.4998
11682TIP3    H156461   3.609   4.316  15.901 -1.5657  1.8956  0.2954
11682TIP3    H256462   3.473   4.279  15.846 -0.5366 -1.3936 -0.2797
11683TIP3   OH256463   6.427   6.279   2.864 -0.1079  0.1279 -0.5445
11683TIP3    H156464   6.509   6.235   2.888 -0.0185  0.5006 -0.1382
11683TIP3    H256465   6.388   6.304   2.948 -0.4161  0.3509 -0.7505
11684TIP3   OH256466   5.942   4.168  16.271 -0.1345  0.1903  0.4778
11684TIP3    H156467   5.960   4.230  16.341 -0.6442  1.8941 -0.8265
11684TIP3    H256468   6.028   4.145  16.235 -0.0070  1.9087 -0.4370
11685TIP3   OH256469   5.280   5.807  15.613  0.4006  0.0435  0.2157
11685TIP3    H156470   5.214   5.810  15.544  0.4680  0.3686  0.1637
11685TIP3    H256471   5.233   5.777  15.690  0.7096 -2.2438 -0.4117
11686TIP3   OH256472   1.450   1.437   5.708  0.2617 -0.1808 -0.1504
11686TIP3    H156473   1.389   1.509   5.720  0.2275 -0.1536 -0.4676
11686TIP3    H256474   1.535   1.472   5.736 -0.1423 -0.7455  1.8939
11687TIP3   OH256475   4.763   5.285   3.620  0.0688  0.4727 -0.1934
11687TIP3    H156476   4.780   5.370   3.579 -0.7204  1.1742  0.8713
11687TIP3    H256477   4.668   5.277   3.619 -0.1446  1.2998  2.9198
11688TIP3   OH256478   1.236   5.611  13.888 -0.1410  0.4935 -0.0731
11688TIP3    H156479   1.265   5.525  13.857 -0.1471  0.6107 -0.4072
11688TIP3    H256480   1.184   5.646  13.816 -1.1268  0.2827  0.5332
11689TIP3   OH256481   0.940   1.275   1.457 -0.0021  0.6531  0.0895
11689TIP3    H156482   1.019   1.328   1.450 -0.7027  1.5934 -1.1404
11689TIP3    H256483   0.900   1.280   1.370 -1.9753  1.1137  0.9699
11690TIP3   OH256484   2.234   2.318   3.437  0.5625  0.2286  0.4734
11690TIP3    H156485   2.292   2.382   3.477 -1.1650  2.7283 -0.7551
11690TIP3    H256486   2.271   2.302   3.350  0.9817 -0.4591  0.7717
11691TIP3   OH256487   2.037   6.744  16.446  0.0484  0.1381  0.2790
11691TIP3    H156488   2.064   6.807  16.380 -1.2891  0.7825  0.3241
11691TIP3    H256489   2.120   6.709  16.481  0.7705  0.3175 -1.2012
11692TIP3   OH256490   0.549   0.817  13.228  0.6760  0.0536 -0.2248
11692TIP3    H156491   0.621   0.773  13.274  0.8562  1.9626  1.4286
11692TIP3    H256492   0.492   0.746  13.200  1.3140 -1.2928  1.6933
11693TIP3   OH256493   1.678   5.710   2.878 -0.2265  0.5042 -0.3351
11693TIP3    H156494   1.715   5.785   2.830  1.5183 -0.8887 -1.2653
11693TIP3    H256495   1.720   5.713   2.964 -0.0906  0.5493 -0.4026
11694TIP3   OH256496   4.207   1.816  17.038 -0.3617 -0.4834 -0.0772
11694TIP3    H156497   4.226   1.807  17.131  1.5909 -0.2771 -0.4190
11694TIP3    H256498   4.284   1.860  17.001 -2.2170  1.8985 -1.3697
11695TIP3   OH256499   4.016   5.805   2.857 -0.3525 -0.9218  0.5347
11695TIP3    H156500   3.934   5.852   2.873 -0.6049 -1.6534  1.4274
11695TIP3    H256501   4.026   5.747   2.932  0.6286 -1.3560  0.0843
11696TIP3   OH256502   6.389   5.274  17.392 -0.4265 -0.4865 -0.1772
11696TIP3    H156503   6.354   5.348  17.441  0.9328  0.6960 -0.9092
11696TIP3    H256504   6.411   5.209  17.458 -0.5588  0.2344  0.5847
11697TIP3   OH256505   5.783   3.222   0.508 -0.2085 -0.1268  0.3984
11697TIP3    H156506   5.748   3.307   0.484 -0.9019  0.0384  1.8805
11697TIP3    H256507   5.872   3.222   0.473 -0.3117  1.0804  0.0994
11698TIP3   OH256508   5.429   2.145   2.501 -0.2468 -0.2445 -0.4187
11698TIP3    H156509   5.392   2.229   2.528 -0.4970  0.0708 -1.6761
11698TIP3    H256510   5.392   2.129   2.414 -1.6880 -2.5602  0.5109
11699TIP3   OH256511   0.915   0.404   3.755  0.0747  0.0613  0.2610
11699TIP3    H156512   0.833   0.378   3.713  1.1851 -0.2889 -1.7919
11699TIP3    H256513   0.941   0.484   3.710  1.5943 -0.6398 -0.1414
11700TIP3   OH256514   0.271   0.526   3.391 -0.0887  0.6971  0.4109
11700TIP3    H156515   0.322   0.580   3.450  1.5238  0.8575 -1.0387
11700TIP3    H256516   0.323   0.446   3.379 -1.1209 -0.0017  0.3876
11701TIP3   OH256517   2.207   5.680  13.443 -0.2799  0.5087  0.3574
11701TIP3    H156518   2.237   5.710  13.357  0.5435 -0.5119  0.2795
11701TIP3    H256519   2.287   5.661  13.491 -0.6980 -2.7762 -0.0323
11702TIP3   OH256520   3.043   5.773   2.790  0.4780 -0.7049 -0.2614
11702TIP3    H156521   2.996   5.740   2.714  0.0438  1.9355 -1.2503
11702TIP3    H256522   3.135   5.768   2.766  0.4139 -1.0604 -0.4361
11703TIP3   OH256523   2.256   5.064   2.801 -0.7858 -0.2023  0.3039
11703TIP3    H156524   2.334   5.044   2.853  2.4342 -0.7942 -4.1557
11703TIP3    H256525   2.198   4.990   2.816  0.5143 -0.9318  2.0730
11704TIP3   OH256526   6.651   5.829   3.215 -0.5979 -0.0202 -0.1357
11704TIP3    H156527   6.684   5.803   3.129 -0.7998 -3.0342  0.5993
11704TIP3    H256528   6.655   5.925   3.214  0.9442 -0.0148 -2.8634
11705TIP3   OH256529   1.321   1.341  16.465 -0.3295  0.2079 -0.4518
11705TIP3    H156530   1.250   1.293  16.423  1.7926 -2.3694 -1.4656
11705TIP3    H256531   1.356   1.397  16.396 -0.9733  1.0295 -0.1238
11706TIP3   OH256532   0.741   1.785  13.005  0.1369 -0.4179 -0.3525
11706TIP3    H156533   0.770   1.777  12.914  0.1549 -1.7047 -0.2479
11706TIP3    H256534   0.649   1.812  12.999  0.2479 -0.1128 -0.7367
11707TIP3   OH256535   2.658   3.027   1.443 -0.4280  0.3219 -0.3586
11707TIP3    H156536   2.655   2.932   1.438 -3.4487  0.2929  0.2449
11707TIP3    H256537   2.705   3.045   1.525 -0.6933 -0.6720  0.0216
11708TIP3   OH256538   4.365   3.283   4.058  0.1872  0.1462  0.4424
11708TIP3    H156539   4.282   3.237   4.050  0.3018  0.2219 -2.0858
11708TIP3    H256540   4.387   3.308   3.968  2.3599  1.1678  1.1895
11709TIP3   OH256541   4.415   1.450   1.986 -0.1803  0.3452  0.6838
11709TIP3    H156542   4.419   1.359   2.015  0.1678  0.1957  0.2005
11709TIP3    H256543   4.322   1.473   1.989 -0.7564 -1.0802 -2.2527
11710TIP3   OH256544   0.447   4.734   0.990  0.6110 -0.4952  0.0890
11710TIP3    H156545   0.508   4.787   1.041  2.1814 -1.0337 -1.1550
11710TIP3    H256546   0.390   4.797   0.947  2.6636  0.3083 -1.6411
11711TIP3   OH256547   1.688   1.577   6.116  0.2199  0.4946  0.5220
11711TIP3    H156548   1.647   1.650   6.162  0.3402  0.9867 -0.1446
11711TIP3    H256549   1.782   1.593   6.123  0.3164 -0.3819  1.6318
11712TIP3   OH256550   0.260   0.203  15.945 -0.2645 -0.1319  0.0188
11712TIP3    H156551   0.351   0.176  15.955 -0.5876 -1.1817  0.3096
11712TIP3    H256552   0.233   0.168  15.860 -1.0739 -1.9574  0.9770
11713TIP3   OH256553   5.854   6.636  16.478  0.5973 -0.5979 -0.2004
11713TIP3    H156554   5.861   6.548  16.441  0.5132  0.2864 -2.4822
11713TIP3    H256555   5.764   6.663  16.459  0.5653 -0.0513  0.6324
11714TIP3   OH256556   2.945   5.423   2.337  0.1983 -0.2321  0.2265
11714TIP3    H156557   2.959   5.355   2.271 -4.2536  0.0586 -1.3563
11714TIP3    H256558   2.986   5.501   2.300  1.6032 -1.0503 -0.0079
11715TIP3   OH256559   0.170   1.334  15.277 -0.5252 -0.0211 -0.3900
11715TIP3    H156560   0.124   1.260  15.239  0.3296 -0.3298 -0.8283
11715TIP3    H256561   0.163   1.404  15.212 -2.6799  0.8413  0.6536
11716TIP3   OH256562   2.182   0.582   5.714  0.1103 -0.1762  0.1915
11716TIP3    H156563   2.114   0.570   5.648 -0.6836 -1.2019  1.1764
11716TIP3    H256564   2.240   0.648   5.676 -1.2622  0.5123 -0.7914
11717TIP3   OH256565   2.967   3.707  16.057  0.2324 -0.5839  0.4148
11717TIP3    H156566   3.021   3.786  16.054 -0.9402  0.3391  2.0170
11717TIP3    H256567   2.948   3.687  15.965  1.2116  0.5254 -0.0553
11718TIP3   OH256568   0.103   0.468   2.292  0.2518  0.0568 -0.0597
11718TIP3    H156569   0.040   0.407   2.332 -1.2123  0.7659 -1.1998
11718TIP3    H256570   0.103   0.544   2.351  0.5575 -0.2113  0.2924
11719TIP3   OH256571   3.138   1.910  17.188 -0.1399  0.3221 -0.3153
11719TIP3    H156572   3.116   1.999  17.163  1.7147  0.2144 -2.6028
11719TIP3    H256573   3.092   1.855  17.124  1.0055 -0.2116 -0.6936
11720TIP3   OH256574   1.207   1.471  15.547  0.2450 -0.2346 -0.0592
11720TIP3    H156575   1.161   1.386  15.551 -1.0333  0.3818 -0.9151
11720TIP3    H256576   1.190   1.503  15.459 -1.5144  2.0965  1.0226
11721TIP3   OH256577   5.902   3.715  11.348 -0.6419 -0.5732 -0.1485
11721TIP3    H156578   5.832   3.729  11.411 -1.5766  0.4032 -1.3642
11721TIP3    H256579   5.892   3.786  11.285  2.0390  0.1567  0.1433
11722TIP3   OH256580   0.888   3.152   1.518  0.2611  0.0555  0.4819
11722TIP3    H156581   0.920   3.077   1.469  1.1744  0.9033 -0.2700
11722TIP3    H256582   0.903   3.227   1.460 -2.9725  0.5868  0.1430
11723TIP3   OH256583   0.376   5.663  11.797 -0.0754  0.7551  0.1443
11723TIP3    H156584   0.349   5.592  11.855  1.0412 -1.0637 -1.4511
11723TIP3    H256585   0.462   5.689  11.828 -0.3507  1.2333  0.5325
11724TIP3   OH256586   5.509   3.445   0.935 -0.2958 -0.5052 -0.0706
11724TIP3    H156587   5.599   3.465   0.910 -0.9371 -0.9820 -3.0966
11724TIP3    H256588   5.489   3.363   0.891 -2.6020  0.2287 -0.5263
11725TIP3   OH256589   3.752   5.255  16.726 -0.3161  0.4331 -0.2529
11725TIP3    H156590   3.769   5.171  16.769  0.5574  0.3574 -0.7090
11725TIP3    H256591   3.820   5.260  16.658 -1.3163  0.7996 -1.2457
11726TIP3   OH256592   5.434   5.574   3.813 -0.6454  0.4140 -0.3928
11726TIP3    H156593   5.459   5.499   3.867 -0.7977 -0.0781 -0.9880
11726TIP3    H256594   5.517   5.605   3.775 -0.5995  0.4609 -0.2531
11727TIP3   OH256595   1.645   5.595   2.565  0.3495  0.2573  0.1216
11727TIP3    H156596   1.717   5.602   2.627  0.5973  2.2172 -0.3100
11727TIP3    H256597   1.684   5.614   2.480 -0.3017 -0.7153 -0.4143
11728TIP3   OH256598   4.403   1.778   4.925 -0.1522 -0.2265 -0.2582
11728TIP3    H156599   4.310   1.762   4.941  0.1729 -0.3445  1.6898
11728TIP3    H256600   4.444   1.691   4.932  0.7494  0.3458  4.1173
11729TIP3   OH256601   5.427   5.930  11.666  0.0077  0.1593  0.2851
11729TIP3    H156602   5.440   5.955  11.574 -0.1478  1.5289  0.6145
11729TIP3    H256603   5.392   6.009  11.708 -1.3902 -0.8947  1.2157
11730TIP3   OH256604   4.933   0.271  13.638 -0.0614  0.0196 -0.1467
11730TIP3    H156605   4.933   0.193  13.693  1.4243  0.9402  1.2226
11730TIP3    H256606   5.024   0.298  13.634 -0.5098  1.5523 -0.8034
11731TIP3   OH256607   1.480   5.354  13.502 -0.2830  0.5873  0.0788
11731TIP3    H156608   1.490   5.294  13.576 -1.4265  1.4868  0.9873
11731TIP3    H256609   1.456   5.438  13.541  0.1962  1.3758 -1.2469
11732TIP3   OH256610   1.057   5.155   1.745 -0.3138 -0.8531  0.4167
11732TIP3    H156611   1.073   5.249   1.736  1.2152 -1.0352  0.9966
11732TIP3    H256612   1.082   5.118   1.660 -1.9832 -0.6436 -0.2088
11733TIP3   OH256613   2.250   6.050   0.839  0.3443 -0.6260  0.1422
11733TIP3    H156614   2.311   6.123   0.836 -0.3234 -0.0448  0.3030
11733TIP3    H256615   2.276   5.999   0.916 -1.0125  1.1196  1.8594
11734TIP3   OH256616   0.534   5.690   4.971 -0.2059  0.4137  0.1792
11734TIP3    H156617   0.546   5.643   4.888 -1.8653  2.2252 -1.1821
11734TIP3    H256618   0.608   5.751   4.975 -0.3832  0.6612 -0.2296
11735TIP3   OH256619   2.090   4.263  13.572  0.4679  0.2406  0.5916
11735TIP3    H156620   2.000   4.234  13.559  0.9070 -1.2439  0.6519
11735TIP3    H256621   2.127   4.269  13.484  0.8672 -1.1385  0.6339
11736TIP3   OH256622   2.639   4.046   2.851  0.2039 -0.2241 -0.1831
11736TIP3    H156623   2.707   4.079   2.793  0.0570 -1.9131 -1.3965
11736TIP3    H256624   2.628   3.954   2.826 -0.5235 -0.7839  1.9072
11737TIP3   OH256625   0.474   2.878   0.983 -0.3583  0.1495  0.4021
11737TIP3    H156626   0.540   2.853   1.048 -0.8042 -0.4501  0.6317
11737TIP3    H256627   0.413   2.934   1.031 -0.3016  0.2825  0.3199
11738TIP3   OH256628   2.616   1.771   0.129 -0.1477  0.5569  0.1953
11738TIP3    H156629   2.598   1.702   0.193  0.9797  0.4214  0.4019
11738TIP3    H256630   2.534   1.820   0.122 -1.3301 -1.4517 -0.7829
11739TIP3   OH256631   3.790   5.387  15.401 -0.5769 -0.4689 -0.3641
11739TIP3    H156632   3.813   5.303  15.442 -0.9890 -0.9419 -1.0715
11739TIP3    H256633   3.804   5.452  15.470  2.0668 -0.8044 -0.5076
11740TIP3   OH256634   0.448   6.028  15.675 -0.1914 -0.2660  0.1635
11740TIP3    H156635   0.463   5.956  15.613  1.3960  1.8777 -2.1268
11740TIP3    H256636   0.409   6.097  15.623  0.2081  1.2762  1.7937
11741TIP3   OH256637   4.787   4.774   1.753  0.1999 -0.1821  0.6510
11741TIP3    H156638   4.845   4.850   1.743  0.4728 -0.4384  0.2101
11741TIP3    H256639   4.729   4.796   1.825 -0.0901  0.6844  0.1640
11742TIP3   OH256640   1.007   5.470   0.008 -0.2148  0.4562  0.2269
11742TIP3    H156641   1.019   5.561   0.035 -0.4125  0.7073 -0.5057
11742TIP3    H256642   1.096   5.434   0.007  0.0154  1.0058 -0.7090
11743TIP3   OH256643   5.915   4.835   5.791 -0.0532  0.4272 -0.2973
11743TIP3    H156644   5.876   4.914   5.829  0.0283  0.9833 -1.3484
11743TIP3    H256645   5.933   4.779   5.867  0.7013  1.7715  0.5472
11744TIP3   OH256646   2.432   2.594   4.527 -0.0603  0.6794 -0.2707
11744TIP3    H156647   2.441   2.501   4.545 -0.4424  0.8367  0.8214
11744TIP3    H256648   2.475   2.607   4.442 -0.6205 -0.5968 -0.7706
11745TIP3   OH256649   3.159   5.293   4.327 -0.2962 -0.1436  0.0090
11745TIP3    H156650   3.175   5.214   4.377  0.0690  1.2131  2.1679
11745TIP3    H256651   3.235   5.349   4.344 -1.2105  1.2487 -0.2347
11746TIP3   OH256652   6.446   4.670  10.363 -0.3824 -0.7205  0.4589
11746TIP3    H156653   6.403   4.601  10.313  1.7561 -2.2668  0.5902
11746TIP3    H256654   6.432   4.646  10.454 -1.0174 -0.0516  0.5423
11747TIP3   OH256655   3.955   1.901   5.494  0.2490  0.5028 -0.2193
11747TIP3    H156656   4.001   1.853   5.425 -0.3122  0.4920 -0.5885
11747TIP3    H256657   4.011   1.977   5.511  2.5020 -1.4794  2.1418
11748TIP3   OH256658   1.475   0.905  11.103 -0.3963 -0.0697 -0.0211
11748TIP3    H156659   1.530   0.958  11.045 -3.3848  2.1503 -1.0684
11748TIP3    H256660   1.460   0.824  11.054 -0.1738  0.3905 -0.8682
11749TIP3   OH256661   5.516   5.651   5.055  0.2066 -0.0216  0.4134
11749TIP3    H156662   5.501   5.570   5.103  2.0955 -0.3639  0.4854
11749TIP3    H256663   5.542   5.715   5.121  1.8994 -0.2494  0.0102
11750TIP3   OH256664   4.231   0.712  10.806  0.3123  0.4506 -0.3679
11750TIP3    H156665   4.212   0.781  10.870  0.3230  0.2564 -0.1581
11750TIP3    H256666   4.169   0.729  10.734  1.8119  2.0537 -1.3530
11751TIP3   OH256667   2.350   1.425  16.290  0.2360  0.3532 -0.3670
11751TIP3    H156668   2.306   1.451  16.371 -0.5924 -0.2048 -0.6190
11751TIP3    H256669   2.278   1.399  16.232  0.8912 -0.3867 -0.8680
11752TIP3   OH256670   2.230   4.087  11.336 -0.2468  0.1895 -0.5674
11752TIP3    H156671   2.318   4.096  11.299 -0.7089 -0.2435 -1.8268
11752TIP3    H256672   2.181   4.159  11.297 -0.8920 -0.6217 -1.2822
11753TIP3   OH256673   0.930   4.748   1.698  0.3612  0.4676  0.3596
11753TIP3    H156674   0.872   4.819   1.725  0.4303  0.7751 -0.2981
11753TIP3    H256675   1.014   4.791   1.678  0.7441  0.0585  1.0484
11754TIP3   OH256676   6.358   5.966   3.758 -0.2800  0.6890  0.4262
11754TIP3    H156677   6.408   6.038   3.720  0.9557  0.2271  1.1082
11754TIP3    H256678   6.339   5.909   3.684 -1.1782  1.6358 -0.1039
11755TIP3   OH256679   5.404   6.520   3.377 -0.3895  0.7359 -0.4113
11755TIP3    H156680   5.366   6.589   3.431 -1.0988  0.4781 -0.5705
11755TIP3    H256681   5.401   6.442   3.433 -0.5757  0.6011 -0.6072
11756TIP3   OH256682   2.774   6.686   5.545 -0.3660 -0.7734  0.1051
11756TIP3    H156683   2.847   6.652   5.494 -0.4341 -1.5201  0.4924
11756TIP3    H256684   2.815   6.724   5.623 -0.3124 -0.2035 -0.1943
11757TIP3   OH256685   3.230   1.055   4.438 -0.4065  0.1752  0.0605
11757TIP3    H156686   3.223   0.988   4.370  1.2956 -1.1716  1.1111
11757TIP3    H256687   3.292   1.119   4.403  0.1846 -0.3259  0.1694
11758TIP3   OH256688   2.019   5.625  16.946  0.0840  0.5049 -0.0435
11758TIP3    H156689   1.980   5.633  16.859  4.0615  0.0831 -2.0929
11758TIP3    H256690   1.993   5.704  16.992  0.2728  2.2649 -2.7658
11759TIP3   OH256691   3.574   1.033   5.470 -0.6829  0.2618 -0.2899
11759TIP3    H156692   3.544   1.094   5.403 -1.6448  0.6728  0.5024
11759TIP3    H256693   3.637   0.977   5.424  0.7969  2.2764 -0.8555
11760TIP3   OH256694   3.645   4.881  12.210 -0.2495 -0.1532 -0.3923
11760TIP3    H156695   3.660   4.975  12.207  0.4329 -0.2703 -2.1381
11760TIP3    H256696   3.575   4.865  12.147 -0.2171 -0.8288 -0.2696
11761TIP3   OH256697   1.877   1.450  16.651  0.2633 -0.1254 -0.3460
11761TIP3    H156698   1.842   1.461  16.563  0.9011 -0.8013 -0.6959
11761TIP3    H256699   1.815   1.496  16.708 -0.8044 -0.6849 -1.0215
11762TIP3   OH256700   3.017   0.658   4.698 -0.1004 -0.1573 -0.1212
11762TIP3    H156701   3.014   0.750   4.671 -0.1377 -0.2506 -0.4340
11762TIP3    H256702   2.927   0.637   4.722 -0.3070 -0.4281 -1.1065
11763TIP3   OH256703   6.065   2.850   1.577 -0.2335  0.1272 -0.3903
11763TIP3    H156704   6.078   2.907   1.501  0.8888  0.3495 -0.0547
11763TIP3    H256705   6.149   2.806   1.587 -0.7557 -0.8064 -0.0003
11764TIP3   OH256706   0.295   1.335  10.983 -0.1513  0.8604 -0.3546
11764TIP3    H156707   0.200   1.336  10.972 -0.1429 -0.2686 -0.6465
11764TIP3    H256708   0.328   1.387  10.911 -0.5684  1.8840  0.1638
11765TIP3   OH256709   3.407   2.033   2.966  0.5531 -0.6993 -0.0151
11765TIP3    H156710   3.385   2.124   2.947  0.6664 -1.0131 -1.7661
11765TIP3    H256711   3.325   1.996   3.000  1.2345  0.7174  3.5795
11766TIP3   OH256712   0.456   3.381  11.144  0.3911  0.3806 -0.0831
11766TIP3    H156713   0.547   3.397  11.120  0.2025 -0.1373 -1.2111
11766TIP3    H256714   0.460   3.312  11.210  0.7605 -0.8028 -1.2902
11767TIP3   OH256715   0.771   0.128   1.738  0.1747 -0.1577 -0.2859
11767TIP3    H156716   0.795   0.069   1.667 -0.3227  1.1870 -1.6209
11767TIP3    H256717   0.678   0.147   1.723 -0.3970 -1.0681  1.6676
11768TIP3   OH256718   5.816   0.748   0.241  0.0883 -0.1730  0.1205
11768TIP3    H156719   5.905   0.742   0.207  0.6425  0.5938  1.3752
11768TIP3    H256720   5.766   0.790   0.170  1.7390  3.6722  0.9781
11769TIP3   OH256721   5.071   5.040  16.289  0.0156  0.1109  0.1887
11769TIP3    H156722   5.129   5.106  16.327 -0.3068  0.4394  0.1184
11769TIP3    H256723   5.028   4.999  16.364 -0.7199  0.8507  0.1831
11770TIP3   OH256724   4.233   2.375  17.132  0.3187 -0.6442  0.4475
11770TIP3    H156725   4.207   2.404  17.219 -1.1989  0.3361 -0.2977
11770TIP3    H256726   4.252   2.282  17.143  0.6589 -0.4297  1.9207
11771TIP3   OH256727   6.536   5.840   1.198 -0.2109 -0.5205 -0.6068
11771TIP3    H156728   6.557   5.872   1.111 -1.2003 -1.0857 -1.0703
11771TIP3    H256729   6.542   5.917   1.254 -1.0383  0.1596 -1.4370
11772TIP3   OH256730   6.131   3.006   0.999  0.5801  0.2647  0.0810
11772TIP3    H156731   6.161   2.937   0.940 -0.9063 -1.1704  0.9158
11772TIP3    H256732   6.036   3.011   0.985 -0.1425 -1.2945  3.3608
11773TIP3   OH256733   2.772   2.055  13.565  0.4104  0.0267  0.2813
11773TIP3    H156734   2.816   2.075  13.647  0.2656 -1.1086  0.6613
11773TIP3    H256735   2.700   1.996  13.589 -0.0121  0.1589 -0.5855
11774TIP3   OH256736   4.236   5.619  16.692 -0.5110  0.4347 -0.3490
11774TIP3    H156737   4.257   5.526  16.699 -0.8314  0.4459  1.2155
11774TIP3    H256738   4.159   5.630  16.749 -0.1730  1.7462 -0.1140
11775TIP3   OH256739   1.395   5.538   1.009  0.1686  0.9484  0.8096
11775TIP3    H156740   1.313   5.556   1.053 -0.7897  0.3256 -0.6330
11775TIP3    H256741   1.426   5.623   0.980 -0.7053  1.0556  0.1497
11776TIP3   OH256742   3.690   4.710   1.675 -0.0406  0.0383 -0.4334
11776TIP3    H156743   3.632   4.730   1.602 -0.2941  1.6594  0.1526
11776TIP3    H256744   3.635   4.722   1.753  0.3172 -1.3096  0.0475
11777TIP3   OH256745   4.766   4.084   0.775 -0.2239 -0.0387 -0.3276
11777TIP3    H156746   4.777   3.989   0.785 -0.7454 -0.0599  0.1349
11777TIP3    H256747   4.798   4.103   0.687 -1.8575 -0.9340 -1.1644
11778TIP3   OH256748   4.711   2.921   2.443 -0.1154  1.0733  0.0331
11778TIP3    H156749   4.754   2.837   2.423 -0.2579  1.0566 -0.2109
11778TIP3    H256750   4.625   2.914   2.402  0.1351  1.6148 -0.5990
11779TIP3   OH256751   6.254   2.663   2.949  0.2303  0.1806  0.1516
11779TIP3    H156752   6.197   2.602   2.902  0.3954  0.4302 -0.3845
11779TIP3    H256753   6.309   2.607   3.004  1.6482 -0.3591 -1.6739
11780TIP3   OH256754   1.364   4.928   2.615  0.1368 -0.2451 -0.5981
11780TIP3    H156755   1.412   4.921   2.697  0.5954  0.0394 -0.8422
11780TIP3    H256756   1.281   4.882   2.632  0.9756 -1.8205 -0.5672
11781TIP3   OH256757   5.387   6.691  16.277  0.6001 -0.2008  0.0369
11781TIP3    H156758   5.466   6.686  16.222  0.9703 -2.3266  0.6848
11781TIP3    H256759   5.375   6.602  16.310 -0.9350  0.5288  1.5796
11782TIP3   OH256760   6.593   5.257   5.900 -0.2695 -0.4182 -0.3189
11782TIP3    H156761   6.607   5.180   5.955 -1.7620  0.0827  0.8387
11782TIP3    H256762   6.586   5.221   5.811 -1.9201 -1.7914  0.2995
11783TIP3   OH256763   5.785   6.322   0.036 -0.3228 -0.9797 -0.0752
11783TIP3    H156764   5.862   6.376   0.017 -0.0073 -1.2180  0.5145
11783TIP3    H256765   5.711   6.383   0.033 -0.0139 -0.5853  0.2105
11784TIP3   OH256766   6.283   2.611  14.774  0.2878  0.3808  0.7542
11784TIP3    H156767   6.286   2.518  14.750  1.8723  0.5831 -0.0027
11784TIP3    H256768   6.275   2.656  14.690  1.7409  0.9721  0.9028
11785TIP3   OH256769   2.143   4.168   1.740  0.8754  0.1074  0.3613
11785TIP3    H156770   2.103   4.224   1.807  2.1739  0.7059  0.6543
11785TIP3    H256771   2.103   4.082   1.754 -0.8108  0.8279  0.1984
11786TIP3   OH256772   4.442   3.566  17.211 -0.6763 -0.0912  0.0955
11786TIP3    H156773   4.426   3.578  17.305 -0.9759  1.6717 -0.1411
11786TIP3    H256774   4.534   3.590  17.200 -0.5184 -0.7245 -0.0149
11787TIP3   OH256775   1.376   1.685  11.731 -0.3298  0.0463 -0.0548
11787TIP3    H156776   1.399   1.707  11.821 -0.6260 -0.1178  0.0623
11787TIP3    H256777   1.456   1.648  11.694  0.0866  1.0302 -0.1643
11788TIP3   OH256778   1.641   6.631  12.480 -0.7103 -0.2239  0.5916
11788TIP3    H156779   1.614   6.546  12.445 -0.6871 -0.8581  2.0273
11788TIP3    H256780   1.590   6.640  12.561  2.1770 -0.7855  2.6143
11789TIP3   OH256781   0.060   5.996  13.159 -0.5881 -0.1412 -0.0550
11789TIP3    H156782   0.015   6.079  13.180 -1.9745 -0.7737 -0.4174
11789TIP3    H256783   0.017   5.932  13.216  1.6362 -0.3721  1.4997
11790TIP3   OH256784   2.515   1.902   3.219  0.2671 -0.3408  0.5042
11790TIP3    H156785   2.477   1.869   3.138 -0.6869  1.3133  0.2241
11790TIP3    H256786   2.442   1.899   3.282  0.7087 -0.6165  1.0106
11791TIP3   OH256787   4.175   6.455   3.851 -0.4120 -0.3503  0.0229
11791TIP3    H156788   4.095   6.426   3.895  0.4568 -2.1652  0.5118
11791TIP3    H256789   4.224   6.501   3.918 -1.0053  0.7475 -0.2723
11792TIP3   OH256790   4.168   6.343  13.608 -0.3539 -0.8016 -0.6265
11792TIP3    H156791   4.095   6.320  13.551  1.3620 -2.3409 -2.3375
11792TIP3    H256792   4.212   6.415  13.563 -0.1662 -0.6370 -0.1862
11793TIP3   OH256793   0.245   3.571  13.600 -0.4358  0.1572 -0.1339
11793TIP3    H156794   0.179   3.597  13.536 -1.9171  0.9371  1.6214
11793TIP3    H256795   0.197   3.564  13.683  0.8099 -3.7439  0.4261
11794TIP3   OH256796   2.909   3.529  14.115  0.4300  0.1391 -0.0788
11794TIP3    H156797   2.961   3.602  14.148 -0.2148  0.6335 -0.1405
11794TIP3    H256798   2.908   3.465  14.186 -3.3542  2.3574  2.1948
11795TIP3   OH256799   1.630   6.736  17.272  0.1866 -0.1686  0.0886
11795TIP3    H156800   1.579   6.711  17.350  0.9822 -1.6834  0.1762
11795TIP3    H256801   1.707   6.780  17.307  0.4226 -0.6269  0.1542
11796TIP3   OH256802   2.101   0.429  16.659 -0.1959  0.0736  0.4791
11796TIP3    H156803   2.078   0.373  16.734 -0.5286 -0.7677 -0.2241
11796TIP3    H256804   2.021   0.431  16.606  0.2636  0.0246 -0.2297
11797TIP3   OH256805   0.720   2.225  15.315 -0.5203 -0.2890  0.2809
11797TIP3    H156806   0.669   2.190  15.387  0.1480 -0.1379  0.8416
11797TIP3    H256807   0.802   2.175  15.317 -0.3838 -0.0880 -0.1867
11798TIP3   OH256808   1.714   0.340   0.741  0.3550 -0.3176  0.2159
11798TIP3    H156809   1.795   0.359   0.788  0.7974 -1.6911  0.0511
11798TIP3    H256810   1.692   0.422   0.697  2.0813 -0.1183 -0.3626
11799TIP3   OH256811   5.215   5.529   1.393 -0.0852  0.0677  0.3692
11799TIP3    H156812   5.270   5.462   1.432  1.8785  1.1194 -0.4449
11799TIP3    H256813   5.189   5.493   1.309 -0.4582 -0.3366  0.6529
11800TIP3   OH256814   6.137   3.828   5.290 -0.0073 -0.1413  0.2008
11800TIP3    H156815   6.140   3.820   5.195 -1.0343 -2.3704  0.2943
11800TIP3    H256816   6.106   3.917   5.306 -0.9260 -0.1084 -1.5711
11801TIP3   OH256817   3.487   3.536   4.296 -0.5654  0.0805  0.1543
11801TIP3    H156818   3.497   3.631   4.304 -1.4611  0.1216  1.0333
11801TIP3    H256819   3.440   3.510   4.376  1.2245 -1.3556  0.8082
11802TIP3   OH256820   0.307   4.705   4.570  0.1072  0.2003 -0.0697
11802TIP3    H156821   0.390   4.752   4.571  0.4482 -0.3279 -1.0682
11802TIP3    H256822   0.259   4.744   4.497 -0.3598  0.2353  0.2553
11803TIP3   OH256823   1.919   2.158   0.379  0.2254 -0.5248  0.0186
11803TIP3    H156824   1.919   2.254   0.379  0.4832 -0.5113 -1.3776
11803TIP3    H256825   2.009   2.134   0.401 -0.1163 -0.4895  1.6108
11804TIP3   OH256826   2.888   4.959   5.094 -0.2304 -0.0472 -0.8797
11804TIP3    H156827   2.860   5.050   5.082  0.8780  0.2262 -1.6162
11804TIP3    H256828   2.831   4.908   5.037 -0.6821  0.2150 -0.6690
11805TIP3   OH256829   2.871   5.654   2.990 -0.5031  0.1091  0.1638
11805TIP3    H156830   2.856   5.577   2.935  1.9154  0.3811 -0.9951
11805TIP3    H256831   2.961   5.679   2.972 -0.8850  2.5976  1.3283
11806TIP3   OH256832   1.834   1.149  14.642  0.2695 -0.2568 -0.7817
11806TIP3    H156833   1.827   1.217  14.575  0.2439  1.5994  0.9941
11806TIP3    H256834   1.926   1.123  14.641  0.5632  0.7425 -0.6353
11807TIP3   OH256835   3.693   3.705   5.279 -0.2794 -0.3925 -0.0195
11807TIP3    H156836   3.760   3.711   5.211 -1.4383  0.9373 -1.0814
11807TIP3    H256837   3.640   3.629   5.254  0.4720 -1.1211  0.5309
11808TIP3   OH256838   4.843   2.253  16.601 -0.1010 -0.5181  0.1294
11808TIP3    H156839   4.776   2.322  16.600  0.5703  0.1709  1.1218
11808TIP3    H256840   4.923   2.297  16.572  0.3633 -0.8271  0.8971
11809TIP3   OH256841   4.536   3.596  14.525  0.0120 -0.1428 -0.4176
11809TIP3    H156842   4.443   3.619  14.518  0.2204  0.5420 -1.0699
11809TIP3    H256843   4.567   3.646  14.601  0.1133  0.5922 -0.9257
11810TIP3   OH256844   5.138   0.288  14.761  0.0544 -0.2617  0.1597
11810TIP3    H156845   5.160   0.195  14.754  0.4155 -0.2448  0.9670
11810TIP3    H256846   5.211   0.326  14.811  0.4872  0.6650 -1.1189
11811TIP3   OH256847   0.819   5.708   1.534 -0.1202  0.5537  0.1582
11811TIP3    H156848   0.759   5.738   1.603 -0.0809 -0.6933  0.7502
11811TIP3    H256849   0.794   5.759   1.457  0.2018  2.3879  1.2041
11812TIP3   OH256850   2.867   0.966  13.826 -0.0600 -0.2526  0.2335
11812TIP3    H156851   2.852   1.055  13.796  0.2499 -0.7624 -1.5447
11812TIP3    H256852   2.898   0.919  13.748  3.5795 -1.0218  1.9327
11813TIP3   OH256853   2.275   0.044   4.059 -0.3158 -0.6420  0.0253
11813TIP3    H156854   2.305   0.083   3.977 -1.0626 -0.8130 -0.3328
11813TIP3    H256855   2.285   0.114   4.123 -0.3111 -0.3115 -0.3320
11814TIP3   OH256856   4.759   5.562  11.212 -0.1935  0.6079 -0.0924
11814TIP3    H156857   4.674   5.524  11.231 -0.0723  0.5057  0.2538
11814TIP3    H256858   4.775   5.541  11.120  1.3648 -3.1116  0.8670
11815TIP3   OH256859   0.815   1.548  13.436  0.1411  0.6217 -0.2001
11815TIP3    H156860   0.819   1.559  13.341 -0.1279 -0.5335 -0.3573
11815TIP3    H256861   0.903   1.517  13.459 -0.1892 -0.4450 -0.2830
11816TIP3   OH256862   3.429   1.001  16.246  0.6519 -0.0899 -0.0664
11816TIP3    H156863   3.354   1.058  16.237  1.2827  0.6878 -0.5264
11816TIP3    H256864   3.394   0.921  16.286 -0.2878  0.4969  0.3066
11817TIP3   OH256865   2.647   5.085  14.266 -0.5372  0.1967 -0.0652
11817TIP3    H156866   2.660   5.045  14.352 -0.8406  0.9806  0.3533
11817TIP3    H256867   2.643   5.011  14.205 -0.1065 -0.3528  0.5626
11818TIP3   OH256868   4.346   4.042  14.613 -0.0496 -0.2120 -0.2968
11818TIP3    H156869   4.314   3.975  14.552 -1.4021  0.8055 -0.7574
11818TIP3    H256870   4.303   4.021  14.696  0.0200 -0.2767 -0.2768
11819TIP3   OH256871   3.273   2.325   5.474  0.6976 -0.5450  0.5963
11819TIP3    H156872   3.306   2.266   5.541  0.7094 -1.4186 -0.1610
11819TIP3    H256873   3.347   2.381   5.453  0.8518 -0.6251  0.9238
11820TIP3   OH256874   6.143   5.680  16.723 -0.5678 -0.1480  0.2016
11820TIP3    H156875   6.189   5.605  16.759  1.1059  0.6694 -0.1471
11820TIP3    H256876   6.210   5.729  16.675 -1.3953  1.9942  1.0900
11821TIP3   OH256877   3.987   6.033   5.751  0.4066 -0.3172  0.2652
11821TIP3    H156878   3.957   6.079   5.672  0.1324  0.2332  0.6857
11821TIP3    H256879   3.911   6.032   5.809  0.8769  0.1283  0.9098
11822TIP3   OH256880   6.423   4.734   4.547 -0.1127 -0.2155  0.0356
11822TIP3    H156881   6.332   4.748   4.573 -0.7999 -0.3299 -2.1114
11822TIP3    H256882   6.460   4.681   4.618 -1.1857  1.3005  1.8099
11823TIP3   OH256883   1.250   2.907   4.259 -0.5689  0.3232 -0.4473
11823TIP3    H156884   1.166   2.949   4.281 -0.0510  1.0535  0.2096
11823TIP3    H256885   1.316   2.970   4.288  0.2025  0.1721 -1.8040
11824TIP3   OH256886   3.232   2.575  13.235  0.6078 -0.0992 -0.0667
11824TIP3    H156887   3.202   2.541  13.319  0.5859  0.1977  0.0481
11824TIP3    H256888   3.327   2.578  13.242  0.6251 -0.3602 -0.1660
11825TIP3   OH256889   3.430   1.273  10.493  0.0760  0.7931 -0.2964
11825TIP3    H156890   3.467   1.255  10.407  1.2832 -1.4765  0.6140
11825TIP3    H256891   3.482   1.220  10.553  0.2704  3.4230  2.0719
11826TIP3   OH256892   6.164   1.031  14.955  0.3932 -0.0154  0.1392
11826TIP3    H156893   6.160   1.053  14.862 -2.3270 -1.2767 -0.1311
11826TIP3    H256894   6.140   1.111  15.000  2.6418  0.8751 -0.1173
11827TIP3   OH256895   0.619   4.182   1.092  0.2100  0.7055  0.1264
11827TIP3    H156896   0.682   4.225   1.149  0.4400 -0.1800  0.5614
11827TIP3    H256897   0.540   4.235   1.099  0.4405  0.9763  0.7624
11828TIP3   OH256898   4.566   5.360  11.259  0.2981  0.2640 -0.5009
11828TIP3    H156899   4.602   5.272  11.252  0.6951  0.2566  1.2403
11828TIP3    H256900   4.487   5.357  11.204  1.5638 -0.4232 -2.4052
11829TIP3   OH256901   5.938   3.650   2.840  0.2993 -0.4051  0.2587
11829TIP3    H156902   5.925   3.659   2.935  2.9761  1.7354  0.5508
11829TIP3    H256903   5.951   3.556   2.827 -2.3785 -1.0670  1.5789
11830TIP3   OH256904   4.689   5.484  11.960 -0.0981  0.2786 -0.2165
11830TIP3    H156905   4.600   5.509  11.986 -0.2309  1.0126 -1.3250
11830TIP3    H256906   4.689   5.388  11.966 -0.1210  0.3702  2.3767
11831TIP3   OH256907   3.099   6.616  11.303  0.5925  0.6042  0.0432
11831TIP3    H156908   3.037   6.554  11.265 -0.3283  1.0231  0.8131
11831TIP3    H256909   3.080   6.615  11.397  1.8304  0.6662  0.3187
11832TIP3   OH256910   4.867   0.091  15.341 -0.1028 -0.4086 -0.0765
11832TIP3    H156911   4.871  -0.005  15.339  1.4837 -0.3829 -1.5077
11832TIP3    H256912   4.940   0.116  15.398 -0.6737 -0.0600  0.4974
11833TIP3   OH256913   1.357   2.086  17.419  0.2754 -0.5942  0.7533
11833TIP3    H156914   1.342   2.039  17.502 -0.8055  1.9819  2.1310
11833TIP3    H256915   1.281   2.144  17.411  1.3611  0.6753 -1.0234
11834TIP3   OH256916   0.626   6.295  15.017  0.5572 -0.8103 -0.0296
11834TIP3    H156917   0.601   6.244  15.094 -0.3540  0.5496  0.6291
11834TIP3    H256918   0.551   6.289  14.958  1.9958 -3.4513 -1.7590
11835TIP3   OH256919   3.923   0.490   5.573 -0.0725  0.2967  0.6173
11835TIP3    H156920   3.889   0.401   5.587 -0.5210  0.0487 -1.5974
11835TIP3    H256921   3.864   0.546   5.623 -1.8372 -0.4260 -0.5281
11836TIP3   OH256922   3.873   6.600   3.176  0.1495  0.1110  0.5212
11836TIP3    H156923   3.912   6.586   3.090 -1.3239  0.7678 -0.3059
11836TIP3    H256924   3.873   6.695   3.187  0.1022  0.0425  1.1403
11837TIP3   OH256925   5.057   5.572   2.880  0.0045 -0.1272 -0.0527
11837TIP3    H156926   5.056   5.513   2.955  0.9971 -2.3425 -1.6675
11837TIP3    H256927   5.142   5.616   2.884  0.8160 -1.5666 -0.7792
11838TIP3   OH256928   5.394   0.033   2.456 -0.3905  0.3561  0.0941
11838TIP3    H156929   5.469   0.007   2.510  1.6765  1.1296 -2.2290
11838TIP3    H256930   5.391   0.129   2.464 -0.0883  0.4797 -1.0484
11839TIP3   OH256931   5.475   0.477   1.191  0.3472  0.0956 -0.1171
11839TIP3    H156932   5.554   0.528   1.209 -0.5925  0.8731  2.1285
11839TIP3    H256933   5.479   0.404   1.253 -0.4288 -0.1728 -0.3682
11840TIP3   OH256934   6.326   3.197  11.940 -0.1345 -0.8881 -0.1341
11840TIP3    H156935   6.271   3.219  12.015  2.6469 -0.0518  1.7946
11840TIP3    H256936   6.264   3.184  11.868 -2.7553  0.9558  1.6229
11841TIP3   OH256937   4.789   5.280  16.457 -0.0035  0.2544 -0.1940
11841TIP3    H156938   4.793   5.228  16.377  1.1844  1.5773 -1.0451
11841TIP3    H256939   4.879   5.283  16.488 -0.2998  0.5829  0.6575
11842TIP3   OH256940   2.682   4.906   0.274 -0.3291 -0.0361 -0.4026
11842TIP3    H156941   2.738   4.966   0.224  0.9596 -1.3256 -0.5962
11842TIP3    H256942   2.700   4.926   0.366 -0.4360  0.3447 -0.4658
11843TIP3   OH256943   2.963   3.658  10.733 -0.0565 -0.4340 -0.0078
11843TIP3    H156944   3.001   3.643  10.646 -0.2209 -1.7016  0.1098
11843TIP3    H256945   2.908   3.735  10.723  1.3881  0.5651 -0.5571
11844TIP3   OH256946   6.297   5.818   0.526 -0.1973  0.4392 -0.1094
11844TIP3    H156947   6.267   5.818   0.617 -0.5041 -0.1322 -0.2028
11844TIP3    H256948   6.316   5.909   0.507 -2.0987  0.8755 -0.1126
11845TIP3   OH256949   2.008   2.410   0.426  0.3018 -0.1658  0.0530
11845TIP3    H156950   1.954   2.373   0.496  0.6005 -0.2371  0.2511
11845TIP3    H256951   2.095   2.418   0.466 -0.1026  2.3775  0.6077
11846TIP3   OH256952   3.052   5.618   0.404  0.1985  0.3318  0.4114
11846TIP3    H156953   3.042   5.533   0.362  2.4612  0.0720  0.2789
11846TIP3    H256954   2.968   5.661   0.391 -0.8555 -1.6970  0.1001
11847TIP3   OH256955   5.831   3.664  14.344  0.3431  0.0709  0.0593
11847TIP3    H156956   5.860   3.755  14.347  0.0799  0.1650 -0.2037
11847TIP3    H256957   5.762   3.663  14.278 -0.3919 -0.1194  0.8157
11848TIP3   OH256958   1.921   2.350  13.003 -0.0045 -1.3310  0.0352
11848TIP3    H156959   1.974   2.297  12.943  1.4369 -0.0333  0.0967
11848TIP3    H256960   1.976   2.359  13.081  0.5045  1.4821 -0.5448
11849TIP3   OH256961   4.889   4.739  13.019 -0.1529 -0.0990  0.3018
11849TIP3    H156962   4.976   4.737  13.058  0.0479  0.9820 -0.0621
11849TIP3    H256963   4.830   4.721  13.092  0.2007  2.1313  1.2230
11850TIP3   OH256964   1.015   2.811  14.383  0.9529  0.1865  0.7169
11850TIP3    H156965   1.044   2.898  14.412  0.2872  0.7591 -0.2379
11850TIP3    H256966   1.082   2.783  14.321  0.1155  1.0086 -0.6245
11851TIP3   OH256967   3.979   4.483  10.535  0.3693  0.4056 -0.1314
11851TIP3    H156968   3.987   4.397  10.576  1.8158  1.1541  1.2448
11851TIP3    H256969   3.887   4.487  10.509 -0.3309 -0.6656  1.8632
11852TIP3   OH256970   5.506   3.225  10.098 -0.5395 -0.4977  0.4138
11852TIP3    H156971   5.494   3.178  10.180 -1.8656 -2.1904 -0.6899
11852TIP3    H256972   5.422   3.217  10.052  0.1603  0.3810 -1.1371
11853TIP3   OH256973   1.433   1.459   1.659 -0.7298 -0.3434  0.3947
11853TIP3    H156974   1.429   1.477   1.565 -0.5107  0.8697  0.5907
11853TIP3    H256975   1.507   1.399   1.669  3.5948  4.3023  0.3168
11854TIP3   OH256976   3.597   3.071  12.702 -0.1914  0.1676  0.6274
11854TIP3    H156977   3.528   3.093  12.639 -0.0689  1.0929  0.8139
11854TIP3    H256978   3.652   3.149  12.706  0.5150 -0.3350  0.9583
11855TIP3   OH256979   0.053   6.642  11.513  0.3503  0.1839 -0.5457
11855TIP3    H156980   0.064   6.551  11.483 -0.2600  0.0917 -0.4855
11855TIP3    H256981   0.117   6.691  11.461  0.8832 -0.3166 -0.3843
11856TIP3   OH256982   2.311   4.726   0.491  0.7479 -0.1531  0.0402
11856TIP3    H156983   2.389   4.769   0.525  0.9524 -1.2348  1.0017
11856TIP3    H256984   2.344   4.651   0.441  0.3707  0.3814 -1.0529
11857TIP3   OH256985   4.897   3.852  14.151 -0.0520  0.5131  0.5521
11857TIP3    H156986   4.883   3.761  14.126  0.5623  0.2372  1.1868
11857TIP3    H256987   4.984   3.874  14.115 -0.6830  1.2272 -0.6195
11858TIP3   OH256988   5.530   1.915   2.010  0.3047  0.2347 -0.3806
11858TIP3    H156989   5.486   1.969   1.945 -1.3150  2.2000  2.1534
11858TIP3    H256990   5.461   1.860   2.047  0.8414  0.2273  0.6712
11859TIP3   OH256991   1.623   6.292   2.730 -0.3813 -0.9350 -0.5471
11859TIP3    H156992   1.583   6.210   2.758  0.1646 -1.0883 -0.2041
11859TIP3    H256993   1.557   6.332   2.673 -1.0685 -1.1258  0.0943
11860TIP3   OH256994   5.540   2.239  16.127 -0.0111  0.8670 -0.0287
11860TIP3    H156995   5.519   2.324  16.089 -0.0609  0.8624 -0.0107
11860TIP3    H256996   5.533   2.252  16.222  0.7013  1.0376  0.0129
11861TIP3   OH256997   6.217   6.087   0.536  0.1688  0.8856  0.3163
11861TIP3    H156998   6.174   6.169   0.511  0.9567  1.5362  1.0256
11861TIP3    H256999   6.284   6.113   0.600  2.5291  0.1057 -1.6814
11862TIP3   OH257000   6.540   3.487   6.849 -0.0108 -0.1918 -0.3186
11862TIP3    H157001   6.555   3.454   6.760  0.2430 -1.1893  0.0785
11862TIP3    H257002   6.451   3.457   6.871  0.7399 -1.9495  0.5777
11863TIP3   OH257003   6.364   3.992   1.034  0.2109  0.3157  0.1420
11863TIP3    H157004   6.446   4.029   1.067 -0.1475  1.8156 -0.6096
11863TIP3    H257005   6.302   4.002   1.107  0.3054  0.5413  0.1911
11864TIP3   OH257006   2.738   2.582  16.460  0.2582 -0.1600  0.3453
11864TIP3    H157007   2.758   2.640  16.386  0.0066  2.9285  2.5136
11864TIP3    H257008   2.821   2.537  16.477  0.8542  0.5056 -0.6374
11865TIP3   OH257009   6.259   3.928  13.060 -0.0972  0.8716  0.0600
11865TIP3    H157010   6.308   3.995  13.013  1.5661 -0.6885 -0.5376
11865TIP3    H257011   6.297   3.929  13.148 -0.5983  1.1976  0.2801
11866TIP3   OH257012   4.832   5.695   4.052 -0.0917 -0.2307  0.4820
11866TIP3    H157013   4.781   5.776   4.052  0.1364 -0.0842  0.7079
11866TIP3    H257014   4.767   5.626   4.044 -0.1944  0.0286 -1.3004
11867TIP3   OH257015   0.861   2.088  16.754 -0.2775  0.7127  0.4979
11867TIP3    H157016   0.955   2.072  16.743 -0.3438  1.4662 -1.8832
11867TIP3    H257017   0.847   2.173  16.711 -1.7307  1.6831  2.7320
11868TIP3   OH257018   5.800   1.079  14.386 -0.8335  0.1594  0.3759
11868TIP3    H157019   5.806   1.124  14.302 -2.3124 -0.0657  0.1271
11868TIP3    H257020   5.869   1.118  14.439  1.5795 -1.1876 -1.5891
11869TIP3   OH257021   1.524   1.705  14.088  0.2142  0.3296 -0.1991
11869TIP3    H157022   1.435   1.672  14.070  0.4356  0.9867 -3.0266
11869TIP3    H257023   1.514   1.760  14.165 -2.0249  0.9936 -0.8822
11870TIP3   OH257024   3.534   6.451   1.832 -0.4472 -0.3941  0.5707
11870TIP3    H157025   3.575   6.393   1.896  4.6448  2.6650  0.6683
11870TIP3    H257026   3.519   6.533   1.879  0.5416  0.9609 -1.3179
11871TIP3   OH257027   2.654   0.078   3.489  0.6124  0.4190  0.0661
11871TIP3    H157028   2.724   0.015   3.506  0.1917 -0.1334 -0.2320
11871TIP3    H257029   2.642   0.124   3.572  0.7535 -0.0604  0.3534
11872TIP3   OH257030   0.631   4.218  16.641  0.2028  0.0248  1.0470
11872TIP3    H157031   0.547   4.187  16.676 -0.6363  0.4857 -0.4477
11872TIP3    H257032   0.621   4.212  16.546  1.3639  1.3618  0.8080
11873TIP3   OH257033   5.518   6.677  13.126  0.4486  0.4646  0.2513
11873TIP3    H157034   5.461   6.691  13.051  0.1238  0.2445  0.4533
11873TIP3    H257035   5.588   6.742  13.116  0.0403  0.8937  0.1239
11874TIP3   OH257036   2.102   2.674   1.973 -0.0495  0.0337 -0.0377
11874TIP3    H157037   2.105   2.712   1.886  2.3812 -0.9680 -0.4883
11874TIP3    H257038   2.145   2.739   2.029  0.0365 -0.1016  0.0545
11875TIP3   OH257039   1.113   4.332   4.534 -0.3665 -0.0554  0.4117
11875TIP3    H157040   1.084   4.389   4.605  3.3789  5.7199 -1.9610
11875TIP3    H257041   1.066   4.364   4.457  0.3899 -1.6736 -0.7772
11876TIP3   OH257042   5.696   1.777   1.816 -0.3581 -0.4288  0.2113
11876TIP3    H157043   5.634   1.795   1.887  0.4592  1.0322  0.5894
11876TIP3    H257044   5.656   1.817   1.739  1.4987  3.6140  1.0635
11877TIP3   OH257045   3.235   6.058   2.870 -0.2091  0.3921 -0.1675
11877TIP3    H157046   3.289   5.982   2.890 -1.0024 -0.0355  0.4350
11877TIP3    H257047   3.173   6.063   2.944 -0.1765  1.6085 -0.2023
11878TIP3   OH257048   0.009   1.886  12.770  0.1291  0.4124  0.1619
11878TIP3    H157049  -0.016   1.845  12.853  1.0102 -0.5323 -0.0178
11878TIP3    H257050   0.077   1.949  12.794 -0.2644  0.8080  0.2622
11879TIP3   OH257051   5.749   1.935  13.576  0.2214 -0.3981 -0.3979
11879TIP3    H157052   5.809   1.988  13.523  0.6367 -1.2453 -0.8106
11879TIP3    H257053   5.805   1.892  13.640  0.1905 -1.6944 -1.1890
11880TIP3   OH257054   0.473   4.067  15.995 -0.3793 -0.5084  0.0449
11880TIP3    H157055   0.399   4.012  16.022  0.0905 -1.4911 -0.5796
11880TIP3    H257056   0.475   4.058  15.899  0.1121  0.0792 -0.0020
11881TIP3   OH257057   0.064   3.855  16.904 -0.5390  0.4235 -0.0605
11881TIP3    H157058   0.061   3.945  16.938 -2.0487  0.8935 -1.3065
11881TIP3    H257059  -0.006   3.810  16.950 -2.1324  0.8805 -1.8909
11882TIP3   OH257060   4.108   3.686  13.240  0.0355 -0.0715  0.0301
11882TIP3    H157061   4.133   3.637  13.161  3.0449 -0.2795  0.9857
11882TIP3    H257062   4.121   3.623  13.312 -0.1031  0.8956  0.9225
11883TIP3   OH257063   0.121   6.363  17.315  0.0866  0.7170  0.0039
11883TIP3    H157064   0.146   6.418  17.242  2.3267 -0.1131  0.0726
11883TIP3    H257065   0.057   6.415  17.364  1.1478  2.7038 -0.6212
11884TIP3   OH257066   4.378   1.771   1.107 -0.0555  0.2004 -0.1018
11884TIP3    H157067   4.456   1.788   1.055 -0.5613  0.2925 -0.8555
11884TIP3    H257068   4.409   1.719   1.181  1.0017  1.7548  0.5774
11885TIP3   OH257069   0.885   2.630  16.843 -0.4565  0.0570  0.0905
11885TIP3    H157070   0.969   2.586  16.857 -0.7403 -0.0974  1.5119
11885TIP3    H257071   0.824   2.558  16.826 -0.2326  0.2035 -1.4635
11886TIP3   OH257072   6.184   0.225  11.231  0.2157 -0.1553  0.4136
11886TIP3    H157073   6.236   0.144  11.236  1.6505  0.7228  0.1999
11886TIP3    H257074   6.119   0.207  11.163  2.1379 -0.2863 -1.5227
11887TIP3   OH257075   3.301   5.156  12.474  0.1710  0.1988  0.3503
11887TIP3    H157076   3.351   5.235  12.496 -2.2393  2.2092 -0.7772
11887TIP3    H257077   3.282   5.114  12.558  1.4268  0.8548  0.9844
11888TIP3   OH257078   0.845   5.164  14.614  0.4458 -0.1348  0.2589
11888TIP3    H157079   0.806   5.230  14.557  0.5108  0.2652  0.6716
11888TIP3    H257080   0.841   5.083  14.563  1.8689  0.4936 -0.9488
11889TIP3   OH257081   4.275   1.268  16.405  0.4107 -0.0661  0.6618
11889TIP3    H157082   4.195   1.215  16.415  0.0909  0.0370 -1.1209
11889TIP3    H257083   4.247   1.357  16.425 -0.0998  0.0699 -0.5876
11890TIP3   OH257084   5.706   2.707   2.734 -0.2892 -0.0138 -0.3910
11890TIP3    H157085   5.699   2.801   2.718  0.4338 -0.2156 -2.1289
11890TIP3    H257086   5.774   2.699   2.801 -0.9655  0.7252  0.4049
11891TIP3   OH257087   4.264   5.156   1.664 -0.5468 -0.0725  0.0127
11891TIP3    H157088   4.213   5.098   1.607 -0.4680 -1.5438  1.3472
11891TIP3    H257089   4.349   5.112   1.673 -0.7431 -0.1743  1.6718
11892TIP3   OH257090   6.675   0.324  15.356  0.4550  0.3673  0.2662
11892TIP3    H157091   6.676   0.385  15.429 -1.7542  0.6329  0.1235
11892TIP3    H257092   6.696   0.378  15.279  1.4520  0.3394  0.5043
11893TIP3   OH257093   1.826   1.011  14.297  0.1552 -0.2111 -0.6616
11893TIP3    H157094   1.861   1.053  14.376 -5.0471  1.2351  1.2513
11893TIP3    H257095   1.809   1.083  14.236 -0.3928 -0.6858 -1.0845
11894TIP3   OH257096   2.202   2.536   2.543  0.0446  0.1467 -0.1586
11894TIP3    H157097   2.118   2.496   2.519 -0.9409  1.6708  0.6162
11894TIP3    H257098   2.247   2.467   2.592 -2.4406  0.4759  2.9226
11895TIP3   OH257099   0.838   4.757  11.605  0.2328 -0.5229 -0.4315
11895TIP3    H157100   0.922   4.796  11.629  0.7452 -2.2336  0.7226
11895TIP3    H257101   0.792   4.747  11.688  0.5757 -3.2852 -0.4830
11896TIP3   OH257102   5.305   0.394   1.477  0.3583 -0.1930 -0.5452
11896TIP3    H157103   5.358   0.463   1.515 -0.3136 -1.3407  2.8199
11896TIP3    H257104   5.367   0.339   1.429  2.6492 -1.8327  3.7372
11897TIP3   OH257105   2.462   4.435  12.249  0.3723  0.5056  0.1297
11897TIP3    H157106   2.397   4.431  12.179  0.7201 -0.2452 -0.1500
11897TIP3    H257107   2.409   4.439  12.329 -0.0441 -1.3960 -0.0211
11898TIP3   OH257108   0.198   1.178  14.197  0.5341  0.6629  0.2291
11898TIP3    H157109   0.190   1.191  14.103 -1.2936  1.4765  0.4660
11898TIP3    H257110   0.108   1.180  14.230  0.9888 -1.2788  1.7930
11899TIP3   OH257111   2.826   6.346   5.332  0.1569  0.1494  0.7100
11899TIP3    H157112   2.870   6.346   5.416  0.1028 -0.1831  0.7416
11899TIP3    H257113   2.894   6.321   5.269  0.1351  0.1370  0.6912
11900TIP3   OH257114   0.041   4.377   0.918  0.2836 -0.3850  0.0116
11900TIP3    H157115   0.060   4.359   0.826 -0.8490 -0.6514 -0.1812
11900TIP3    H257116  -0.034   4.437   0.916  2.3547  2.4854  0.7004
11901TIP3   OH257117   4.076   1.104   2.278 -0.1969  0.0326 -0.9443
11901TIP3    H157118   4.110   1.023   2.314 -0.5519 -0.9086 -2.6181
11901TIP3    H257119   4.022   1.141   2.348  1.8656  0.0870  0.6998
11902TIP3   OH257120   4.036   6.336  12.910  0.2073 -0.2255  0.3947
11902TIP3    H157121   4.129   6.315  12.909  0.4929  0.9678  0.3683
11902TIP3    H257122   4.020   6.379  12.826 -0.4256 -0.6378  0.2961
11903TIP3   OH257123   1.259   6.353  17.338 -0.5892  0.0843  0.2096
11903TIP3    H157124   1.297   6.440  17.337 -1.8728  0.7374  2.5994
11903TIP3    H257125   1.169   6.365  17.306 -0.5007 -0.5280 -0.2970
11904TIP3   OH257126   1.499   1.964  14.498 -0.1698  0.2858 -0.0244
11904TIP3    H157127   1.445   1.912  14.440 -0.7052  1.1579 -0.3262
11904TIP3    H257128   1.437   2.003  14.560  0.0751  1.3967 -0.4523
11905TIP3   OH257129   1.842   1.346   4.099  0.1904 -0.3210  0.8198
11905TIP3    H157130   1.872   1.261   4.066 -0.1807 -1.2064  2.6407
11905TIP3    H257131   1.923   1.393   4.121  0.3764 -1.0322  1.7260
11906TIP3   OH257132   5.044   5.261  15.585  0.9143 -0.1791 -0.3563
11906TIP3    H157133   4.964   5.303  15.552  1.0926  0.6651  0.2439
11906TIP3    H257134   5.032   5.168  15.565 -0.5278 -0.1677  0.2896
11907TIP3   OH257135   6.350   5.787   0.025  0.0569 -0.1875  0.6133
11907TIP3    H157136   6.407   5.750   0.092  0.7741 -0.5888 -0.2004
11907TIP3    H257137   6.401   5.857  -0.014  0.5130 -1.3149 -0.9257
11908TIP3   OH257138   0.405   0.864  11.914 -0.1296  0.4254  0.0684
11908TIP3    H157139   0.356   0.944  11.935 -0.6739  0.6688 -1.8819
11908TIP3    H257140   0.383   0.846  11.823  0.6148 -1.5263  0.2210
11909TIP3   OH257141   2.241   5.655   1.660 -0.1839 -0.5240  0.0071
11909TIP3    H157142   2.263   5.708   1.583  0.7326 -0.1063  0.5461
11909TIP3    H257143   2.288   5.573   1.646  2.7662  0.7469  1.6616
11910TIP3   OH257144   4.769   3.557   0.554 -0.0943 -0.4986 -0.0150
11910TIP3    H157145   4.837   3.625   0.557 -0.7634  0.2390 -0.9368
11910TIP3    H257146   4.693   3.598   0.597 -0.4309 -0.7324 -0.3781
11911TIP3   OH257147   4.327   0.410   1.562  0.3072 -0.1730  0.9456
11911TIP3    H157148   4.353   0.319   1.577  0.7650 -0.5865 -1.8352
11911TIP3    H257149   4.237   0.404   1.531  0.1814  0.3742  1.1958
11912TIP3   OH257150   2.359   3.617  14.435  0.4409  0.5005 -0.0033
11912TIP3    H157151   2.436   3.567  14.408 -0.6295 -1.2664  0.0064
11912TIP3    H257152   2.390   3.675  14.504  1.5732 -0.9600  0.7667
11913TIP3   OH257153   2.837   3.226  10.882 -0.7447  0.4784 -0.3057
11913TIP3    H157154   2.927   3.205  10.910  0.4966  3.4369 -1.6888
11913TIP3    H257155   2.803   3.143  10.849  0.9903 -1.0251  1.4012
11914TIP3   OH257156   5.300   5.048   2.725  0.0888 -0.5141  0.9251
11914TIP3    H157157   5.394   5.050   2.743  0.1093 -0.5333  0.8210
11914TIP3    H257158   5.288   5.109   2.652  0.0193 -0.5055  0.9432
11915TIP3   OH257159   3.511   6.624  16.126 -0.2060  0.2564 -0.0384
11915TIP3    H157160   3.435   6.639  16.182 -0.4383  1.9631 -0.7437
11915TIP3    H257161   3.482   6.557  16.064 -0.4741 -0.4885  0.8664
11916TIP3   OH257162   1.047   3.745   1.033  0.0648 -0.0582  0.1908
11916TIP3    H157163   1.073   3.708   0.949 -1.4613  3.2807 -1.9921
11916TIP3    H257164   1.043   3.839   1.017  0.3572  0.8283  4.2708
11917TIP3   OH257165   1.018   4.513   5.804  0.0109  0.6117  0.2482
11917TIP3    H157166   0.975   4.592   5.837 -1.1489 -0.4830  1.4429
11917TIP3    H257167   1.003   4.516   5.710  0.3953  2.0353  0.1937
11918TIP3   OH257168   5.558   5.528   0.647  0.0318  0.0382 -0.5094
11918TIP3    H157169   5.619   5.455   0.637  0.6985  0.6530 -1.0381
11918TIP3    H257170   5.473   5.486   0.656  0.4937 -0.8295 -0.0258
11919TIP3   OH257171   5.152   6.411   4.185  0.2109 -0.2662  0.1606
11919TIP3    H157172   5.238   6.370   4.194  0.2615 -0.2793 -0.3586
11919TIP3    H257173   5.119   6.418   4.275  1.6131  1.5632  0.6099
11920TIP3   OH257174   0.448   5.036  14.702  0.1352 -0.2302 -0.0647
11920TIP3    H157175   0.473   4.990  14.621  1.8540  1.0702 -0.3404
11920TIP3    H257176   0.356   5.061  14.688 -0.3583 -2.1789 -0.5360
11921TIP3   OH257177   4.978   5.210   2.494 -0.0154 -0.4897 -0.6972
11921TIP3    H157178   4.940   5.133   2.453 -2.3923  0.4919 -0.4826
11921TIP3    H257179   4.949   5.206   2.585 -1.1011  1.1489 -0.9267
11922TIP3   OH257180   1.381   3.341   5.275  0.0932 -0.4268 -0.1543
11922TIP3    H157181   1.291   3.319   5.252  0.2308  0.1327 -1.2900
11922TIP3    H257182   1.429   3.337   5.193  1.0921 -0.6070  0.4196
11923TIP3   OH257183   1.209   1.367  16.815 -0.3110 -0.5525  0.0913
11923TIP3    H157184   1.221   1.273  16.828 -0.2296 -0.4860  0.4859
11923TIP3    H257185   1.142   1.392  16.878  0.1915 -0.2080  0.5012
11924TIP3   OH257186   4.428   6.709   0.172  0.5409 -0.7185 -0.0275
11924TIP3    H157187   4.365   6.685   0.104  0.4117 -2.8522  0.7798
11924TIP3    H257188   4.390   6.676   0.253  1.6448 -0.0272  0.8023
11925TIP3   OH257189   4.017   0.971  13.209  0.2448  0.5312 -0.4677
11925TIP3    H157190   4.046   0.926  13.129  1.0930 -1.6123  0.9320
11925TIP3    H257191   4.075   0.937  13.277 -1.5381  0.9785  1.3638
11926TIP3   OH257192   0.845   1.639   1.436  0.5400 -0.2068  0.0693
11926TIP3    H157193   0.774   1.612   1.377  0.6639 -0.0750 -0.1418
11926TIP3    H257194   0.895   1.703   1.385  0.3371  0.3104  0.5098
11927TIP3   OH257195   6.148   4.720  16.306 -0.5230  0.5168 -0.4830
11927TIP3    H157196   6.071   4.755  16.351 -1.8243 -1.6028 -0.9405
11927TIP3    H257197   6.203   4.797  16.290 -1.4657  1.7682  1.8822
11928TIP3   OH257198   2.737   0.858  11.749 -0.0433  0.1344  0.1964
11928TIP3    H157199   2.789   0.826  11.823  1.0788  0.8098 -0.2838
11928TIP3    H257200   2.781   0.824  11.672 -0.9049 -0.1192 -0.2020
11929TIP3   OH257201   1.540   0.054  16.696  0.1267 -0.4715  0.0833
11929TIP3    H157202   1.599   0.095  16.760 -0.0231  0.2975 -0.2677
11929TIP3    H257203   1.592   0.048  16.616 -0.6383  1.3619 -0.5987
11930TIP3   OH257204   6.233   2.670  15.775  0.2823  0.3191  0.2847
11930TIP3    H157205   6.323   2.657  15.745  0.5220 -0.6670  1.3235
11930TIP3    H257206   6.179   2.638  15.703  0.8457 -2.2977  0.9110
11931TIP3   OH257207   6.487   0.539   0.531 -0.0638 -0.1367 -0.3863
11931TIP3    H157208   6.444   0.611   0.485 -0.9998 -1.7558 -2.2176
11931TIP3    H257209   6.470   0.555   0.624 -0.1315  2.0277 -0.7334
11932TIP3   OH257210   0.990   2.270   1.292  0.9299  0.5542  0.3771
11932TIP3    H157211   0.899   2.301   1.296  0.1036 -1.6806  0.7179
11932TIP3    H257212   1.037   2.328   1.351 -0.1063  2.2589 -0.4113
11933TIP3   OH257213   2.069   2.970  13.464 -0.4799 -0.2869  0.1601
11933TIP3    H157214   2.046   3.034  13.397  1.6837  0.7279  0.2965
11933TIP3    H257215   2.122   2.905  13.418 -1.2251 -1.0672  0.3755
11934TIP3   OH257216   2.294   3.139  15.399  0.4603 -0.2592  0.3918
11934TIP3    H157217   2.355   3.071  15.429  0.1756  0.0140  1.6258
11934TIP3    H257218   2.208   3.098  15.405  0.4836 -0.6678 -1.4152
11935TIP3   OH257219   5.071   5.278   2.996  0.4282  0.0250  0.6298
11935TIP3    H157220   5.003   5.255   3.059  0.0487  0.5835  0.4299
11935TIP3    H257221   5.129   5.337   3.043 -0.1611  0.8802  0.2977
11936TIP3   OH257222   0.159   4.353  12.534  0.9857 -0.2772 -0.2946
11936TIP3    H157223   0.219   4.294  12.490  0.7719 -0.8053  0.1115
11936TIP3    H257224   0.200   4.369  12.620  1.3490  0.6579 -0.6245
11937TIP3   OH257225   6.604   2.132  14.185 -0.2352 -0.5611 -0.4578
11937TIP3    H157226   6.622   2.219  14.220  0.3919 -0.1788 -1.6608
11937TIP3    H257227   6.509   2.123  14.187 -0.2160 -1.3091  3.0195
11938TIP3   OH257228   4.513   1.226   0.079  0.3059  0.1797  0.1603
11938TIP3    H157229   4.492   1.192  -0.007 -0.1901 -0.9889  0.7196
11938TIP3    H257230   4.429   1.234   0.124  0.5298  1.0066  0.4680
11939TIP3   OH257231   4.829   1.625  11.073  0.4569 -0.1490  0.0131
11939TIP3    H157232   4.875   1.643  11.155  2.0766  2.2579 -1.3338
11939TIP3    H257233   4.799   1.710  11.042  0.1285 -0.9487 -2.0460
11940TIP3   OH257234   4.619   1.912   4.232 -0.0358  0.0720 -0.5824
11940TIP3    H157235   4.614   1.876   4.320  0.9455 -1.7175 -1.2091
11940TIP3    H257236   4.627   1.836   4.175  1.1261  1.2301 -2.0665
11941TIP3   OH257237   2.008   3.624   0.392  0.2452  0.0737 -0.2661
11941TIP3    H157238   2.057   3.654   0.469  0.9198 -1.8875  0.1464
11941TIP3    H257239   2.044   3.537   0.375  0.6435  0.7438 -3.2758
11942TIP3   OH257240   6.685   1.235  13.591 -0.3227 -0.0035 -0.1843
11942TIP3    H157241   6.655   1.227  13.682 -1.1642 -1.1527 -0.5382
11942TIP3    H257242   6.706   1.328  13.581 -2.6367  0.6654  0.4616
11943TIP3   OH257243   3.394   4.177   3.286  0.4885  0.2371  0.5222
11943TIP3    H157244   3.308   4.138   3.302  0.5236 -0.6926 -1.2772
11943TIP3    H257245   3.415   4.222   3.367 -2.3277  1.7346  0.5562
11944TIP3   OH257246   2.074   2.677  15.120  0.5842  0.1067 -0.2223
11944TIP3    H157247   2.030   2.702  15.038 -0.0025  0.2912  0.1437
11944TIP3    H257248   2.068   2.581  15.121 -0.4742  0.1626  0.1762
11945TIP3   OH257249   6.072   2.146   3.780  0.5443  0.5750 -0.9004
11945TIP3    H157250   6.147   2.204   3.768  1.8174 -1.0821 -1.3663
11945TIP3    H257251   6.097   2.090   3.853  0.6096 -1.2236 -2.2430
11946TIP3   OH257252   6.371   4.013  15.842 -0.0126  0.5796  0.4145
11946TIP3    H157253   6.415   3.988  15.761  2.1925 -1.8773  2.1950
11946TIP3    H257254   6.286   3.970  15.837  0.4798 -0.3694 -0.2412
11947TIP3   OH257255   1.008   2.135   2.441  0.4807 -0.1965 -0.2406
11947TIP3    H157256   1.073   2.154   2.510 -0.2757  0.2164  0.3691
11947TIP3    H257257   0.961   2.059   2.474  0.4441 -0.3047 -0.5423
11948TIP3   OH257258   4.711   6.345  16.508 -1.1069  0.1770  0.1775
11948TIP3    H157259   4.739   6.434  16.485 -1.6007 -0.2235 -2.1786
11948TIP3    H257260   4.617   6.345  16.496 -1.2477 -0.4277  1.1481
11949TIP3   OH257261   1.681   5.438  12.114 -0.0208 -0.2211  0.1878
11949TIP3    H157262   1.759   5.391  12.085 -0.4779 -2.1800  1.8675
11949TIP3    H257263   1.609   5.396  12.067 -0.1984  0.8728 -0.5609
11950TIP3   OH257264   5.295   6.158  15.104 -0.4830 -0.1448  0.6164
11950TIP3    H157265   5.249   6.119  15.178 -0.9374 -0.9001 -0.0429
11950TIP3    H257266   5.267   6.107  15.029  0.0553  0.5362 -0.0688
11951TIP3   OH257267   4.020   2.697  14.964  0.2552  0.0248 -0.8652
11951TIP3    H157268   4.052   2.624  14.910 -1.5908  0.3723 -2.5113
11951TIP3    H257269   4.087   2.765  14.954  0.9267 -0.6526 -1.0829
11952TIP3   OH257270   5.579   3.057   5.337 -0.2328 -0.4116 -0.5280
11952TIP3    H157271   5.667   3.063   5.299  0.7084 -0.8668  1.4247
11952TIP3    H257272   5.552   3.148   5.348  0.1749 -0.2607 -0.7362
11953TIP3   OH257273   2.426   1.777   0.878  0.6247  0.3190 -0.6533
11953TIP3    H157274   2.459   1.695   0.840 -0.2770 -0.7570  0.7657
11953TIP3    H257275   2.504   1.821   0.910  0.9796 -0.8606  0.1630
11954TIP3   OH257276   3.476   0.053  16.585  0.5831  0.1017  0.2914
11954TIP3    H157277   3.384   0.076  16.594  0.8009  0.4455  1.9715
11954TIP3    H257278   3.481   0.005  16.502 -1.2354 -0.6515  0.5793
11955TIP3   OH257279   0.200   5.753  13.614 -0.2093 -0.1761 -0.0806
11955TIP3    H157280   0.212   5.660  13.633 -2.0602 -0.6571 -1.0290
11955TIP3    H257281   0.116   5.775  13.654 -0.6875  0.5928 -1.4382
11956TIP3   OH257282   2.401   1.006   1.454  0.5868  0.0107  0.2552
11956TIP3    H157283   2.385   1.096   1.485  0.1910  1.0975 -2.7557
11956TIP3    H257284   2.453   1.017   1.375  0.1090 -2.4097 -0.4723
11957TIP3   OH257285   5.900   4.601   4.663 -0.1019  0.4520  0.6925
11957TIP3    H157286   5.948   4.624   4.584  0.3362 -1.6961  0.2577
11957TIP3    H257287   5.968   4.577   4.727 -0.4343  2.4023  1.8554
11958TIP3   OH257288   5.254   4.250   2.751 -0.5506  0.2082 -0.2577
11958TIP3    H157289   5.192   4.211   2.689  0.6868 -1.8965 -0.2805
11958TIP3    H257290   5.294   4.322   2.702 -0.1089 -0.9539 -1.6798
11959TIP3   OH257291   4.703   4.781  12.489  0.4641  0.3751 -0.1941
11959TIP3    H157292   4.738   4.701  12.529  0.3952  0.4170 -0.0536
11959TIP3    H257293   4.685   4.839  12.562 -0.7354  0.0286 -0.2015
11960TIP3   OH257294   0.822   6.602   6.248  0.4234 -0.3571  0.2437
11960TIP3    H157295   0.836   6.695   6.266 -0.1903 -0.0472 -0.8140
11960TIP3    H257296   0.789   6.566   6.330  1.0975  0.2509  0.8002
11961TIP3   OH257297   1.112   5.666  17.157 -0.0325 -0.4256  0.4589
11961TIP3    H157298   1.189   5.684  17.211  1.4959 -1.5499 -1.2561
11961TIP3    H257299   1.110   5.571  17.147 -0.4889 -0.2760 -1.1402
11962TIP3   OH257300   3.688   6.383  11.536  0.1603  0.0061 -0.4533
11962TIP3    H157301   3.642   6.371  11.619  1.5751  1.8992  0.6867
11962TIP3    H257302   3.741   6.304  11.527  1.3789  0.5350  1.4353
11963TIP3   OH257303   2.576   1.915  15.419 -0.5127 -0.2293  0.5773
11963TIP3    H157304   2.580   1.922  15.514 -0.4278 -1.6397  0.6960
11963TIP3    H257305   2.641   1.849  15.397 -0.0143  0.6092 -0.5412
11964TIP3   OH257306   4.553   4.363  12.345 -0.2088  0.4804 -0.1616
11964TIP3    H157307   4.647   4.376  12.331 -0.1952 -1.8582 -3.1543
11964TIP3    H257308   4.547   4.284  12.398 -0.5071  0.5364 -0.1093
11965TIP3   OH257309   2.857   5.353  15.105  0.1317 -0.2150  0.2581
11965TIP3    H157310   2.778   5.299  15.093  0.5044 -0.9338  0.9590
11965TIP3    H257311   2.829   5.441  15.081 -1.2985 -0.1847  1.8242
11966TIP3   OH257312   3.243   3.279  17.346  0.3053 -0.2572 -0.6397
11966TIP3    H157313   3.209   3.278  17.256 -2.7832 -0.2243  0.4065
11966TIP3    H257314   3.223   3.191  17.380  0.7409 -0.0248  0.2514
11967TIP3   OH257315   3.737   2.821  10.909  0.2645 -0.2817 -0.0881
11967TIP3    H157316   3.648   2.835  10.940  0.2394  1.3642 -0.7786
11967TIP3    H257317   3.793   2.846  10.983  0.1646 -0.5366  0.0738
11968TIP3   OH257318   4.145   2.943  11.865 -0.0291 -0.0483 -0.1771
11968TIP3    H157319   4.192   3.025  11.852  1.0818 -0.6108  0.1881
11968TIP3    H257320   4.072   2.966  11.923 -0.3506  0.8727 -0.9179
11969TIP3   OH257321   2.027   1.716   2.449 -0.2094  0.9521  0.5137
11969TIP3    H157322   2.053   1.807   2.462 -1.1877  1.3291 -0.0226
11969TIP3    H257323   2.075   1.688   2.371 -2.0766  1.9732 -1.1098
11970TIP3   OH257324   4.677   1.208   5.154  0.6525  0.2031 -0.7210
11970TIP3    H157325   4.626   1.263   5.094  1.1340  2.2304  0.6229
11970TIP3    H257326   4.749   1.175   5.101 -0.9347 -1.1724 -2.1682
11971TIP3   OH257327   0.151   5.721   5.870 -0.1008  0.9009  0.3694
11971TIP3    H157328   0.099   5.765   5.938  0.2265 -0.7231  1.7295
11971TIP3    H257329   0.142   5.628   5.890  3.5349  0.5269  0.8453
11972TIP3   OH257330   1.230   1.302   4.774  0.3588 -0.5939  0.2098
11972TIP3    H157331   1.203   1.315   4.684  0.3487 -1.2928  0.1058
11972TIP3    H257332   1.324   1.284   4.769  0.3740 -0.5535  0.3438
11973TIP3   OH257333   5.145   6.726  11.337  0.2257  0.2028  0.7025
11973TIP3    H157334   5.141   6.750  11.245  1.0516 -2.1507  0.0075
11973TIP3    H257335   5.210   6.785  11.375 -0.3291  1.3765 -0.1190
11974TIP3   OH257336   0.192   2.762  13.845  0.0804  0.3835 -0.1623
11974TIP3    H157337   0.171   2.836  13.901  0.3391 -0.1956  0.7243
11974TIP3    H257338   0.144   2.779  13.764  0.7695  1.9031 -0.2843
11975TIP3   OH257339   3.111   6.011  16.688 -0.5291 -0.9516  0.2130
11975TIP3    H157340   3.148   6.050  16.609 -0.3507 -2.8838 -0.7254
11975TIP3    H257341   3.016   6.023  16.679 -0.4221  0.4559  0.6558
11976TIP3   OH257342   3.001   5.786  15.482  0.2113 -0.3292 -0.1865
11976TIP3    H157343   2.994   5.691  15.492 -1.6797 -0.1196  1.0603
11976TIP3    H257344   3.016   5.819  15.570  0.4953  0.5488 -0.5560
11977TIP3   OH257345   2.181   1.414   4.986 -0.3949 -0.0377  0.4797
11977TIP3    H157346   2.264   1.432   5.030 -0.4497 -0.4412  0.7490
11977TIP3    H257347   2.182   1.320   4.970 -0.3470  0.1107 -0.4458
11978TIP3   OH257348   6.251   1.193  14.325 -0.4606 -0.2060 -0.1441
11978TIP3    H157349   6.345   1.198  14.342 -0.3496  0.7135 -0.9086
11978TIP3    H257350   6.242   1.129  14.255 -0.1526  1.2431 -1.5648
11979TIP3   OH257351   1.947   5.466  13.809 -0.3853  0.5941 -0.3128
11979TIP3    H157352   1.887   5.392  13.796  0.3468 -0.1384  0.3078
11979TIP3    H257353   1.916   5.508  13.889 -0.2735  0.4176 -0.1760
11980TIP3   OH257354   3.496   3.573  15.123  0.0760  0.6232  0.6517
11980TIP3    H157355   3.421   3.585  15.181 -1.3213  0.8647 -1.1036
11980TIP3    H257356   3.472   3.621  15.043  1.3413 -0.7469 -0.6054
11981TIP3   OH257357   3.948   4.637  15.132  0.4653  0.4831  0.2577
11981TIP3    H157358   3.878   4.626  15.069 -0.6975 -0.9925  1.7233
11981TIP3    H257359   3.980   4.549  15.149 -0.5216  0.5572  3.0206
11982TIP3   OH257360   1.652   4.070   2.540 -0.0550  0.0022 -0.4423
11982TIP3    H157361   1.622   3.985   2.507 -0.0710  0.0370 -0.5172
11982TIP3    H257362   1.613   4.076   2.627  0.4200 -0.3232 -0.2069
11983TIP3   OH257363   1.754   3.835   3.415 -0.2322 -0.2636  0.4510
11983TIP3    H157364   1.751   3.920   3.460  0.0523 -0.5542  1.0293
11983TIP3    H257365   1.826   3.844   3.352 -0.5247  0.0874  0.1610
11984TIP3   OH257366   2.379   1.794   4.067 -0.6025 -0.2409  0.2440
11984TIP3    H157367   2.440   1.742   4.119 -2.8552 -1.9580  1.3255
11984TIP3    H257368   2.375   1.749   3.982  0.0004  0.1886 -0.0203
11985TIP3   OH257369   0.099   1.804  14.910 -0.2223  0.4908  0.3418
11985TIP3    H157370   0.032   1.820  14.844  0.6924  1.2207 -0.4369
11985TIP3    H257371   0.051   1.768  14.985 -1.5623  1.5419  0.0249
11986TIP3   OH257372   2.031   4.060   2.428  0.0799 -0.7556  0.3047
11986TIP3    H157373   2.063   4.027   2.513  0.8916  0.6916  0.5975
11986TIP3    H257374   2.000   3.982   2.383  2.6987 -2.1083  0.6069
11987TIP3   OH257375   1.951   4.111  10.385  0.2080 -0.6115  0.1501
11987TIP3    H157376   2.027   4.053  10.392  0.3550 -0.5482 -0.8563
11987TIP3    H257377   1.983   4.189  10.340 -0.8613 -1.3982 -2.1305
11988TIP3   OH257378   3.310   2.008  13.052  0.4857  0.5024  0.1114
11988TIP3    H157379   3.257   1.936  13.085  0.7227  0.7429  1.0487
11988TIP3    H257380   3.383   2.014  13.114  0.6740  1.2920 -0.1749
11989TIP3   OH257381   6.518   5.158   4.203 -0.0150 -0.4037  0.4522
11989TIP3    H157382   6.475   5.208   4.272  1.4558 -0.9520  1.8535
11989TIP3    H257383   6.540   5.075   4.244  1.7652 -0.3876 -0.3501
11990TIP3   OH257384   4.073   1.725   3.470  0.0610  0.4041  0.0788
11990TIP3    H157385   4.071   1.764   3.558 -1.3324  0.7393 -0.0865
11990TIP3    H257386   4.082   1.631   3.486 -0.2022  0.4601  0.5734
11991TIP3   OH257387   1.468   5.595  15.346 -0.2867 -0.7115 -0.5973
11991TIP3    H157388   1.379   5.579  15.377  0.1246 -0.9688  0.4862
11991TIP3    H257389   1.515   5.514  15.366  0.6024  0.0364  0.4047
11992TIP3   OH257390   2.417   3.228  12.907 -0.5316 -0.5584  0.0753
11992TIP3    H157391   2.416   3.304  12.849 -1.9998 -0.4346  0.2332
11992TIP3    H257392   2.325   3.203  12.917 -0.1920 -1.5102  1.1386
11993TIP3   OH257393   4.489   5.470  12.180  0.0038 -0.1327  0.6340
11993TIP3    H157394   4.430   5.435  12.247  0.4629  0.0937  1.1587
11993TIP3    H257395   4.447   5.551  12.152  0.8237  0.8615  2.1368
11994TIP3   OH257396   1.865   2.687  17.406  0.2712 -0.1663  0.3851
11994TIP3    H157397   1.860   2.631  17.483  0.0171  0.8228  1.1143
11994TIP3    H257398   1.946   2.736  17.417  0.4768 -0.3597 -0.2283
11995TIP3   OH257399   4.924   3.421   0.045  0.0574 -0.0303  0.5919
11995TIP3    H157400   4.837   3.405   0.081  0.0338 -0.8248  0.2090
11995TIP3    H257401   4.975   3.457   0.118 -0.1973 -0.9093  1.2105
11996TIP3   OH257402   3.612   2.429   3.263 -0.5570  0.0166  0.6078
11996TIP3    H157403   3.702   2.448   3.288 -0.4857  0.3811  0.0953
11996TIP3    H257404   3.570   2.400   3.344  0.6846 -2.7665  0.3444
11997TIP3   OH257405   3.421   4.589   0.086 -0.0350  0.2045 -0.1545
11997TIP3    H157406   3.336   4.608   0.126  0.1504 -0.2691  0.4786
11997TIP3    H257407   3.399   4.544   0.004 -0.3995  0.2320 -0.0728
11998TIP3   OH257408   6.040   1.445   1.035 -0.4336 -0.7998 -0.3050
11998TIP3    H157409   5.996   1.400   0.962  0.3896 -0.4780 -1.0245
11998TIP3    H257410   6.024   1.538   1.019 -0.9482 -0.7606  0.4008
11999TIP3   OH257411   5.800   3.216  16.570 -0.6081  0.5998  0.3995
11999TIP3    H157412   5.869   3.184  16.512 -0.5118 -0.2990  0.9859
11999TIP3    H257413   5.828   3.305  16.594  0.8734 -0.0752  1.3855
12000TIP3   OH257414   6.260   5.098   5.356 -0.3527  0.1928  0.5350
12000TIP3    H157415   6.206   5.097   5.278 -0.4632  0.6550  0.6030
12000TIP3    H257416   6.200   5.118   5.428  0.0232  1.5451  0.5048
12001TIP3   OH257417   2.976   6.429  15.685  0.4695 -0.9869 -0.0316
12001TIP3    H157418   2.937   6.515  15.701 -1.5139 -1.8107 -0.0606
12001TIP3    H257419   3.009   6.434  15.596  0.4116 -0.2505 -0.0205
12002TIP3   OH257420   5.952   4.302   0.286  0.2332 -0.1475 -0.1731
12002TIP3    H157421   5.918   4.241   0.220  0.6547 -1.6986  0.9635
12002TIP3    H257422   6.045   4.280   0.294  0.6341  1.3640 -0.4459
12003TIP3   OH257423   3.326   4.486   3.303  0.4634  0.0982  0.0301
12003TIP3    H157424   3.323   4.433   3.382 -1.0167  0.0731 -0.0194
12003TIP3    H257425   3.419   4.509   3.293  0.9687 -1.5558  0.6457
12004TIP3   OH257426   2.445   0.920   4.961  0.4074  0.4365  0.1478
12004TIP3    H157427   2.522   0.932   4.907 -0.2705  0.4401 -0.8359
12004TIP3    H257428   2.378   0.886   4.901 -0.2140 -0.0325  1.0753
12005TIP3   OH257429   2.903   6.354  14.553  0.4478  0.7534 -0.2202
12005TIP3    H157430   2.977   6.293  14.554  0.4760  0.7790 -0.6864
12005TIP3    H257431   2.927   6.421  14.489  0.5163  1.3863  0.4558
12006TIP3   OH257432   4.655   2.651   2.436  0.1608  0.0479  0.1251
12006TIP3    H157433   4.676   2.590   2.366 -0.5295 -0.6655  0.5133
12006TIP3    H257434   4.560   2.646   2.444  0.2266  0.1035  1.1040
12007TIP3   OH257435   2.819   1.450  12.503 -0.9148 -0.0989 -0.5275
12007TIP3    H157436   2.749   1.388  12.522  0.3724 -1.6599 -0.7189
12007TIP3    H257437   2.894   1.419  12.554  0.0240  0.7525 -1.3487
12008TIP3   OH257438   5.412   1.494  13.311 -0.1782  0.1005 -0.4845
12008TIP3    H157439   5.414   1.459  13.400 -0.9364  2.9052  0.7775
12008TIP3    H257440   5.321   1.482  13.283 -0.4975  1.0940  0.0398
12009TIP3   OH257441   2.779   2.951   4.900 -0.0255  0.0861  0.3790
12009TIP3    H157442   2.852   2.896   4.927 -1.0228 -1.0791  0.8137
12009TIP3    H257443   2.783   3.028   4.956  0.6948 -0.0972  0.5792
12010TIP3   OH257444   3.586   4.706  16.274 -0.4643 -0.1876  0.1667
12010TIP3    H157445   3.553   4.626  16.313  0.6060  0.6383  3.0336
12010TIP3    H257446   3.510   4.765  16.271 -0.2051  0.4578  3.2496
12011TIP3   OH257447   5.434   3.701  13.042  0.3912  0.3536 -0.0349
12011TIP3    H157448   5.492   3.636  13.003  2.0230 -0.0684  2.8321
12011TIP3    H257449   5.357   3.651  13.070  2.1619 -0.8261  3.3022
12012TIP3   OH257450   0.553   0.855   4.713  0.2878  0.3556  0.1575
12012TIP3    H157451   0.557   0.761   4.698  1.0885  0.4782 -0.4481
12012TIP3    H257452   0.574   0.865   4.806  1.6104  0.0291 -0.0933
12013TIP3   OH257453   3.197   2.220  11.889 -0.2571 -0.0903  0.4284
12013TIP3    H157454   3.167   2.211  11.979 -0.2214  0.0953  0.4608
12013TIP3    H257455   3.220   2.132  11.861 -1.4053 -0.3397  0.2088
12014TIP3   OH257456   2.532   0.395   4.735  0.3441 -0.0209  0.1158
12014TIP3    H157457   2.581   0.314   4.748  2.1032  0.8421 -0.8265
12014TIP3    H257458   2.487   0.410   4.819 -0.4743 -2.2107  0.1425
12015TIP3   OH257459   6.611   2.506   3.037  0.2220  0.3389  0.2028
12015TIP3    H157460   6.539   2.561   3.067 -1.6892 -1.8158 -0.1263
12015TIP3    H257461   6.651   2.473   3.117 -0.5597 -0.1135  0.4201
12016TIP3   OH257462   3.893   5.324   0.726 -0.5852 -0.4708  0.3677
12016TIP3    H157463   3.944   5.396   0.764 -1.3142  0.3378 -0.1478
12016TIP3    H257464   3.821   5.368   0.681 -1.1503 -1.5488  0.2131
12017TIP3   OH257465   6.354   6.610  16.133 -0.3205  0.2779 -0.1853
12017TIP3    H157466   6.414   6.650  16.070 -0.0587  1.0902  0.5648
12017TIP3    H257467   6.372   6.516  16.128 -0.2932  0.3257 -1.2992
12018TIP3   OH257468   5.540   5.112   1.348 -0.3364 -0.2347 -0.6642
12018TIP3    H157469   5.604   5.067   1.403 -0.9911 -1.0177 -0.5069
12018TIP3    H257470   5.574   5.103   1.259 -0.7996 -1.7337 -0.7306
12019TIP3   OH257471   3.783   4.260  15.698  0.5354  0.0041 -0.1245
12019TIP3    H157472   3.705   4.297  15.657  0.3433  0.7135  0.8527
12019TIP3    H257473   3.815   4.330  15.755  1.1589 -0.7352  0.4412
12020TIP3   OH257474   0.211   3.089   0.017 -0.4030 -0.1234 -0.1492
12020TIP3    H157475   0.204   3.052   0.104 -0.6717 -0.7089 -0.4171
12020TIP3    H257476   0.298   3.128   0.014 -0.5325  0.2228  0.5034
12021TIP3   OH257477   3.136   4.659   2.378 -0.0360  0.4433  0.4090
12021TIP3    H157478   3.128   4.754   2.390  0.2214  0.6144 -0.6758
12021TIP3    H257479   3.199   4.650   2.307 -0.5933 -0.5350  0.0322
12022TIP3   OH257480   2.891   0.520   0.997 -0.1506 -0.1110  0.0057
12022TIP3    H157481   2.876   0.614   0.992 -1.5901 -0.2833  0.4515
12022TIP3    H257482   2.982   0.511   1.023 -0.3842  1.2166  1.4710
12023TIP3   OH257483   0.552   3.072  10.866 -0.3021  0.3114  0.2895
12023TIP3    H157484   0.633   3.119  10.882 -0.6255  1.7062 -1.7759
12023TIP3    H257485   0.569   3.021  10.786 -1.6789  1.3155 -0.6947
12024TIP3   OH257486   0.265   1.039   0.916  0.0045 -0.3523 -0.0420
12024TIP3    H157487   0.224   1.109   0.865  0.5629 -0.4203 -0.6016
12024TIP3    H257488   0.357   1.040   0.887  0.1454 -0.9204  0.3831
12025TIP3   OH257489   5.661   3.968   6.166 -0.1670  0.2050 -0.4934
12025TIP3    H157490   5.710   3.969   6.084  2.6778 -1.5181  1.0221
12025TIP3    H257491   5.649   3.876   6.187  0.5142  0.5471  1.7156
12026TIP3   OH257492   0.173   1.509  15.044 -0.2091  0.2049  0.2547
12026TIP3    H157493   0.234   1.574  15.008  0.3485 -0.7875 -0.6426
12026TIP3    H257494   0.096   1.514  14.988 -0.3476  0.4163  0.4660
12027TIP3   OH257495   2.935   0.454   3.222  0.4116  0.4686  0.1342
12027TIP3    H157496   2.998   0.383   3.212  0.7888  1.0273 -1.9025
12027TIP3    H257497   2.868   0.437   3.156 -0.5415  0.9374  0.9616
12028TIP3   OH257498   0.025   5.651   3.416 -0.2779 -0.3566  0.0752
12028TIP3    H157499  -0.023   5.720   3.369 -0.1173 -0.3969 -0.1529
12028TIP3    H257500   0.036   5.581   3.351  1.0691  0.1063 -0.2294
12029TIP3   OH257501   5.359   3.043  15.458 -0.1846 -0.0640  0.0099
12029TIP3    H157502   5.381   2.970  15.517 -0.1465 -0.8448 -0.9485
12029TIP3    H257503   5.271   3.022  15.426 -0.7484  1.0357  0.7900
12030TIP3   OH257504   5.654   6.701   1.851 -0.1355  0.1312  0.0582
12030TIP3    H157505   5.709   6.741   1.918 -0.3835 -0.7742  0.8295
12030TIP3    H257506   5.604   6.634   1.898  0.1952 -1.0083 -1.1444
12031TIP3   OH257507   6.156   5.562   5.393 -0.0437  0.1709  0.2563
12031TIP3    H157508   6.141   5.575   5.487 -0.8527 -0.8908  0.3060
12031TIP3    H257509   6.081   5.605   5.351  0.4522  0.8675  0.0739
12032TIP3   OH257510   3.791   1.092   4.418 -0.0776 -0.4869  0.0457
12032TIP3    H157511   3.762   1.070   4.507  1.4467 -1.2924  0.3808
12032TIP3    H257512   3.849   1.167   4.430  2.3467 -2.2699  0.1504
12033TIP3   OH257513   4.164   5.627  14.767  0.5084 -0.0656 -0.1324
12033TIP3    H157514   4.195   5.539  14.746  0.8139  0.0469 -0.1611
12033TIP3    H257515   4.229   5.685  14.727 -0.8854  0.2284 -2.1701
12034TIP3   OH257516   4.128   3.466   3.265  0.6006 -0.3155  0.1412
12034TIP3    H157517   4.037   3.465   3.295  1.3100 -1.0390  2.4827
12034TIP3    H257518   4.150   3.373   3.255  1.1221 -0.1450 -0.3337
12035TIP3   OH257519   1.306   0.474  14.781  0.3321 -0.2930 -0.0067
12035TIP3    H157520   1.370   0.407  14.757 -0.3525  0.3868 -4.7368
12035TIP3    H257521   1.355   0.556  14.782  0.1652 -0.1917  0.1068
12036TIP3   OH257522   3.358   5.526   3.532  0.0121  0.3952 -0.3590
12036TIP3    H157523   3.336   5.548   3.622 -0.5468 -1.0850 -0.0907
12036TIP3    H257524   3.276   5.493   3.495  0.5179 -0.1393 -1.0352
12037TIP3   OH257525   2.678   1.433  16.982  0.0711  0.5990 -0.2319
12037TIP3    H157526   2.722   1.405  17.061 -1.3985 -0.0716  0.3882
12037TIP3    H257527   2.740   1.415  16.911  0.4149 -1.1865  0.4977
12038TIP3   OH257528   0.225   4.208  16.331  0.0664  0.2074  0.0125
12038TIP3    H157529   0.223   4.239  16.240 -0.4980 -1.4028 -0.5658
12038TIP3    H257530   0.135   4.179  16.347  0.2107  0.3160  1.0397
12039TIP3   OH257531   4.612   1.666   2.865  0.4735  0.0527 -0.0715
12039TIP3    H157532   4.703   1.635   2.866  0.3099 -0.8133 -2.8706
12039TIP3    H257533   4.619   1.759   2.843  0.6878 -0.1457 -0.8786
12040TIP3   OH257534   5.751   3.613   5.430 -0.3739  0.1634 -0.6188
12040TIP3    H157535   5.657   3.603   5.447 -0.0552 -1.7915  0.3364
12040TIP3    H257536   5.791   3.605   5.516  0.8804 -2.9669 -1.3658
12041TIP3   OH257537   3.091   4.089  12.544  0.6181  0.1865  0.5064
12041TIP3    H157538   3.157   4.090  12.475 -0.6328 -0.4200 -0.7482
12041TIP3    H257539   3.075   3.996  12.561 -0.0457  0.3222  0.6522
12042TIP3   OH257540   0.493   0.879   2.087 -0.2792  0.4202 -0.0528
12042TIP3    H157541   0.564   0.817   2.103 -2.6369 -1.9655  2.0603
12042TIP3    H257542   0.464   0.860   1.998 -1.0474 -1.7337  0.5967
12043TIP3   OH257543   6.176   6.466  16.697 -0.2699 -0.2756  0.8506
12043TIP3    H157544   6.171   6.512  16.781 -0.2638  1.6706 -0.1691
12043TIP3    H257545   6.085   6.446  16.675 -0.2766 -0.7166  1.2675
12044TIP3   OH257546   2.331   2.272   3.781 -0.2685 -0.0996  0.3984
12044TIP3    H157547   2.301   2.322   3.705  0.9823 -0.8054 -0.5961
12044TIP3    H257548   2.371   2.337   3.838  0.0139  0.2670 -0.2009
12045TIP3   OH257549   3.674   5.067  14.426 -0.5069  0.2358 -0.5355
12045TIP3    H157550   3.621   5.142  14.398  0.9989  1.6309  0.1912
12045TIP3    H257551   3.738   5.056  14.356 -0.9038 -0.5938 -0.7807
12046TIP3   OH257552   3.969   1.190  14.748  0.3812 -0.5755  0.2531
12046TIP3    H157553   3.989   1.282  14.764 -0.6858 -0.4697  1.0525
12046TIP3    H257554   3.876   1.189  14.725  0.5794 -1.3661 -0.6025
12047TIP3   OH257555   0.425   6.024  16.740 -0.3070 -0.3589 -0.2050
12047TIP3    H157556   0.425   5.931  16.765  0.2378 -0.6095 -1.1090
12047TIP3    H257557   0.362   6.029  16.669  0.4602 -0.2466 -0.8884
12048TIP3   OH257558   4.558   5.591   1.928 -0.0426 -0.4334  0.0275
12048TIP3    H157559   4.509   5.671   1.909 -1.9694 -1.5416  0.0923
12048TIP3    H257560   4.575   5.552   1.843 -0.6230 -0.8050  0.0769
12049TIP3   OH257561   3.660   5.880  14.573  0.1476 -0.6044 -0.3017
12049TIP3    H157562   3.722   5.946  14.543 -0.8950  1.0929  1.1001
12049TIP3    H257563   3.642   5.827  14.495  1.1164  0.6914 -1.4492
12050TIP3   OH257564   1.180   3.385   0.831  0.2272 -0.4020  0.6117
12050TIP3    H157565   1.088   3.362   0.822  0.7025 -1.8749 -1.1901
12050TIP3    H257566   1.226   3.302   0.825  1.7402  0.4318  0.1029
12051TIP3   OH257567   1.476   1.113   2.084 -0.4016 -0.0401  0.4015
12051TIP3    H157568   1.442   1.025   2.067  1.5338 -0.4667 -2.0852
12051TIP3    H257569   1.437   1.167   2.015 -0.8957  0.8563  1.3754
12052TIP3   OH257570   2.799   2.926   3.201 -0.1790  0.0621 -0.2082
12052TIP3    H157571   2.861   2.991   3.235 -0.7633  0.2735  0.4736
12052TIP3    H257572   2.845   2.885   3.127  0.1511  1.3191 -0.7176
12053TIP3   OH257573   3.208   2.416  16.766  0.1277 -0.8644 -0.0278
12053TIP3    H157574   3.183   2.507  16.750  1.0959 -0.7306 -0.8300
12053TIP3    H257575   3.133   2.365  16.735 -0.1364 -0.3713 -0.2051
12054TIP3   OH257576   6.685   5.219  14.589 -0.1895  0.0615 -0.5560
12054TIP3    H157577   6.684   5.265  14.504  1.0869 -2.3148 -1.9690
12054TIP3    H257578   6.712   5.287  14.652 -1.0812  1.8830 -2.0279
12055TIP3   OH257579   3.060   6.529   0.505  0.0565 -0.2655 -0.0685
12055TIP3    H157580   3.142   6.493   0.471 -0.5503 -1.7287 -0.0316
12055TIP3    H257581   3.023   6.578   0.431  0.6127 -0.1829 -0.2990
12056TIP3   OH257582   5.667   2.711   1.711 -0.2513  0.2715  0.0676
12056TIP3    H157583   5.720   2.771   1.659 -0.3748  1.1868  0.9568
12056TIP3    H257584   5.719   2.631   1.717  0.8436  0.9975  0.5651
12057TIP3   OH257585   5.304   1.067  11.719 -1.2635  0.7288  0.4268
12057TIP3    H157586   5.317   1.034  11.630 -0.3541  0.6928  0.5646
12057TIP3    H257587   5.285   1.160  11.708  0.2806  1.0626  0.2458
12058TIP3   OH257588   2.478   4.213  15.193 -0.5167 -0.4774 -0.3791
12058TIP3    H157589   2.455   4.170  15.275 -0.7231 -1.1591 -0.7859
12058TIP3    H257590   2.506   4.142  15.135 -0.6826 -0.0447 -1.0075
12059TIP3   OH257591   5.097   0.392  14.502 -0.4714 -0.5277  0.2943
12059TIP3    H157592   5.029   0.455  14.525  1.0840  1.0433  0.8785
12059TIP3    H257593   5.136   0.368  14.587  1.2590  0.5109 -0.1494
12060TIP3   OH257594   1.931   2.421  15.135 -0.1900  0.0261  0.6295
12060TIP3    H157595   1.876   2.363  15.188 -1.1564  0.5547  0.2067
12060TIP3    H257596   1.933   2.380  15.049 -0.9065  0.6293  0.3191
12061TIP3   OH257597   0.482   4.782  12.173  0.1387 -0.2947  0.1809
12061TIP3    H157598   0.533   4.861  12.152 -1.1822  0.1140 -1.8502
12061TIP3    H257599   0.525   4.712  12.124  0.4152 -0.5390  0.7666
12062TIP3   OH257600   0.561   6.104   3.410  0.4766  0.0081 -0.6084
12062TIP3    H157601   0.551   6.018   3.371  0.1080 -0.3417  0.2204
12062TIP3    H257602   0.656   6.113   3.425  1.1985  1.6358 -4.7454
12063TIP3   OH257603   4.871   0.313   4.284 -0.4537 -0.1415  0.2862
12063TIP3    H157604   4.889   0.399   4.323  0.6446 -0.4453  0.4941
12063TIP3    H257605   4.852   0.332   4.192 -0.5268  0.3592  0.4032
12064TIP3   OH257606   3.506   2.140  12.701  0.1703 -0.1053  0.0481
12064TIP3    H157607   3.472   2.101  12.620  0.7980  0.0143 -0.2795
12064TIP3    H257608   3.428   2.154  12.755 -0.4138  0.9665 -1.0232
12065TIP3   OH257609   6.593   2.076   5.122  0.2250 -0.4458  0.0236
12065TIP3    H157610   6.535   2.001   5.119 -0.7481  0.2193  1.2695
12065TIP3    H257611   6.598   2.107   5.032 -3.1473  0.7859  0.1395
12066TIP3   OH257612   3.246   6.379  14.230  0.1515  0.0175  0.8661
12066TIP3    H157613   3.337   6.392  14.202  0.0796  1.3866  1.2042
12066TIP3    H257614   3.196   6.373  14.149  0.5535 -0.9633  0.6747
12067TIP3   OH257615   2.403   1.973   0.179 -0.2476  0.0212  1.0481
12067TIP3    H157616   2.468   2.041   0.161 -0.7078  0.0046 -0.9444
12067TIP3    H257617   2.346   2.011   0.246 -0.5042  1.6239 -0.0313
12068TIP3   OH257618   4.339   4.795   1.279  0.3571  0.2038 -0.4487
12068TIP3    H157619   4.328   4.713   1.230  0.3895 -0.3288  0.4083
12068TIP3    H257620   4.426   4.787   1.318  0.2299  0.5007 -0.1014
12069TIP3   OH257621   5.250   5.300  11.940 -0.2072  0.3176  0.1567
12069TIP3    H157622   5.263   5.392  11.965 -2.4105  0.9109 -0.6402
12069TIP3    H257623   5.169   5.301  11.889 -0.0928 -2.0404 -0.1513
12070TIP3   OH257624   3.052   0.542   3.439 -0.6159  0.1380 -0.3882
12070TIP3    H157625   3.002   0.527   3.359  0.2359 -1.5897 -0.6253
12070TIP3    H257626   3.041   0.636   3.456 -1.5229  0.3704 -2.0347
12071TIP3   OH257627   3.677   3.420  16.399  0.7526 -0.2689  0.3992
12071TIP3    H157628   3.678   3.452  16.309  2.5896  1.6414  1.0117
12071TIP3    H257629   3.584   3.420  16.424  0.1848 -1.1317 -1.5332
12072TIP3   OH257630   3.888   2.406   0.751  0.4490 -0.1538 -0.0159
12072TIP3    H157631   3.808   2.355   0.735  1.6638 -2.1935 -0.0062
12072TIP3    H257632   3.958   2.340   0.754  2.2274  1.6097 -0.5903
12073TIP3   OH257633   0.248   1.965   5.473  0.1107  0.0130 -0.3349
12073TIP3    H157634   0.336   1.999   5.458  0.2569  0.0463  0.5008
12073TIP3    H257635   0.210   1.955   5.386  0.7816  0.4232 -0.6824
12074TIP3   OH257636   2.735   0.871  14.412  0.2672  0.0815  0.7329
12074TIP3    H157637   2.812   0.825  14.379 -0.4132 -0.6900  0.1711
12074TIP3    H257638   2.700   0.918  14.336 -0.4126 -0.4486  0.6951
12075TIP3   OH257639   2.720   4.636  12.927 -0.1379  0.6112 -0.6162
12075TIP3    H157640   2.644   4.685  12.958  0.1426  0.8286 -0.2662
12075TIP3    H257641   2.701   4.619  12.835 -1.5462 -1.0769 -0.0847
12076TIP3   OH257642   1.137   0.819  14.755 -0.0079 -0.0257 -0.6865
12076TIP3    H157643   1.106   0.907  14.733 -0.5235  0.2216  0.9019
12076TIP3    H257644   1.069   0.761  14.722 -0.0214  0.2127 -1.0886
12077TIP3   OH257645   0.431   0.464   1.122  0.5636 -0.3144  0.3659
12077TIP3    H157646   0.442   0.388   1.065  2.3977  0.1482  0.0313
12077TIP3    H257647   0.351   0.446   1.171 -0.3294 -1.3564 -1.3751
12078TIP3   OH257648   2.374   0.903  17.360  0.3935 -0.1007 -0.1773
12078TIP3    H157649   2.422   0.974  17.403  2.9858 -0.9210 -1.4407
12078TIP3    H257650   2.320   0.865  17.428 -0.2660  2.3955  0.7840
12079TIP3   OH257651   5.638   3.457  15.606 -0.0615 -0.0352  0.8208
12079TIP3    H157652   5.599   3.461  15.519 -0.9049  0.0350  1.1979
12079TIP3    H257653   5.565   3.467  15.667  0.6313  0.8604  1.5362
12080TIP3   OH257654   1.176   4.715   2.973 -0.0561 -0.3665  0.5430
12080TIP3    H157655   1.117   4.747   3.041 -0.1070 -3.2689  2.0172
12080TIP3    H257656   1.251   4.680   3.021  0.5070 -1.3526 -0.9708
12081TIP3   OH257657   0.750   1.064   6.818  0.0360 -0.2790  0.4463
12081TIP3    H157658   0.734   1.110   6.901 -1.2140  0.9786 -0.4600
12081TIP3    H257659   0.842   1.037   6.823  0.3253  0.8502  1.7256
12082TIP3   OH257660   5.423   3.448  11.099 -0.4993 -0.0330  0.3281
12082TIP3    H157661   5.486   3.475  11.032 -2.3536 -0.3794 -1.6375
12082TIP3    H257662   5.421   3.521  11.161  2.0389 -0.1494  0.6771
12083TIP3   OH257663   1.490   5.656   3.166  0.4646 -0.0185  0.4871
12083TIP3    H157664   1.552   5.716   3.206 -1.5775  1.3795  1.7600
12083TIP3    H257665   1.497   5.576   3.218  0.7714  0.3490  1.0199
12084TIP3   OH257666   4.193   2.706   2.458  0.5255  0.1374  0.3584
12084TIP3    H157667   4.193   2.698   2.554 -1.9619 -1.9723  0.2964
12084TIP3    H257668   4.259   2.643   2.429 -0.2579 -0.8500  0.6657
12085TIP3   OH257669   2.899   4.514   2.357  0.2798 -0.4400 -0.2629
12085TIP3    H157670   2.966   4.574   2.391 -0.3754 -1.0145  2.3044
12085TIP3    H257671   2.816   4.556   2.378 -0.1750 -1.3188 -0.2340
12086TIP3   OH257672   0.860   0.411  15.294 -0.3365 -0.3418  0.1774
12086TIP3    H157673   0.911   0.335  15.321 -0.8017 -0.3634  1.0376
12086TIP3    H257674   0.815   0.383  15.215 -0.7505 -1.0768  0.6592
12087TIP3   OH257675   2.984   6.571  13.636  0.0442  0.0722 -0.0971
12087TIP3    H157676   3.045   6.498  13.635 -0.5822 -0.5476  1.8770
12087TIP3    H257677   3.015   6.630  13.567  1.0076 -1.6731 -1.2229
12088TIP3   OH257678   0.148   6.007  12.731 -0.2000 -0.1426  0.6982
12088TIP3    H157679   0.166   5.942  12.663 -1.2146  0.4333 -0.1462
12088TIP3    H257680   0.061   5.985  12.763 -1.8417  2.3960 -1.5886
12089TIP3   OH257681   2.120   3.021  14.648 -0.2401  0.0571 -0.2655
12089TIP3    H157682   2.046   3.045  14.703  0.2765 -0.2053  0.5565
12089TIP3    H257683   2.153   3.104  14.613 -0.1625  0.2944  0.3597
12090TIP3   OH257684   3.586   2.436  13.962 -0.2973  0.5306 -0.7425
12090TIP3    H157685   3.569   2.501  14.030 -0.4255  0.1764 -0.4340
12090TIP3    H257686   3.680   2.444  13.945  0.1049 -0.5507  0.7124
12091TIP3   OH257687   3.743   0.194  10.848 -0.1187 -0.5518  0.3872
12091TIP3    H157688   3.677   0.240  10.796  0.6920 -0.1425 -0.3006
12091TIP3    H257689   3.752   0.109  10.805  0.1552 -0.4207  0.1838
12092TIP3   OH257690   3.698   4.938  13.736  0.0228  0.2305  0.1563
12092TIP3    H157691   3.613   4.942  13.691 -0.2159  2.8231  0.6680
12092TIP3    H257692   3.682   4.977  13.821  1.4870 -0.4222  0.7625
12093TIP3   OH257693   2.320   5.904   2.034 -0.0538  0.5983  0.5270
12093TIP3    H157694   2.355   5.958   1.964  0.7147 -0.8286 -0.2456
12093TIP3    H257695   2.392   5.844   2.056 -0.7014  0.2043  1.6682
12094TIP3   OH257696   2.575   1.349  14.373  0.5844 -0.5232  0.0903
12094TIP3    H157697   2.652   1.329  14.319  1.0350 -0.1354  0.5776
12094TIP3    H257698   2.612   1.375  14.457 -0.0928 -0.4902  0.3755
12095TIP3   OH257699   4.967   2.060   5.430  0.4692 -0.2957 -0.5756
12095TIP3    H157700   4.972   2.031   5.521 -0.2284 -1.4795 -0.8950
12095TIP3    H257701   4.873   2.062   5.410  0.4827  1.8997 -0.6952
12096TIP3   OH257702   1.274   0.848   2.820  0.5829  0.5457  0.2519
12096TIP3    H157703   1.192   0.849   2.870  0.4003  0.4526 -0.0462
12096TIP3    H257704   1.336   0.897   2.875 -0.1321  2.1397 -0.3004
12097TIP3   OH257705   2.629   3.297  16.397  0.6671  0.3962  0.3460
12097TIP3    H157706   2.544   3.252  16.400  0.6781  0.3476 -0.0466
12097TIP3    H257707   2.606   3.389  16.382  0.6915  0.3433 -0.0341
12098TIP3   OH257708   1.530   3.174  11.896 -0.4323 -0.1212 -0.3721
12098TIP3    H157709   1.583   3.251  11.875  2.0503 -1.1165  1.7551
12098TIP3    H257710   1.524   3.125  11.814  1.1722  0.5019 -0.8847
12099TIP3   OH257711   4.100   2.396   3.900 -0.2328  0.3487  0.0070
12099TIP3    H157712   4.089   2.435   3.987  3.1753 -1.3742  1.4060
12099TIP3    H257713   4.033   2.328   3.895 -0.1227  0.0805  1.5857
12100TIP3   OH257714   0.867   0.576  13.848  0.0012  0.2210  0.1922
12100TIP3    H157715   0.868   0.665  13.884  0.7810  0.6837 -0.9076
12100TIP3    H257716   0.840   0.587  13.757 -0.0819 -0.6916  0.0978
12101TIP3   OH257717   5.044   1.475   5.019 -0.4964 -0.2324 -0.3291
12101TIP3    H157718   5.090   1.482   5.102 -2.1982 -3.3071  1.0614
12101TIP3    H257719   5.113   1.464   4.954  0.8798  2.2780  0.5534
12102TIP3   OH257720   2.149   0.167   0.725  0.0569 -0.1289  0.2750
12102TIP3    H157721   2.163   0.102   0.794  1.1154  0.8538  1.0221
12102TIP3    H257722   2.213   0.235   0.743 -0.5191  0.7690 -0.9390
12103TIP3   OH257723   6.565   5.913  13.423  0.5046  0.5480  0.1814
12103TIP3    H157724   6.575   5.944  13.513 -0.1081 -0.2715  0.5403
12103TIP3    H257725   6.643   5.860  13.407 -0.3263 -0.9759  0.9476
12104TIP3   OH257726   3.963   2.056  15.879  0.5570  0.5323  0.1456
12104TIP3    H157727   3.894   2.060  15.946  1.2048 -0.8704  0.9473
12104TIP3    H257728   3.916   2.033  15.799  0.0781 -0.6010  0.7184
12105TIP3   OH257729   2.125   4.274  15.660  0.4417 -0.2289 -0.5392
12105TIP3    H157730   2.203   4.246  15.613  0.6838 -1.1312  0.3612
12105TIP3    H257731   2.158   4.314  15.740 -0.0169 -1.3360  0.2278
12106TIP3   OH257732   0.642   5.767   3.413  0.0885 -0.4399  0.3490
12106TIP3    H157733   0.680   5.834   3.470  0.8657 -1.4913  1.1037
12106TIP3    H257734   0.560   5.743   3.456  0.4695 -0.9282  0.8276
12107TIP3   OH257735   4.138   5.389  14.641  0.7608  0.1989 -0.3921
12107TIP3    H157736   4.107   5.346  14.561  1.6107 -1.3461  0.0850
12107TIP3    H257737   4.188   5.322  14.687 -2.5042 -0.1390  3.1857
12108TIP3   OH257738   4.212   4.075   2.793 -0.1071  0.7161  0.5284
12108TIP3    H157739   4.218   4.170   2.798 -1.1212  0.7993  0.2946
12108TIP3    H257740   4.170   4.049   2.875 -1.5951  0.6512 -0.2307
12109TIP3   OH257741   1.858   5.915  11.248  0.5472  0.2173 -0.3080
12109TIP3    H157742   1.871   5.982  11.181  0.7958  0.5625  0.0876
12109TIP3    H257743   1.869   5.832  11.201  1.8255  0.4665 -0.4727
12110TIP3   OH257744   4.857   4.696  16.324 -0.1611 -0.2844  0.2393
12110TIP3    H157745   4.907   4.761  16.372 -1.5297  2.3665 -1.6526
12110TIP3    H257746   4.769   4.699  16.363 -0.3787 -0.5854 -0.2145
12111TIP3   OH257747   5.635   6.107   3.684  0.2586 -0.6366  0.1472
12111TIP3    H157748   5.704   6.041   3.680 -0.0610 -0.9147 -0.8552
12111TIP3    H257749   5.577   6.077   3.755 -1.3402 -2.9142 -1.9504
12112TIP3   OH257750   1.636   0.538   2.800 -0.3465  0.1398  0.4027
12112TIP3    H157751   1.700   0.479   2.839  0.7214  0.3450 -0.9610
12112TIP3    H257752   1.558   0.484   2.787  0.0187 -0.4861  0.7872
12113TIP3   OH257753   5.454   1.133   1.481 -0.5392  0.8745 -0.1553
12113TIP3    H157754   5.517   1.123   1.552 -0.9943  1.3834  0.3289
12113TIP3    H257755   5.382   1.073   1.503 -1.1155  1.7194  0.3161
12114TIP3   OH257756   0.441   6.151  13.475  0.2418 -0.3314 -0.1295
12114TIP3    H157757   0.449   6.239  13.513 -1.7635 -0.5744  0.9807
12114TIP3    H257758   0.411   6.167  13.386  0.2186  0.1240 -0.0458
12115TIP3   OH257759   3.280   4.980   2.117  0.7941  0.8474 -0.5479
12115TIP3    H157760   3.263   4.907   2.057  0.4157 -0.5361  1.1602
12115TIP3    H257761   3.359   5.021   2.083 -0.0430  0.8485 -2.6376
12116TIP3   OH257762   4.780   1.891  13.224  0.2267 -0.5814  0.4563
12116TIP3    H157763   4.749   1.933  13.304 -1.8403 -2.0167  0.4765
12116TIP3    H257764   4.829   1.959  13.178 -0.3716  0.8971  1.9277
12117TIP3   OH257765   4.228   0.312  11.858 -0.3342  0.1015 -0.3072
12117TIP3    H157766   4.291   0.251  11.897 -1.0456  0.5220  1.5912
12117TIP3    H257767   4.280   0.389  11.836  0.2542 -0.5109 -1.1142
12118TIP3   OH257768   5.030   2.708   1.605  0.1711 -0.0886  0.0326
12118TIP3    H157769   5.034   2.612   1.610  0.2804 -0.0313  1.2762
12118TIP3    H257770   4.938   2.729   1.617  0.3535  0.0208  1.4232
12119TIP3   OH257771   3.029   0.419  15.413 -0.1883  0.2342  0.0321
12119TIP3    H157772   3.051   0.419  15.506 -0.9071  2.4752  0.2535
12119TIP3    H257773   2.934   0.410  15.411 -0.0347 -1.7841 -0.6167
12120TIP3   OH257774   5.856   3.546   1.056  0.0539 -0.7296 -0.5183
12120TIP3    H157775   5.947   3.572   1.044  0.7786 -2.1005  1.4646
12120TIP3    H257776   5.852   3.455   1.027 -0.0098 -1.5051  1.6849
12121TIP3   OH257777   4.200   1.522   1.631 -0.1998  0.1382  0.5069
12121TIP3    H157778   4.166   1.610   1.614 -0.0107  0.6494  2.4192
12121TIP3    H257779   4.190   1.512   1.726  1.3100 -1.2482  0.5512
12122TIP3   OH257780   5.759   1.754  15.887 -0.2747 -0.1094 -0.5620
12122TIP3    H157781   5.765   1.846  15.913  0.9349 -0.7442  1.5710
12122TIP3    H257782   5.813   1.748  15.808 -0.6650  1.0625 -0.9394
12123TIP3   OH257783   4.349   3.999  13.152  0.6615 -0.5397  0.0350
12123TIP3    H157784   4.293   4.017  13.227  0.9199  1.4422 -0.1804
12123TIP3    H257785   4.290   4.004  13.077  0.4245 -2.4042  0.0491
12124TIP3   OH257786   3.173   2.975  17.403  0.0838 -0.3029  0.1755
12124TIP3    H157787   3.113   2.980  17.328 -0.5875  0.8339  0.7617
12124TIP3    H257788   3.115   2.959  17.478  0.4447  1.2304  0.8136
12125TIP3   OH257789   4.244   4.421  13.415 -0.7281  0.8139 -0.5162
12125TIP3    H157790   4.277   4.379  13.336  0.6414  0.8661  0.0092
12125TIP3    H257791   4.208   4.349  13.467 -0.3871  0.5885 -0.5892
12126TIP3   OH257792   0.433   2.780   0.028  0.3240  0.0296 -0.3864
12126TIP3    H157793   0.397   2.772  -0.061 -0.0373  2.4318 -0.5329
12126TIP3    H257794   0.496   2.852   0.021  0.4584  0.0900  1.2553
12127TIP3   OH257795   1.223   6.548   1.833 -0.3340 -0.0837 -0.1579
12127TIP3    H157796   1.305   6.518   1.793 -0.4106 -0.4374 -0.0563
12127TIP3    H257797   1.246   6.631   1.875 -0.3805  0.5667 -1.3834
12128TIP3   OH257798   3.769   5.448  14.937  0.0857  1.1037  0.0535
12128TIP3    H157799   3.703   5.471  15.003  0.1028 -0.0737  0.5086
12128TIP3    H257800   3.850   5.490  14.968 -0.7271  4.0478 -1.4127
12129TIP3   OH257801   0.338   4.631   1.746  0.5873  0.1012  0.3698
12129TIP3    H157802   0.245   4.605   1.744  1.1066 -1.9233 -1.2285
12129TIP3    H257803   0.361   4.642   1.654  1.6313  1.9140  0.8130
12130TIP3   OH257804   5.031   1.077   2.935  0.0364 -0.1883  0.9081
12130TIP3    H157805   4.966   1.027   2.983  0.5092 -1.7837 -0.0570
12130TIP3    H257806   5.114   1.035   2.956  0.2702 -0.8362 -1.1542
12131TIP3   OH257807   2.622   1.100  14.989 -0.1435 -0.3649  0.1158
12131TIP3    H157808   2.611   1.122  15.082 -0.4153  0.4648 -0.1014
12131TIP3    H257809   2.540   1.059  14.964 -0.3499  0.0702  0.0672
12132TIP3   OH257810   4.415   0.165   2.919 -0.4172  0.5762  0.3161
12132TIP3    H157811   4.330   0.189   2.956 -0.5842  0.2762  0.1348
12132TIP3    H257812   4.393   0.109   2.844 -0.0247 -2.0980  2.0642
12133TIP3   OH257813   6.708   2.964   1.635  0.3570  0.0279 -0.7526
12133TIP3    H157814   6.657   2.887   1.658 -0.1505  0.4859 -0.3034
12133TIP3    H257815   6.646   3.023   1.592 -0.0256  1.3919  1.4765
12134TIP3   OH257816   6.509   4.647  17.410  0.0158  0.3203 -0.0363
12134TIP3    H157817   6.550   4.676  17.328  1.2027 -0.8537  0.1066
12134TIP3    H257818   6.461   4.724  17.441  3.4913  2.4359  0.6479
12135TIP3   OH257819   6.710   5.238   5.151  0.0432  0.7609 -0.0495
12135TIP3    H157820   6.638   5.181   5.180  0.5651  0.9671  1.7736
12135TIP3    H257821   6.685   5.325   5.182  1.0076  0.8479  0.5319
12136TIP3   OH257822   6.236   6.125   2.732  0.7551 -0.3614 -0.5122
12136TIP3    H157823   6.316   6.172   2.755  1.2196 -1.8461  1.0151
12136TIP3    H257824   6.166   6.184   2.759  1.3315 -0.0992  0.4625
12137TIP3   OH257825   1.949   5.218   0.647  0.1050  0.5294  0.0788
12137TIP3    H157826   1.997   5.271   0.583 -0.7530  1.1164 -0.1061
12137TIP3    H257827   1.857   5.244   0.635 -0.3299 -0.9180  0.0659
12138TIP3   OH257828   1.339   1.744  13.710 -0.1772  0.4725 -0.1946
12138TIP3    H157829   1.314   1.753  13.618 -1.2372  0.7245  0.1043
12138TIP3    H257830   1.432   1.719  13.708 -1.0947 -3.5004 -1.4714
12139TIP3   OH257831   6.594   6.108  13.927  0.1803 -0.5812  0.5965
12139TIP3    H157832   6.689   6.109  13.915 -0.0145  0.8108 -1.5192
12139TIP3    H257833   6.581   6.137  14.017  1.7655 -1.4858  1.1496
12140TIP3   OH257834   3.718   0.652  11.161  0.2037  0.0535 -0.3789
12140TIP3    H157835   3.791   0.610  11.207  1.3400  1.7845 -0.4774
12140TIP3    H257836   3.641   0.603  11.188  1.0915 -0.2984  1.7247
12141TIP3   OH257837   6.242   5.639   2.987  0.3816  0.1607  0.2918
12141TIP3    H157838   6.275   5.549   2.989 -0.3300 -0.1013  2.2107
12141TIP3    H257839   6.291   5.683   3.057 -0.5220  0.7840  0.5489
12142TIP3   OH257840   2.885   1.662   0.252 -0.0554 -0.3518  0.2792
12142TIP3    H157841   2.818   1.676   0.185 -0.6759  0.6124  1.0837
12142TIP3    H257842   2.866   1.727   0.319  1.8718  0.1394  0.4009
12143TIP3   OH257843   3.552   0.266  14.697 -0.0069  0.5529  0.4106
12143TIP3    H157844   3.495   0.236  14.626  1.9673 -2.9105  0.0663
12143TIP3    H257845   3.494   0.272  14.773 -1.2357 -0.8673 -0.3524
12144TIP3   OH257846   4.636   3.260  13.812  0.0190 -0.2854  0.2567
12144TIP3    H157847   4.575   3.271  13.885 -1.1930 -1.0261 -0.6057
12144TIP3    H257848   4.670   3.171  13.821  1.1840  0.1990  0.8625
12145TIP3   OH257849   5.822   5.052   1.918  0.5008 -0.1832  0.2412
12145TIP3    H157850   5.814   5.104   1.838 -0.2225  2.4168  1.8846
12145TIP3    H257851   5.778   5.104   1.985  1.1247 -2.2290  2.3622
12146TIP3   OH257852   2.888   3.062  15.630 -0.4364 -0.2525 -0.6237
12146TIP3    H157853   2.969   3.057  15.681 -0.5423  0.1458 -0.4186
12146TIP3    H257854   2.838   2.986  15.658  0.0468 -0.7403 -1.0604
12147TIP3   OH257855   3.439   5.310  14.996  0.1213 -0.3269  0.6098
12147TIP3    H157856   3.358   5.359  14.999  0.8471  1.1534 -1.5301
12147TIP3    H257857   3.412   5.218  15.006 -2.0690 -0.0574 -1.7296
12148TIP3   OH257858   1.167   5.908  11.873 -0.3195  0.4985 -0.2260
12148TIP3    H157859   1.091   5.965  11.881  0.7054  1.7251  1.3088
12148TIP3    H257860   1.239   5.957  11.913  1.0259 -1.1062 -0.5472
12149TIP3   OH257861   3.572   5.821   1.369 -0.1372  0.3595  0.0477
12149TIP3    H157862   3.550   5.771   1.291 -0.3651  0.6662 -0.0831
12149TIP3    H257863   3.489   5.855   1.401 -0.2655 -1.0370  1.3061
12150TIP3   OH257864   4.964   0.049   4.403  0.2034  0.2886 -0.5293
12150TIP3    H157865   4.948   0.125   4.348 -0.0333  0.3928 -0.3193
12150TIP3    H257866   4.977  -0.024   4.342 -0.2653  0.3601 -0.7181
12151TIP3   OH257867   5.791   4.032   4.617 -0.0495  0.5093 -0.0024
12151TIP3    H157868   5.711   3.993   4.581  0.2457  0.0360 -0.1534
12151TIP3    H257869   5.850   4.037   4.543  0.1612  0.5977  0.1723
12152TIP3   OH257870   5.311   2.606   1.483 -0.8298  0.3571 -0.2206
12152TIP3    H157871   5.249   2.539   1.454 -1.2171  0.6761 -0.1529
12152TIP3    H257872   5.348   2.571   1.564 -0.5329 -0.0674 -0.5377
12153TIP3   OH257873   1.957   2.646   4.213  0.3040 -0.0503 -0.2088
12153TIP3    H157874   1.990   2.568   4.258  0.4544 -0.1418 -0.4763
12153TIP3    H257875   1.982   2.719   4.270  2.8086  0.1045 -1.3547
12154TIP3   OH257876   6.746   4.106   3.437 -0.1020 -0.7079  0.3203
12154TIP3    H157877   6.817   4.169   3.433 -1.0843  0.3994 -0.3502
12154TIP3    H257878   6.691   4.126   3.361 -1.1586 -1.5031  0.8409
12155TIP3   OH257879   3.595   3.385  17.242 -0.3785 -0.0858  0.3741
12155TIP3    H157880   3.623   3.390  17.333 -1.6593  0.5198  0.7607
12155TIP3    H257881   3.634   3.462  17.201 -0.7720  0.2920  0.7030
12156TIP3   OH257882   5.625   4.009  11.328  0.1480 -0.7136  0.1236
12156TIP3    H157883   5.538   3.985  11.298 -0.5532 -0.2937  1.6940
12156TIP3    H257884   5.662   3.928  11.362  0.6776 -1.0451 -1.1973
12157TIP3   OH257885   2.628   6.113   1.020 -0.0474 -0.0070  0.1275
12157TIP3    H157886   2.577   6.049   1.070  0.1211  1.2505  2.0114
12157TIP3    H257887   2.563   6.157   0.965 -0.1577 -1.7761 -1.2817
12158TIP3   OH257888   1.024   6.684   2.810  0.3773 -0.3391 -0.1570
12158TIP3    H157889   1.024   6.705   2.717  0.5601 -0.6899 -0.2366
12158TIP3    H257890   0.934   6.660   2.830 -0.6371  3.4825  0.6157
12159TIP3   OH257891   4.089   1.211  13.539  0.6163 -0.0379 -0.2096
12159TIP3    H157892   4.011   1.155  13.549 -0.2060  0.6474 -2.3054
12159TIP3    H257893   4.148   1.182  13.609 -0.6484 -2.0387  0.1158
12160TIP3   OH257894   5.920   6.338  16.994 -0.3497  0.2041  0.3996
12160TIP3    H157895   5.854   6.268  16.991  1.3813 -1.5056 -0.9862
12160TIP3    H257896   6.003   6.291  17.004  0.7739  2.1991  0.8820
12161TIP3   OH257897   6.096   6.348   3.690 -0.2415  0.0031 -0.6390
12161TIP3    H157898   6.138   6.385   3.612  1.0111 -0.8553 -0.4099
12161TIP3    H257899   6.108   6.254   3.681  0.5520 -0.0677  0.9206
12162TIP3   OH257900   3.437   3.789  10.015  1.1163  0.3126 -0.1390
12162TIP3    H157901   3.366   3.817  10.072  1.1043  0.6019 -0.2975
12162TIP3    H257902   3.514   3.837  10.047  1.3921 -0.5029  0.4652
12163TIP3   OH257903   1.210   1.002  14.046 -0.2422  0.1438  0.0057
12163TIP3    H157904   1.262   1.067  14.094  0.1804  0.2574 -0.5902
12163TIP3    H257905   1.215   0.923  14.099  1.0644 -0.0276 -0.3388
12164TIP3   OH257906   0.802   6.398   3.580  0.6269  0.5823  0.3224
12164TIP3    H157907   0.748   6.472   3.607 -1.1335 -1.0057  1.3984
12164TIP3    H257908   0.886   6.437   3.556 -0.2171  2.9011  0.8897
12165TIP3   OH257909   2.294   4.981   4.818 -0.2927 -0.2193 -0.6197
12165TIP3    H157910   2.265   5.061   4.775  0.4844  0.4325  0.0552
12165TIP3    H257911   2.237   4.913   4.782 -0.5863  0.5342 -1.6191
12166TIP3   OH257912   1.078   0.844  17.314  0.3099  0.3598  0.0790
12166TIP3    H157913   1.016   0.813  17.380 -1.1281  1.4267 -0.7011
12166TIP3    H257914   1.032   0.832  17.231  2.4258 -1.8345 -0.9032
12167TIP3   OH257915   4.742   1.212  10.940 -0.1163  0.1789  0.5674
12167TIP3    H157916   4.816   1.158  10.910 -1.1118  0.0192 -1.8038
12167TIP3    H257917   4.667   1.181  10.890 -1.3518  1.8258  1.2900
12168TIP3   OH257918   2.343   4.746   0.898  0.0854 -0.2397  0.2192
12168TIP3    H157919   2.409   4.735   0.830  1.6257  1.8756  1.2476
12168TIP3    H257920   2.371   4.687   0.968  0.9657  0.6707  0.6633
12169TIP3   OH257921   1.933   2.812  15.663  0.4458 -0.3470 -0.5902
12169TIP3    H157922   2.020   2.775  15.647  0.2360 -1.1353  0.0116
12169TIP3    H257923   1.883   2.792  15.584  0.7097 -0.1945 -0.7976
12170TIP3   OH257924   2.257   2.073   1.577  0.2548 -0.0799  0.8992
12170TIP3    H157925   2.183   2.022   1.611  0.5581 -1.0901  0.0967
12170TIP3    H257926   2.292   2.020   1.505  1.0481  0.9267  0.5156
12171TIP3   OH257927   5.452   3.806  17.119 -0.3642 -0.0970 -0.0283
12171TIP3    H157928   5.434   3.815  17.213 -1.7100 -1.1333 -0.1635
12171TIP3    H257929   5.369   3.824  17.077 -0.0990 -0.9660 -0.9508
12172TIP3   OH257930   3.366   3.802  10.446 -0.1516 -0.0454 -0.2640
12172TIP3    H157931   3.355   3.839  10.358  0.2395  1.1949  0.1904
12172TIP3    H257932   3.370   3.707  10.432 -0.7415  0.1013 -1.5123
12173TIP3   OH257933   2.234   4.053   1.418 -0.1343  0.2018 -0.0153
12173TIP3    H157934   2.187   3.969   1.414 -2.0646  1.2637 -1.7259
12173TIP3    H257935   2.298   4.048   1.348  1.2614 -0.6203  1.2699
12174TIP3   OH257936   1.125   6.184  12.821 -0.0721  0.5010 -0.1030
12174TIP3    H157937   1.053   6.217  12.875  0.6975  0.1087  1.2161
12174TIP3    H257938   1.086   6.172  12.735 -1.3573  1.1413  0.3538
12175TIP3   OH257939   5.903   4.026   4.347 -0.3629 -0.3844 -0.3677
12175TIP3    H157940   5.944   3.949   4.307 -0.2424  0.2762 -1.5795
12175TIP3    H257941   5.832   4.048   4.286  0.5344  1.3434 -0.8539
12176TIP3   OH257942   2.571   0.091   4.220  0.6586 -0.0226  0.2355
12176TIP3    H157943   2.492   0.057   4.261 -0.2254 -1.0611 -2.1309
12176TIP3    H257944   2.641   0.076   4.284 -0.7607 -0.6648  1.6813
12177TIP3   OH257945   4.402   6.622  11.448 -0.2699 -0.0504  0.0451
12177TIP3    H157946   4.356   6.706  11.447  1.3217  0.8563 -0.5428
12177TIP3    H257947   4.396   6.590  11.357  1.2644  0.6795 -0.3414
12178TIP3   OH257948   4.877   4.816  12.754 -0.0568  0.0115 -1.0598
12178TIP3    H157949   4.852   4.819  12.846 -0.0360  0.9007 -1.0781
12178TIP3    H257950   4.918   4.730  12.744 -1.4228 -0.7259 -0.6111
12179TIP3   OH257951   5.788   4.062   3.728 -0.1014 -0.2465 -0.0337
12179TIP3    H157952   5.738   4.135   3.764 -1.5143 -1.5398  0.7345
12179TIP3    H257953   5.872   4.101   3.703 -0.5787  1.5091  0.9007
12180TIP3   OH257954   5.412   5.296  16.826  0.4805  0.0215 -0.3473
12180TIP3    H157955   5.366   5.334  16.751  0.1040  0.4671  0.1001
12180TIP3    H257956   5.450   5.371  16.871  0.2580 -0.1869  0.1975
12181TIP3   OH257957   4.467   1.651  11.832  0.0269  0.2859 -0.4491
12181TIP3    H157958   4.439   1.643  11.923  3.5267 -3.6673  0.6187
12181TIP3    H257959   4.563   1.653  11.837  0.3204  0.7371 -4.0531
12182TIP3   OH257960   4.812   0.085  14.418  0.2471  0.7484 -0.2042
12182TIP3    H157961   4.903   0.091  14.391  0.4987  0.0045  0.4374
12182TIP3    H257962   4.775   0.016  14.363  0.2897  0.4906  0.0846
12183TIP3   OH257963   4.006   6.079  11.854  0.1977 -0.4305  0.4506
12183TIP3    H157964   4.067   6.012  11.885  1.0075  0.5755  1.0519
12183TIP3    H257965   4.051   6.121  11.781  1.3371  1.9523  2.4063
12184TIP3   OH257966   2.642   4.371  11.881 -0.0038 -0.7293  0.4421
12184TIP3    H157967   2.555   4.365  11.921 -0.0093 -0.4426  0.4771
12184TIP3    H257968   2.644   4.300  11.818 -0.9127  0.2979 -0.8050
12185TIP3   OH257969   5.488   4.837   3.079 -0.3730 -0.2383  0.3105
12185TIP3    H157970   5.500   4.889   3.159 -0.2577  0.1335  0.0505
12185TIP3    H257971   5.406   4.870   3.042 -0.0567  0.0827 -0.1040
12186TIP3   OH257972   5.190   3.054  16.261 -0.0709  0.1798  0.4355
12186TIP3    H157973   5.101   3.045  16.294 -0.0072  0.7698  0.7827
12186TIP3    H257974   5.222   3.136  16.299 -0.3213  1.4328 -1.8159
12187TIP3   OH257975   3.888   0.175   1.592  0.5196  0.1036  0.1474
12187TIP3    H157976   3.840   0.171   1.675 -3.4361 -2.5775 -1.9433
12187TIP3    H257977   3.935   0.092   1.588 -1.7151 -1.2147 -1.3474
12188TIP3   OH257978   4.676   2.459  16.619 -0.3723 -0.3779  0.8915
12188TIP3    H157979   4.639   2.499  16.699 -0.6002 -2.1518  1.7144
12188TIP3    H257980   4.600   2.443  16.563 -0.3675 -0.3627  0.8803
12189TIP3   OH257981   3.639   5.023  16.861 -0.0499 -0.1468  0.4250
12189TIP3    H157982   3.688   5.017  16.943  1.9510  2.1044 -0.4616
12189TIP3    H257983   3.554   5.059  16.886  0.0589 -0.6630  1.6155
12190TIP3   OH257984   6.543   6.500  15.119 -0.1275  0.1130 -0.6505
12190TIP3    H157985   6.598   6.423  15.101  1.7697  1.2819 -0.1661
12190TIP3    H257986   6.503   6.521  15.035  2.3904  0.8389 -1.7425
12191TIP3   OH257987   6.243   0.042  10.775  0.0489 -0.1432 -0.0873
12191TIP3    H157988   6.259  -0.009  10.854  0.9074  0.3292  0.0624
12191TIP3    H257989   6.148   0.050  10.770 -0.0698 -1.2499  0.1934
12192TIP3   OH257990   4.102   6.277  17.143 -0.1444 -0.3050  0.0789
12192TIP3    H157991   4.060   6.289  17.058 -0.1271 -0.4185  0.0535
12192TIP3    H257992   4.029   6.276  17.205 -0.0647  1.2199  0.2374
12193TIP3   OH257993   5.155   1.636   2.894  0.6070  0.1180  0.0090
12193TIP3    H157994   5.202   1.553   2.900  0.8429  0.2998  0.7774
12193TIP3    H257995   5.160   1.660   2.802  0.9731 -0.4711 -0.1263
12194TIP3   OH257996   3.003   1.649   2.435 -0.3339  0.4700  0.6655
12194TIP3    H157997   3.027   1.570   2.388 -1.2109  0.1796  0.6990
12194TIP3    H257998   3.081   1.671   2.487  1.1604  1.5252 -1.8494
12195TIP3   OH257999   4.567   6.248  10.942 -0.2693  0.4238 -0.1810
12195TIP3    H158000   4.546   6.333  10.980 -0.7881  1.7224 -3.1205
12195TIP3    H258001   4.483   6.203  10.934 -0.1937  0.2559 -0.0428
12196TIP3   OH258002   5.658   5.038   2.179  0.6851 -0.8776  0.6020
12196TIP3    H158003   5.633   4.947   2.169 -1.1945 -0.6954  2.7286
12196TIP3    H258004   5.579   5.081   2.213  1.3819  1.6372 -0.6966
12197TIP3   OH258005   2.606   2.729  11.410 -0.4420  0.2241 -0.0578
12197TIP3    H158006   2.660   2.786  11.464  1.2531  0.4941 -1.9347
12197TIP3    H258007   2.619   2.642  11.447  2.7624 -0.0232 -1.4255
12198TIP3   OH258008   2.218   1.010   2.960  0.1774  0.1134  0.3419
12198TIP3    H158009   2.262   1.051   2.885  1.9108 -0.7577  0.8190
12198TIP3    H258010   2.137   1.059   2.970  0.4376  0.9887 -1.3906
12199TIP3   OH258011   1.665   3.621  11.634 -0.4046  0.1607  0.2649
12199TIP3    H158012   1.662   3.570  11.552  0.2770  0.9240 -0.2561
12199TIP3    H258013   1.574   3.645  11.651 -0.5708 -0.1266 -0.1890
12200TIP3   OH258014   2.785   4.887  14.075  0.5169 -0.5916 -0.7229
12200TIP3    H158015   2.821   4.913  13.991 -0.1634  0.4850 -0.7112
12200TIP3    H258016   2.856   4.902  14.138  0.5674 -0.0289 -0.9109
12201TIP3   OH258017   5.743   6.025  14.674 -0.3799 -0.0301  0.2245
12201TIP3    H158018   5.691   5.977  14.609  4.1705 -3.3183 -1.4808
12201TIP3    H258019   5.706   5.999  14.758 -0.9223 -3.1196 -0.8384
12202TIP3   OH258020   5.797   6.733  11.100  0.3262 -0.6715 -0.2619
12202TIP3    H158021   5.868   6.782  11.141 -0.2891  0.6454 -0.7321
12202TIP3    H258022   5.801   6.756  11.008 -0.1856 -1.2600 -0.4403
12203TIP3   OH258023   2.314   5.270   3.191 -0.1212  0.3249 -0.2989
12203TIP3    H158024   2.364   5.318   3.126 -1.8901 -0.0732 -2.0410
12203TIP3    H258025   2.363   5.189   3.205 -0.1238  0.0437 -1.7983
12204TIP3   OH258026   0.948   1.037  13.700 -0.6428  0.3590  0.3272
12204TIP3    H158027   0.984   0.979  13.766 -3.1725 -0.9419  0.6918
12204TIP3    H258028   1.003   1.024  13.623  1.5011  0.8669  1.7082
12205TIP3   OH258029   1.998   5.028   5.820 -0.3883  0.0415 -0.2477
12205TIP3    H158030   1.970   4.943   5.786 -0.4091  0.2451 -0.7470
12205TIP3    H258031   2.088   5.013   5.849 -0.0414  0.0840 -1.2450
12206TIP3   OH258032   5.668   2.873   2.272 -0.0096  0.1854 -0.4576
12206TIP3    H158033   5.686   2.796   2.326 -0.6936  0.9130  0.8349
12206TIP3    H258034   5.589   2.912   2.310  0.5112  1.7219 -0.8742
12207TIP3   OH258035   3.433   4.147   4.880 -0.4602 -0.4821  0.4056
12207TIP3    H158036   3.450   4.059   4.912  2.1360  1.2501  4.4823
12207TIP3    H258037   3.367   4.182   4.940  1.4116  1.5165  1.4228
12208TIP3   OH258038   3.821   2.616   5.830 -0.6882 -0.1600 -0.0954
12208TIP3    H158039   3.769   2.652   5.902  0.5749 -0.4665  1.0033
12208TIP3    H258040   3.790   2.526   5.821  0.0489 -0.5436  0.9868
12209TIP3   OH258041   3.913   0.784   4.909 -0.2393  0.8120 -0.3102
12209TIP3    H158042   3.823   0.781   4.941 -0.6195  1.6319 -1.2518
12209TIP3    H258043   3.965   0.814   4.984 -1.1172  2.7847 -0.4466
12210TIP3   OH258044   0.005   6.198   4.997 -0.1003 -0.1386  0.1902
12210TIP3    H158045   0.085   6.149   5.016 -1.0748 -1.7593  0.2834
12210TIP3    H258046  -0.003   6.260   5.069 -0.2130 -1.6491  1.5258
12211TIP3   OH258047   1.432   3.183  13.159 -0.0697  0.2474 -0.2165
12211TIP3    H158048   1.461   3.271  13.181 -0.4388  0.1987  0.4755
12211TIP3    H258049   1.383   3.153  13.235 -0.3238 -0.3925 -0.6181
12212TIP3   OH258050   5.793   5.082   5.865 -0.1365  0.0699  0.1483
12212TIP3    H158051   5.724   5.037   5.817 -0.3358 -1.0143  1.4032
12212TIP3    H258052   5.766   5.174   5.866 -2.1673 -0.4696  1.5464
12213TIP3   OH258053   6.724   1.093  12.676  0.2410 -0.2152  0.1857
12213TIP3    H158054   6.725   1.136  12.761  1.9026 -0.4496  0.3272
12213TIP3    H258055   6.651   1.031  12.681  0.6978 -0.6719  1.6757
12214TIP3   OH258056   4.638   3.516   0.952 -0.2044 -0.3283 -0.5161
12214TIP3    H158057   4.576   3.452   0.919  1.4773 -1.4322 -1.6855
12214TIP3    H258058   4.622   3.595   0.900  0.5657 -1.1907 -2.1229
12215TIP3   OH258059   0.435   3.405   0.582 -0.2015 -0.1648  0.2049
12215TIP3    H158060   0.495   3.478   0.595 -1.1122  0.5877  0.3051
12215TIP3    H258061   0.463   3.365   0.500 -0.4331  1.0467 -0.4864
12216TIP3   OH258062   5.175   3.477   5.383  0.1223 -0.2434  0.3298
12216TIP3    H158063   5.081   3.472   5.369  0.0381 -2.5843  1.2139
12216TIP3    H258064   5.192   3.413   5.452  2.2797  0.6456  0.7061
12217TIP3   OH258065   1.928   4.567   2.127 -0.0492 -0.3166 -0.6782
12217TIP3    H158066   1.989   4.570   2.052 -0.8891  0.3754 -1.3535
12217TIP3    H258067   1.933   4.477   2.158  1.9532 -0.0968 -0.1665
12218TIP3   OH258068   1.082   6.076  15.067  0.1341  0.3468  0.3699
12218TIP3    H158069   1.144   6.005  15.081  0.2706  0.5352  0.7190
12218TIP3    H258070   1.062   6.071  14.973  1.8819  1.2829 -0.0885
12219TIP3   OH258071   0.108   6.558   0.261 -0.6379 -0.0029 -0.1928
12219TIP3    H158072   0.083   6.613   0.335 -0.8499  0.6188 -0.7191
12219TIP3    H258073   0.194   6.523   0.286  0.1763  1.6977 -0.4308
12220TIP3   OH258074   6.590   3.232   5.421 -0.6496 -0.0085 -0.4681
12220TIP3    H158075   6.645   3.199   5.350 -0.0158  1.8919 -0.9429
12220TIP3    H258076   6.645   3.227   5.499 -1.5374 -2.6237  0.0822
12221TIP3   OH258077   4.471   6.470   3.740 -0.3029  0.5679  0.0891
12221TIP3    H158078   4.483   6.400   3.677 -0.5932  0.9850 -0.4440
12221TIP3    H258079   4.389   6.449   3.785 -1.6558  1.7423 -1.6903
12222TIP3   OH258080   3.052   1.962  16.629 -0.0338  0.1424  0.7650
12222TIP3    H158081   3.135   1.979  16.583 -0.0084 -1.4545  0.1616
12222TIP3    H258082   2.985   1.971  16.561 -0.4126  1.6617  1.3021
12223TIP3   OH258083   2.840   3.385   3.458 -0.2367 -0.0861  0.0366
12223TIP3    H158084   2.758   3.338   3.472  0.7027 -2.4361 -1.7231
12223TIP3    H258085   2.813   3.474   3.435 -2.3162 -0.8176 -0.5884
12224TIP3   OH258086   4.500   3.218   4.829 -0.1664 -0.4598  0.3710
12224TIP3    H158087   4.544   3.295   4.865 -0.3217 -0.2381  0.0872
12224TIP3    H258088   4.551   3.197   4.751  0.2350 -1.0049  0.7673
12225TIP3   OH258089   5.033   6.347  12.394  0.2513 -0.4526  0.8248
12225TIP3    H158090   5.093   6.291  12.443 -0.0074 -1.7604 -0.2825
12225TIP3    H258091   5.087   6.418  12.361  0.9281 -0.9182  0.9085
12226TIP3   OH258092   5.487   0.915  14.692  0.2307 -0.0557  0.1280
12226TIP3    H158093   5.445   0.894  14.608  1.8097 -0.0425 -0.6925
12226TIP3    H258094   5.473   1.009  14.703  2.6929  0.6263 -1.7363
12227TIP3   OH258095   2.486   4.602   1.607 -0.4600  0.2837 -0.4337
12227TIP3    H158096   2.499   4.662   1.681 -1.5140  0.2458 -0.2022
12227TIP3    H258097   2.569   4.554   1.601 -0.2410  0.5103  0.5184
12228TIP3   OH258098   0.884   2.235  14.027  0.5389  0.2162 -0.4806
12228TIP3    H158099   0.881   2.229  14.122 -2.0932  0.5233 -0.4910
12228TIP3    H258100   0.917   2.323  14.009  2.9042 -0.4731  0.0369
12229TIP3   OH258101   5.127   6.133   1.436 -0.3955 -0.0430 -0.3418
12229TIP3    H158102   5.089   6.102   1.519 -0.7172  0.5922 -0.2407
12229TIP3    H258103   5.110   6.227   1.437  1.5674  0.3435 -0.1049
12230TIP3   OH258104   5.459   2.574  10.770  0.0216  0.1963  0.3921
12230TIP3    H158105   5.392   2.576  10.702  1.5481  1.2526 -1.1773
12230TIP3    H258106   5.450   2.657  10.817 -0.8545 -0.4154  1.3528
12231TIP3   OH258107   2.827   4.625  12.137  0.4446  0.1345 -0.0878
12231TIP3    H158108   2.870   4.573  12.204 -2.3006 -2.9968 -0.4780
12231TIP3    H258109   2.881   4.613  12.059  0.7282 -0.9106  0.2466
12232TIP3   OH258110   2.525   3.066  16.630 -0.4295 -0.1039 -0.3573
12232TIP3    H158111   2.609   3.075  16.586 -1.4459 -1.0018 -2.6311
12232TIP3    H258112   2.461   3.064  16.560 -2.0252 -3.5853  0.9858
12233TIP3   OH258113   5.975   6.238  11.405 -0.0512 -0.4001 -0.1073
12233TIP3    H158114   5.932   6.313  11.365 -0.7433 -0.4114  0.5924
12233TIP3    H258115   5.905   6.192  11.452  0.4552 -1.2054 -0.1128
12234TIP3   OH258116   2.382   4.210  12.516  0.2214 -0.6673  0.4212
12234TIP3    H158117   2.477   4.199  12.520  0.4542 -0.0873 -1.8391
12234TIP3    H258118   2.367   4.301  12.541  0.3173 -0.6387  0.3752
12235TIP3   OH258119   6.555   4.207   3.286 -0.0145 -0.2525 -0.0529
12235TIP3    H158120   6.472   4.215   3.333 -0.7620 -0.0169 -1.3534
12235TIP3    H258121   6.591   4.296   3.287 -0.5320 -0.0171 -0.7601
12236TIP3   OH258122   3.086   3.593   2.821 -0.0949  0.1277  0.0246
12236TIP3    H158123   3.052   3.555   2.740 -0.7697 -1.3543  0.9527
12236TIP3    H258124   3.111   3.517   2.874  2.0948  1.1004  0.4888
12237TIP3   OH258125   0.539   1.161  15.228 -0.3248  0.0542  0.4831
12237TIP3    H158126   0.513   1.069  15.225  0.0892 -0.1172  1.5651
12237TIP3    H258127   0.482   1.205  15.166 -1.0209 -0.8224  0.4925
12238TIP3   OH258128   0.662   4.489  16.162  0.9371 -0.6349 -0.1394
12238TIP3    H158129   0.664   4.393  16.155 -2.0872 -1.0200  1.9984
12238TIP3    H258130   0.702   4.507  16.247  1.0259 -0.0647 -0.3036
12239TIP3   OH258131   2.545   3.426  11.015  0.3142  0.7798 -0.3313
12239TIP3    H158132   2.463   3.414  11.062 -0.9964 -1.3207 -2.9434
12239TIP3    H258133   2.607   3.453  11.083 -1.6814 -0.8994  2.3582
12240TIP3   OH258134   1.834   0.345  15.783 -0.1826 -0.4328 -0.2993
12240TIP3    H158135   1.894   0.378  15.850 -1.7567  0.7950  0.5466
12240TIP3    H258136   1.813   0.422  15.729 -1.6984 -0.6332 -0.0268
12241TIP3   OH258137   3.216   3.806   5.210 -0.5168  0.1672  0.5864
12241TIP3    H158138   3.279   3.737   5.191  1.3105  1.7897  0.3730
12241TIP3    H258139   3.209   3.807   5.306  0.9466  0.8862  0.7173
12242TIP3   OH258140   3.251   6.491   5.963  0.1491 -0.3112  0.2096
12242TIP3    H158141   3.327   6.549   5.974 -1.4598  2.1921 -1.0506
12242TIP3    H258142   3.285   6.403   5.984  3.0870  0.8281  0.7276
12243TIP3   OH258143   6.730   5.729   2.953  0.0558  0.2370 -0.1484
12243TIP3    H158144   6.642   5.705   2.926  0.0695 -1.2425  0.9627
12243TIP3    H258145   6.784   5.654   2.927  0.6594  0.3416  0.7459
12244TIP3   OH258146   5.076   6.399   0.669 -0.2071 -0.4526 -0.0005
12244TIP3    H158147   4.985   6.396   0.699 -0.1293 -0.3510  0.2477
12244TIP3    H258148   5.128   6.382   0.748 -0.0094 -0.4451 -0.1290
12245TIP3   OH258149   1.994   2.203  16.567  0.4370 -0.3048  0.4229
12245TIP3    H158150   2.031   2.291  16.560 -0.1561 -0.0006  0.9114
12245TIP3    H258151   2.013   2.177  16.657  1.5723 -1.1345 -0.0489
12246TIP3   OH258152   1.961   1.388   2.811  0.0889 -0.0004  0.1614
12246TIP3    H158153   1.961   1.427   2.724  0.9206 -0.7266 -0.1811
12246TIP3    H258154   2.018   1.311   2.803  1.9787  1.1056  1.8699
12247TIP3   OH258155   4.253   5.139  14.512 -0.6006  0.5478  0.1257
12247TIP3    H158156   4.298   5.210  14.466 -0.9608  1.6704  1.4417
12247TIP3    H258157   4.183   5.112  14.453  1.0118 -0.4486 -1.4572
12248TIP3   OH258158   5.487   3.953   5.367 -0.3259 -0.4741  0.0298
12248TIP3    H158159   5.468   3.912   5.451  1.0500 -0.2685  0.4708
12248TIP3    H258160   5.497   3.880   5.306 -0.0909 -0.6834  0.3198
12249TIP3   OH258161   5.674   2.968  16.552  0.0686 -0.2786 -0.1472
12249TIP3    H158162   5.702   2.940  16.465  0.6366 -1.7454  0.4864
12249TIP3    H258163   5.734   3.039  16.574  0.0669 -0.0505 -0.8463
12250TIP3   OH258164   2.383   6.639  13.668 -0.0376 -0.4618 -0.1233
12250TIP3    H158165   2.347   6.726  13.648  1.0645 -0.2282 -1.1971
12250TIP3    H258166   2.458   6.657  13.725 -0.6744 -0.8369  0.8578
12251TIP3   OH258167   6.255   2.376  12.400  0.1539  0.2261  0.3177
12251TIP3    H158168   6.269   2.384  12.305  3.1922 -1.7521  0.4593
12251TIP3    H258169   6.189   2.307  12.409 -0.6793  0.9177 -0.3365
12252TIP3   OH258170   2.253   6.740   2.683 -0.2058 -0.2602  0.4712
12252TIP3    H158171   2.251   6.836   2.681  0.9115 -0.2328  0.1584
12252TIP3    H258172   2.160   6.714   2.680 -0.5202  0.7668 -2.2842
12253TIP3   OH258173   1.394   4.183  15.489  0.6013 -0.2409 -0.0574
12253TIP3    H158174   1.412   4.273  15.461 -0.7928 -0.0394 -0.4008
12253TIP3    H258175   1.432   4.128  15.420  1.4156  0.0812  0.1303
12254TIP3   OH258176   2.646   6.068  14.079  0.1245  0.2587  0.5004
12254TIP3    H158177   2.705   6.083  14.005 -0.4197 -0.4983 -0.1168
12254TIP3    H258178   2.656   5.975  14.100  0.0383  0.3954  1.1742
12255TIP3   OH258179   1.525   1.684  11.948  0.4681 -0.1134  0.1806
12255TIP3    H158180   1.500   1.591  11.942  0.1915 -0.1377  1.4061
12255TIP3    H258181   1.615   1.682  11.980  0.6997  0.0431 -0.4425
12256TIP3   OH258182   6.486   3.480   1.881  0.3984  0.2513 -1.0373
12256TIP3    H158183   6.424   3.481   1.953  0.8830  1.2801 -0.6234
12256TIP3    H258184   6.431   3.474   1.802 -0.1067 -1.7565 -0.5992
12257TIP3   OH258185   5.080   0.297  14.029  0.0801  0.3880 -0.5780
12257TIP3    H158186   5.150   0.363  14.023  0.1613  0.7834  2.8134
12257TIP3    H258187   5.000   0.348  14.036  0.1572  0.2389  2.2198
12258TIP3   OH258188   1.696   0.858   4.564  0.4806  0.4172 -0.5244
12258TIP3    H158189   1.748   0.869   4.485 -1.7682  0.9659 -2.0313
12258TIP3    H258190   1.688   0.763   4.574  0.8515  0.3428 -0.9083
12259TIP3   OH258191   6.243   0.253  12.374  0.1487  0.4003 -0.1025
12259TIP3    H158192   6.269   0.183  12.315 -2.7637 -0.9140  0.0375
12259TIP3    H258193   6.249   0.333  12.321  1.9818 -0.1080 -0.7303
12260TIP3   OH258194   0.693   6.128  13.075 -0.8774  0.2966 -0.0158
12260TIP3    H158195   0.709   6.045  13.120  2.7182  0.6701 -0.2822
12260TIP3    H258196   0.636   6.105  13.002  0.1603 -2.0408 -0.1753
12261TIP3   OH258197   2.489   2.422   5.836 -0.4004 -0.1411 -0.0638
12261TIP3    H158198   2.424   2.476   5.881  0.3910  2.8114 -2.1202
12261TIP3    H258199   2.571   2.471   5.845  0.2977 -0.7622 -2.3516
12262TIP3   OH258200   1.886   0.864   2.741  0.4034  0.1041 -0.3106
12262TIP3    H158201   1.792   0.882   2.741 -0.1137 -2.1807 -1.5571
12262TIP3    H258202   1.918   0.904   2.822 -1.6641  0.7533  0.2624
12263TIP3   OH258203   6.740   0.666   1.942 -0.1282  0.0652  0.0066
12263TIP3    H158204   6.668   0.665   1.878 -0.5130  0.6861  0.4280
12263TIP3    H258205   6.768   0.757   1.946  0.6444 -0.1614 -0.0998
12264TIP3   OH258206   4.562   4.101   3.572  0.0515  0.1586 -0.1218
12264TIP3    H158207   4.486   4.141   3.614 -1.1443 -0.4272 -1.6498
12264TIP3    H258208   4.540   4.100   3.479  1.7378 -0.4554 -0.5433
12265TIP3   OH258209   1.010   4.668   0.069  0.4733 -0.4877  0.2918
12265TIP3    H158210   1.090   4.699   0.027  0.1712  1.3933  0.9835
12265TIP3    H258211   0.943   4.728   0.039 -0.5833 -1.6911  0.1834
12266TIP3   OH258212   6.002   5.770  12.259  0.7492 -0.4986  0.4113
12266TIP3    H158213   6.032   5.834  12.323  0.3405 -0.5864  0.6956
12266TIP3    H258214   6.076   5.759  12.199  1.1718 -0.4832  0.9198
12267TIP3   OH258215   1.081   4.047   4.586  0.6053  0.1901 -0.2520
12267TIP3    H158216   1.085   4.142   4.594  0.0433  0.2558 -0.6705
12267TIP3    H258217   1.031   4.032   4.506 -1.4138 -0.4659  1.0543
12268TIP3   OH258218   0.054   5.211   2.211 -0.1667  0.4289  0.4811
12268TIP3    H158219   0.034   5.257   2.129  0.0797  0.2534  0.3196
12268TIP3    H258220  -0.030   5.176   2.240 -0.2227  0.3260  0.1996
12269TIP3   OH258221   3.939   6.702   1.872 -0.6288 -0.6386  0.4358
12269TIP3    H158222   4.004   6.641   1.906 -0.7208 -1.6499 -1.1251
12269TIP3    H258223   3.867   6.698   1.936 -0.4223 -1.8088  0.6206
12270TIP3   OH258224   0.977   5.218   3.826 -0.1699 -0.2825 -0.2919
12270TIP3    H158225   0.926   5.140   3.848  0.8565 -0.4201  1.8525
12270TIP3    H258226   1.068   5.190   3.833  0.2175  1.0954  0.4643
12271TIP3   OH258227   1.893   5.402   5.405 -0.5938 -0.5512  0.2284
12271TIP3    H158228   1.829   5.417   5.475 -0.7769 -0.0706 -0.0387
12271TIP3    H258229   1.851   5.339   5.347 -0.1416 -1.5327  0.9361
12272TIP3   OH258230   5.121   3.563  13.716 -0.1499 -0.5222 -0.1151
12272TIP3    H158231   5.197   3.525  13.759  1.2423  1.2149 -0.9135
12272TIP3    H258232   5.142   3.656  13.707 -1.4856 -0.3470 -2.1735
12273TIP3   OH258233   3.720   0.313   1.408  0.1781  0.1626  0.6385
12273TIP3    H158234   3.766   0.263   1.476  1.0673 -1.6952 -1.2107
12273TIP3    H258235   3.786   0.373   1.374  0.6127 -0.8661 -0.4178
12274TIP3   OH258236   4.794   0.284   1.145 -0.0241 -0.7247  0.8461
12274TIP3    H158237   4.816   0.377   1.156  0.1921 -0.3755 -1.8608
12274TIP3    H258238   4.804   0.247   1.233 -0.8567  1.9262  2.1745
12275TIP3   OH258239   3.392   0.497  15.053 -0.1964 -0.0733 -0.5529
12275TIP3    H158240   3.363   0.568  14.996 -0.0947  1.7406  1.5554
12275TIP3    H258241   3.470   0.462  15.009 -0.6540  0.6014 -1.9830
12276TIP3   OH258242   2.586   1.163   1.728 -0.2613 -0.9017  0.3668
12276TIP3    H158243   2.493   1.169   1.708  0.0474  1.9010 -0.5438
12276TIP3    H258244   2.605   1.240   1.782  2.3066  1.2845 -3.1751
12277TIP3   OH258245   1.084   2.043  13.521 -0.3824  0.4641  0.5473
12277TIP3    H158246   0.999   1.998  13.522 -0.3106  0.3333  0.8315
12277TIP3    H258247   1.087   2.090  13.604  0.5618 -0.9389  1.3510
12278TIP3   OH258248   4.099   3.159   4.039 -0.2382  0.5502 -0.2146
12278TIP3    H158249   4.116   3.075   3.997 -0.8109  1.1482 -1.7011
12278TIP3    H258250   4.007   3.178   4.020 -0.1233  1.5091  0.1080
12279TIP3   OH258251   6.631   6.202   0.955 -0.3451  0.8408  0.5459
12279TIP3    H158252   6.554   6.218   1.010  1.0665  0.0117  2.8660
12279TIP3    H258253   6.621   6.112   0.926  0.0663  0.5106  1.4083
12280TIP3   OH258254   2.852   5.773   3.877  0.5439  0.8817 -0.4334
12280TIP3    H158255   2.920   5.719   3.838  0.2578  1.0384 -1.1580
12280TIP3    H258256   2.898   5.853   3.903  1.2158 -0.1284  1.7306
12281TIP3   OH258257   3.293   6.644  15.298 -0.7575  0.3159  0.5092
12281TIP3    H158258   3.276   6.675  15.209 -2.0343  0.0808  0.6607
12281TIP3    H258259   3.342   6.562  15.285  1.9706  1.8855  0.1052
12282TIP3   OH258260   2.162   0.548  10.822  0.2228 -0.1648  0.2461
12282TIP3    H158261   2.232   0.612  10.811  1.2750 -1.6539 -2.8087
12282TIP3    H258262   2.097   0.573  10.757  0.6718 -2.1122 -1.0337
12283TIP3   OH258263   0.656   4.211  14.059 -0.2706  0.3986  0.1485
12283TIP3    H158264   0.588   4.255  14.109  0.9924 -1.8909  4.3917
12283TIP3    H258265   0.611   4.140  14.013 -1.0078 -0.5369  2.1913
12284TIP3   OH258266   5.730   1.352  12.175 -0.5983  0.0267 -0.3065
12284TIP3    H158267   5.813   1.310  12.199  0.0451  0.6436 -1.3459
12284TIP3    H258268   5.689   1.289  12.115 -1.4890 -0.8305  1.1481
12285TIP3   OH258269   1.067   1.815  14.479 -0.1771 -0.5540 -0.1838
12285TIP3    H158270   0.978   1.782  14.497 -0.4663 -0.6730 -1.6820
12285TIP3    H258271   1.062   1.847  14.389  0.8853  0.9615  0.2729
12286TIP3   OH258272   2.614   0.908  16.022 -0.2470  0.7283  0.0603
12286TIP3    H158273   2.519   0.903  16.032 -0.2701  2.3130  0.9757
12286TIP3    H258274   2.634   1.001  16.028  1.3176  0.4847 -0.7899
12287TIP3   OH258275   2.780   4.942   0.533  0.2091 -0.3997 -0.2640
12287TIP3    H158276   2.773   4.955   0.627  2.0733  0.8323 -0.2348
12287TIP3    H258277   2.866   4.979   0.510  0.2245 -1.5417 -2.2898
12288TIP3   OH258278   3.515   1.636  12.363  0.3378 -0.1636 -0.0630
12288TIP3    H158279   3.487   1.572  12.428 -0.1628  0.0899 -0.0234
12288TIP3    H258280   3.482   1.602  12.280  1.6996 -0.9239 -0.3290
12289TIP3   OH258281   5.146   4.519   0.244  0.6195  0.4908 -0.1395
12289TIP3    H158282   5.173   4.448   0.186  1.3693  0.3419  0.3774
12289TIP3    H258283   5.173   4.599   0.199  0.4709  0.4140 -0.3651
12290TIP3   OH258284   1.389   0.550   1.823  0.0891 -0.1033 -0.1560
12290TIP3    H158285   1.389   0.457   1.849  0.3007 -0.2327 -0.6128
12290TIP3    H258286   1.461   0.557   1.760 -0.4034  0.2161 -0.6864
12291TIP3   OH258287   2.591   5.105   0.807  0.2011 -0.1468  0.1237
12291TIP3    H158288   2.664   5.134   0.752  1.2320 -2.9287 -0.1566
12291TIP3    H258289   2.609   5.143   0.893  0.7872  0.9422 -0.4525
12292TIP3   OH258290   2.442   4.540   0.344  0.0956  0.5935 -0.3562
12292TIP3    H158291   2.500   4.597   0.293 -0.0497  0.6492 -0.4596
12292TIP3    H258292   2.365   4.529   0.289  0.5306 -0.5174 -0.7722
12293TIP3   OH258293   4.963   4.504  15.273 -0.2824 -0.3586 -0.4899
12293TIP3    H158294   4.889   4.481  15.217 -0.7744  0.0033 -0.0091
12293TIP3    H258295   4.946   4.458  15.355  0.0974 -0.3787 -0.4201
12294TIP3   OH258296   2.658   6.667  15.304  0.2934 -0.7249  0.7797
12294TIP3    H158297   2.668   6.723  15.382 -3.5088  0.5771  0.5583
12294TIP3    H258298   2.667   6.728  15.231 -2.2975 -0.5493  0.4974
12295TIP3   OH258299   3.070   1.671  11.842  0.8723  0.0676  0.1930
12295TIP3    H158300   3.121   1.591  11.852  1.8206  0.7005  0.6194
12295TIP3    H258301   3.018   1.676  11.922 -0.0734 -0.6999 -0.3452
12296TIP3   OH258302   0.395   6.714   2.475  0.0535 -0.5059  0.4875
12296TIP3    H158303   0.485   6.735   2.450 -0.0690  0.6214  0.9147
12296TIP3    H258304   0.360   6.797   2.509 -0.4435 -1.4319  2.3918
12297TIP3   OH258305   6.170   3.661   2.621 -0.0220 -0.8862  0.2260
12297TIP3    H158306   6.090   3.709   2.599 -0.6509 -0.7017  2.6770
12297TIP3    H258307   6.197   3.696   2.706  1.7413 -2.1288  0.2340
12298TIP3   OH258308   0.570   0.997  13.015 -0.4176 -0.3716 -0.1175
12298TIP3    H158309   0.571   0.936  13.089 -0.1620 -0.9109 -0.5602
12298TIP3    H258310   0.500   1.058  13.036 -1.7723 -1.7619 -0.4135
12299TIP3   OH258311   5.246   6.446  15.883  0.1746 -0.5185  0.4269
12299TIP3    H158312   5.155   6.419  15.899  0.1779  0.1887  1.8480
12299TIP3    H258313   5.298   6.374  15.917  0.1439 -0.6623  0.1662
12300TIP3   OH258314   0.396   5.861   5.423 -0.3076  0.3897  0.2228
12300TIP3    H158315   0.465   5.847   5.488  0.2782 -0.5001 -0.5765
12300TIP3    H258316   0.438   5.845   5.339 -1.3784  0.2851 -0.3082
12301TIP3   OH258317   0.549   2.568  10.423 -0.2395 -0.0266  0.1005
12301TIP3    H158318   0.540   2.648  10.371  0.6546 -0.7119 -1.1534
12301TIP3    H258319   0.610   2.591  10.492  2.1792 -0.2997 -1.8168
12302TIP3   OH258320   6.513   6.685   1.212  0.2034 -0.1769  0.1964
12302TIP3    H158321   6.427   6.652   1.237 -0.7010  2.2436  0.5639
12302TIP3    H258322   6.562   6.688   1.294  0.2920 -0.5994  0.1597
12303TIP3   OH258323   5.806   4.314  13.146 -0.0402 -0.5670  0.1178
12303TIP3    H158324   5.845   4.374  13.209 -0.2150 -1.1580  0.8029
12303TIP3    H258325   5.852   4.332  13.064  0.4400 -0.0306  0.4961
12304TIP3   OH258326   2.663   1.042   4.821  0.0260  0.4081 -0.0404
12304TIP3    H158327   2.737   1.095   4.852  1.6224 -1.6006 -0.1876
12304TIP3    H258328   2.598   1.106   4.792  1.9127  2.2850 -0.3890
12305TIP3   OH258329   0.275   3.869   3.571 -0.2826  0.0558 -0.1008
12305TIP3    H158330   0.259   3.903   3.483  0.4198  1.5053  0.3043
12305TIP3    H258331   0.233   3.932   3.629 -0.5039 -0.7417  0.6154
12306TIP3   OH258332   0.586   6.646   3.521 -0.0687  0.0143  0.0140
12306TIP3    H158333   0.591   6.628   3.615 -1.4413 -0.7467 -0.0222
12306TIP3    H258334   0.493   6.663   3.505  0.4082  2.0050 -0.9087
12307TIP3   OH258335   0.217   3.286  16.698 -0.5784  0.7001  0.4998
12307TIP3    H158336   0.229   3.377  16.670  0.7954  0.0672 -1.1149
12307TIP3    H258337   0.293   3.268  16.752  0.6160 -0.2758 -1.4291
12308TIP3   OH258338   2.166   0.511   2.106 -0.1006 -0.6140  0.0117
12308TIP3    H158339   2.134   0.476   2.189 -1.1059  0.7424  0.2289
12308TIP3    H258340   2.155   0.439   2.044  2.3270 -2.2738  1.3441
12309TIP3   OH258341   4.582   5.205  12.836 -0.4848  0.3476 -0.2689
12309TIP3    H158342   4.556   5.127  12.786  0.6465 -0.8807  1.0010
12309TIP3    H258343   4.648   5.247  12.781  0.1321 -0.5279 -0.2174
12310TIP3   OH258344   6.683   4.224  16.715 -0.3035 -0.1203  0.8987
12310TIP3    H158345   6.694   4.268  16.631  0.5197  0.7272  1.4229
12310TIP3    H258346   6.741   4.148  16.711 -0.9648 -0.5989  0.3623
12311TIP3   OH258347   0.792   3.867   5.826  0.6123  0.2387  0.6977
12311TIP3    H158348   0.888   3.864   5.833  0.7083  1.2439  0.0569
12311TIP3    H258349   0.774   3.955   5.791 -0.5055 -0.1620  0.2387
12312TIP3   OH258350   5.013   3.261   2.162 -0.2407  0.0026 -0.4062
12312TIP3    H158351   4.925   3.295   2.143  0.4804  1.8934 -0.5593
12312TIP3    H258352   5.022   3.273   2.257  0.7268  2.1527 -0.7173
12313TIP3   OH258353   2.245   3.226   5.628  0.6707 -0.0605  0.4475
12313TIP3    H158354   2.242   3.290   5.699  1.8105  1.6685 -0.9686
12313TIP3    H258355   2.222   3.143   5.670 -0.4079  1.1643  2.4589
12314TIP3   OH258356   5.545   5.524  13.930 -0.3161  0.0829  0.4226
12314TIP3    H158357   5.539   5.485  14.018  1.3682 -1.7628 -0.2078
12314TIP3    H258358   5.598   5.602  13.943  0.7867 -0.7170  0.9332
12315TIP3   OH258359   1.925   0.655  15.309  0.2229 -0.3339  0.5658
12315TIP3    H158360   1.931   0.664  15.214 -0.4204 -0.3050  0.5288
12315TIP3    H258361   1.886   0.568  15.322 -0.0821 -0.1599  0.7977
12316TIP3   OH258362   6.551   2.502  16.328  0.1487 -0.1005 -0.2053
12316TIP3    H158363   6.519   2.485  16.239 -0.2038 -3.4927  0.4323
12316TIP3    H258364   6.476   2.541  16.373 -0.3669 -0.3304 -0.8398
12317TIP3   OH258365   5.902   6.605   1.301  0.3593  1.0358  0.3940
12317TIP3    H158366   5.944   6.652   1.374  1.4188  0.6000  0.0729
12317TIP3    H258367   5.923   6.513   1.316 -0.3701  0.8192  0.1409
12318TIP3   OH258368   0.579   1.150   6.029 -0.0720 -0.0799 -0.4866
12318TIP3    H158369   0.543   1.231   6.065  0.2878 -0.4677  0.7917
12318TIP3    H258370   0.506   1.110   5.981 -0.2502  0.9850 -1.1251
12319TIP3   OH258371   3.408   1.034   2.233  0.5362 -0.3626 -0.2354
12319TIP3    H158372   3.406   0.967   2.302  2.7134  0.0678  0.3476
12319TIP3    H258373   3.495   1.025   2.194  1.0781  2.3313  0.1264
12320TIP3   OH258374   2.810   3.853   2.637  0.0042  0.2382 -0.1172
12320TIP3    H158375   2.853   3.815   2.560 -0.8913  0.5122 -0.7785
12320TIP3    H258376   2.721   3.819   2.633 -0.4331  1.3309  0.0264
12321TIP3   OH258377   0.610   3.710  17.374 -0.0232 -0.3388  0.5109
12321TIP3    H158378   0.659   3.764  17.313  1.2624 -0.8899  1.0133
12321TIP3    H258379   0.521   3.745  17.371  0.4040  0.7382 -0.3776
12322TIP3   OH258380   1.244   3.525   1.116 -0.6140 -0.0208  0.3198
12322TIP3    H158381   1.182   3.598   1.121  0.0823  0.5340  0.9437
12322TIP3    H258382   1.327   3.561   1.147  0.2992 -0.4798 -1.4534
12323TIP3   OH258383   4.136   1.474   4.933 -0.0585  0.6062 -0.6745
12323TIP3    H158384   4.119   1.564   4.960 -2.7724  0.0641 -0.2271
12323TIP3    H258385   4.161   1.429   5.014 -2.7030  0.1774  0.0046
12324TIP3   OH258386   3.002   1.774   3.222  0.3733 -0.3645 -0.8454
12324TIP3    H158387   3.064   1.707   3.252 -1.5893 -2.3364 -0.8929
12324TIP3    H258388   2.935   1.777   3.291  0.4902  1.7258 -0.7748
12325TIP3   OH258389   5.374   6.048  14.553 -0.3597 -0.6461  0.5214
12325TIP3    H158390   5.417   6.118  14.504  0.0590  0.7256  2.7359
12325TIP3    H258391   5.355   5.981  14.487 -0.9512  1.5887 -1.7226
12326TIP3   OH258392   4.376   1.593  13.709  0.3569  0.6576  0.1695
12326TIP3    H158393   4.357   1.518  13.654  1.6174  0.7491 -0.4415
12326TIP3    H258394   4.432   1.559  13.779 -1.1515  0.5620  1.3627
12327TIP3   OH258395   4.972   3.123  14.436 -0.2915  0.3204  0.0108
12327TIP3    H158396   4.962   3.055  14.369 -1.7735  1.0269 -0.5430
12327TIP3    H258397   4.900   3.183  14.419 -0.0217  1.1270  1.5530
12328TIP3   OH258398   0.957   4.836   4.199  0.4300  0.2646  0.1127
12328TIP3    H158399   1.052   4.826   4.194  0.1330 -3.6163 -3.1166
12328TIP3    H258400   0.929   4.769   4.262 -0.2915 -1.3769 -1.8716
12329TIP3   OH258401   1.343   0.043   6.169 -0.4342 -0.4653 -0.3646
12329TIP3    H158402   1.360   0.135   6.149 -0.9990  0.3050  2.2179
12329TIP3    H258403   1.403   0.023   6.241 -2.1339 -1.2726  0.8898
12330TIP3   OH258404   4.184   0.457   2.453  0.1319 -0.1506  0.2406
12330TIP3    H158405   4.129   0.382   2.475  0.4742 -0.4278  0.1622
12330TIP3    H258406   4.202   0.499   2.536 -0.1967 -0.0599  0.2672
12331TIP3   OH258407   5.505   5.411   5.277  0.4081 -0.5087  0.0810
12331TIP3    H158408   5.484   5.376   5.364 -0.3991  0.5499  0.3346
12331TIP3    H258409   5.591   5.453   5.289  1.2287 -2.0625 -0.1466
12332TIP3   OH258410   1.225   4.089   5.005 -0.1182 -0.1374  0.1255
12332TIP3    H158411   1.143   4.099   5.054  0.5235 -0.5210  1.3072
12332TIP3    H258412   1.219   4.155   4.936 -1.1709  0.2399  0.5488
12333TIP3   OH258413   2.989   3.505   2.536 -0.0566 -0.3230  0.5093
12333TIP3    H158414   2.992   3.444   2.463  1.9037 -2.8199  2.5238
12333TIP3    H258415   2.904   3.489   2.577  0.0570 -1.0115  0.4799
12334TIP3   OH258416   3.898   0.158   3.814 -0.7249 -0.0280  0.4851
12334TIP3    H158417   3.909   0.253   3.821 -0.5154  0.1256 -1.3325
12334TIP3    H258418   3.821   0.148   3.757  0.4159 -0.8946 -0.9732
12335TIP3   OH258419   5.840   4.673   2.856 -0.0929 -0.3130 -0.4878
12335TIP3    H158420   5.923   4.697   2.899 -1.1727  0.3349  1.3749
12335TIP3    H258421   5.778   4.740   2.885 -1.6283 -1.6129 -0.6039
12336TIP3   OH258422   4.180   5.206   1.314 -0.0841  0.2491  0.0525
12336TIP3    H158423   4.136   5.188   1.231 -3.5504  2.0137  1.3321
12336TIP3    H258424   4.234   5.283   1.295 -2.6473  2.1131 -0.1667
12337TIP3   OH258425   6.055   5.600   0.233 -0.0123  0.6880  0.2792
12337TIP3    H158426   6.009   5.673   0.274  1.0994  2.8981 -2.1359
12337TIP3    H258427   6.129   5.582   0.292 -0.8270  0.8270  1.3751
12338TIP3   OH258428   4.654   6.661   3.725 -0.5658 -0.1273 -0.0788
12338TIP3    H158429   4.586   6.602   3.757  0.5996 -1.5901 -0.2190
12338TIP3    H258430   4.712   6.606   3.672  1.6857  0.6295  1.4130
12339TIP3   OH258431   4.599   4.635   1.038  0.0808  0.4033 -0.3437
12339TIP3    H158432   4.680   4.652   1.086  0.1845  1.0721 -0.7385
12339TIP3    H258433   4.591   4.709   0.978 -0.5923  0.1137 -0.6215
12340TIP3   OH258434   4.818   3.680  16.000 -0.3744 -0.4343  0.2519
12340TIP3    H158435   4.899   3.635  15.975  0.3021  0.2767  1.1085
12340TIP3    H258436   4.754   3.609  16.012  0.7805 -1.2631  2.0248
12341TIP3   OH258437   6.239   5.709  12.680 -0.1799 -0.4024 -0.3588
12341TIP3    H158438   6.226   5.615  12.691 -1.1798 -0.3479 -0.9320
12341TIP3    H258439   6.331   5.718  12.657 -0.5556 -1.5043 -2.7081
12342TIP3   OH258440   4.237   5.505  13.620 -0.0569 -0.4715 -0.2437
12342TIP3    H158441   4.213   5.505  13.712  0.7957  2.9164  0.1069
12342TIP3    H258442   4.198   5.585  13.585  1.6166 -0.4396 -2.2447
12343TIP3   OH258443   4.143   0.061  14.215 -0.5753  0.2478  0.1014
12343TIP3    H158444   4.121  -0.032  14.213 -0.5682  0.2566 -0.7264
12343TIP3    H258445   4.195   0.075  14.137 -0.6710  0.9743  0.1597
12344TIP3   OH258446   4.600   6.047  15.856  0.0072  0.0113 -0.5425
12344TIP3    H158447   4.685   6.024  15.819 -0.8459 -0.3510 -2.4017
12344TIP3    H258448   4.586   5.983  15.926  0.2941 -1.3751 -1.7030
12345TIP3   OH258449   4.824   4.804  11.000 -0.2326 -0.0346 -0.2533
12345TIP3    H158450   4.810   4.709  11.001  1.6242 -0.3430  0.7179
12345TIP3    H258451   4.906   4.817  11.048  0.3199  1.9448 -1.6029
12346TIP3   OH258452   6.593   3.744  17.030  0.2004  0.8674  0.2039
12346TIP3    H158453   6.518   3.797  17.056  0.2297  0.7128  0.6195
12346TIP3    H258454   6.598   3.676  17.098 -0.1839 -0.0106 -0.6187
12347TIP3   OH258455   5.216   3.547  13.120  0.6954 -0.0238 -0.6372
12347TIP3    H158456   5.242   3.492  13.194  1.8546  0.2377 -0.8285
12347TIP3    H258457   5.126   3.520  13.100  1.8642 -3.4071 -2.0722
12348TIP3   OH258458   2.937   1.816  14.088 -0.2729 -0.3429  0.3688
12348TIP3    H158459   2.864   1.768  14.127  0.0375 -0.4662  0.8126
12348TIP3    H258460   3.008   1.752  14.085 -0.6660 -0.7626 -1.6781
12349TIP3   OH258461   4.012   5.556  11.378  0.2449 -1.0366  0.4485
12349TIP3    H158462   4.059   5.493  11.434  1.2533 -2.1267 -1.5274
12349TIP3    H258463   4.076   5.627  11.364  0.2051 -1.0481  0.2098
12350TIP3   OH258464   1.085   5.525  12.510  0.2823  0.0588  0.1295
12350TIP3    H158465   1.113   5.594  12.450  2.0554 -1.2629 -0.6312
12350TIP3    H258466   1.164   5.501  12.558 -1.0169  0.8560  2.8394
12351TIP3   OH258467   1.395   2.331  13.609 -0.0135 -0.0787  0.4434
12351TIP3    H158468   1.462   2.399  13.616  0.1650 -0.3396  1.3501
12351TIP3    H258469   1.315   2.374  13.640 -0.0579 -0.0604  0.3037
12352TIP3   OH258470   2.171   1.991   2.837  0.8747 -0.5638 -0.5525
12352TIP3    H158471   2.080   2.020   2.836 -0.1044 -3.3773 -0.7854
12352TIP3    H258472   2.218   2.061   2.883 -1.2414  1.2875 -1.0695
12353TIP3   OH258473   4.284   2.260  13.756  0.1738 -0.4999  0.0029
12353TIP3    H158474   4.377   2.271  13.737  0.0317  0.0950 -0.3700
12353TIP3    H258475   4.279   2.256  13.852  0.6797 -1.5533  0.0028
12354TIP3   OH258476   2.585   1.279   4.242 -0.2013  0.0595  0.2057
12354TIP3    H158477   2.608   1.196   4.199  0.6028  1.0824 -1.4149
12354TIP3    H258478   2.621   1.270   4.330  1.0554 -0.8030 -0.3590
12355TIP3   OH258479   1.855   1.229   0.240 -0.4161  0.2640 -0.0340
12355TIP3    H158480   1.937   1.199   0.202  0.3238 -0.9894  2.3033
12355TIP3    H258481   1.838   1.314   0.200  1.4741  0.0867 -1.3090
12356TIP3   OH258482   2.721   3.808   3.982 -0.3071  0.0754 -0.2449
12356TIP3    H158483   2.629   3.780   3.977 -0.0818 -0.3948 -3.1594
12356TIP3    H258484   2.727   3.881   3.921  0.6067  2.3722  2.3983
12357TIP3   OH258485   5.101   6.654  11.628  0.4167  0.0551  0.0108
12357TIP3    H158486   5.108   6.658  11.533  1.5925  0.6107  0.1069
12357TIP3    H258487   5.102   6.746  11.657 -3.0238  0.1253  0.4171
12358TIP3   OH258488   3.184   0.367  13.400 -0.0473 -0.5318  0.5334
12358TIP3    H158489   3.240   0.289  13.399  0.2053 -0.3619 -1.0364
12358TIP3    H258490   3.241   0.436  13.435  0.6081 -0.4721 -0.5870
12359TIP3   OH258491   3.150   3.454   4.292  0.3377 -0.1742 -0.1863
12359TIP3    H158492   3.090   3.387   4.258  0.5814 -0.3958 -0.1855
12359TIP3    H258493   3.223   3.404   4.329  1.0940  0.1113 -1.2321
12360TIP3   OH258494   3.357   6.360   2.771  0.0948  0.0088  0.2849
12360TIP3    H158495   3.408   6.439   2.786  1.1214 -0.6593  0.4880
12360TIP3    H258496   3.280   6.389   2.722  0.4985  1.1061  0.2761
12361TIP3   OH258497   2.900   2.746   0.364 -0.5833  0.1202 -0.0234
12361TIP3    H158498   2.902   2.841   0.377 -2.3565  0.1848  0.0062
12361TIP3    H258499   2.814   2.729   0.325  0.2486 -1.3349 -1.3189
12362TIP3   OH258500   2.425   6.285  14.382  0.3827  0.0707 -0.2168
12362TIP3    H158501   2.503   6.239  14.413  1.2271  1.4634 -0.1975
12362TIP3    H258502   2.436   6.292  14.288 -0.7161 -1.4826 -0.4931
12363TIP3   OH258503   5.650   3.817   5.735 -0.1263  0.2232 -0.0305
12363TIP3    H158504   5.693   3.881   5.679 -0.1967 -0.4817 -0.9265
12363TIP3    H258505   5.564   3.803   5.694 -0.4214  0.1441  0.5988
12364TIP3   OH258506   3.943   2.757  12.685  0.5039  0.1285  0.4857
12364TIP3    H158507   3.880   2.706  12.735 -0.1917 -2.0903 -2.3696
12364TIP3    H258508   3.892   2.794  12.612  1.8053  1.5251  0.2248
12365TIP3   OH258509   1.135   1.114   5.807 -0.4579 -0.0611  0.0883
12365TIP3    H158510   1.109   1.115   5.899  1.2921  0.4134  0.6273
12365TIP3    H258511   1.053   1.118   5.758 -1.4280 -0.4566  1.6171
12366TIP3   OH258512   4.144   2.234   1.169  0.1433  0.2336  0.7212
12366TIP3    H158513   4.195   2.264   1.093  1.8031 -0.4117  1.5266
12366TIP3    H258514   4.140   2.139   1.158  3.1028 -0.2951  2.9091
12367TIP3   OH258515   5.883   0.804  16.920 -0.1651 -0.6704  0.3447
12367TIP3    H158516   5.976   0.781  16.911 -0.1842 -0.7766  0.4152
12367TIP3    H258517   5.863   0.786  17.012 -0.5304 -1.6515  0.0896
12368TIP3   OH258518   3.460   0.092   3.407 -0.2504  1.0204  0.2047
12368TIP3    H158519   3.441   0.120   3.496  2.9649  0.4236  1.2260
12368TIP3    H258520   3.430   0.165   3.352 -0.6240  2.2227  1.9300
12369TIP3   OH258521   3.586   0.946   0.380  0.0966 -0.0451  0.3528
12369TIP3    H158522   3.672   0.954   0.339  0.6631  1.5116  1.7073
12369TIP3    H258523   3.524   0.954   0.308  1.0639  1.5989 -0.3596
12370TIP3   OH258524   4.349   4.555   1.128 -0.1040 -0.4395  0.2346
12370TIP3    H158525   4.371   4.477   1.180  0.3111 -0.1674  0.4661
12370TIP3    H258526   4.432   4.582   1.088 -0.6870 -1.6037 -1.9142
12371TIP3   OH258527   3.858   1.077  13.614 -0.7227  0.1651  0.1287
12371TIP3    H158528   3.814   1.150  13.657 -0.4023  0.3536  0.1407
12371TIP3    H258529   3.817   0.999  13.652 -0.5609  0.3305  0.6625
12372TIP3   OH258530   0.525   6.347  14.246 -0.1423  0.1815 -0.0618
12372TIP3    H158531   0.455   6.408  14.270  1.0437  1.5899 -0.0971
12372TIP3    H258532   0.495   6.262  14.279 -1.9984  0.6856 -0.3389
12373TIP3   OH258533   1.065   4.714  12.074 -0.1390  0.1086  0.6406
12373TIP3    H158534   1.023   4.797  12.050  0.1861  0.5070  1.4156
12373TIP3    H258535   1.050   4.707  12.169  0.2941 -0.4545  0.6657
12374TIP3   OH258536   1.529   3.517  15.382 -0.3601  0.2492  0.3912
12374TIP3    H158537   1.562   3.554  15.464  1.1589  0.9461 -0.4850
12374TIP3    H258538   1.467   3.583  15.349  1.3480  1.4920 -0.5072
12375TIP3   OH258539   5.235   2.375  13.651 -0.9093  0.1349 -0.3909
12375TIP3    H158540   5.159   2.413  13.695 -0.2070  1.5331 -0.3539
12375TIP3    H258541   5.208   2.368  13.559 -0.1933  3.2804 -0.9612
12376TIP3   OH258542   5.001   5.041  13.724 -0.0313  0.2826  0.2146
12376TIP3    H158543   5.058   4.985  13.777  0.5344  1.2007  0.5922
12376TIP3    H258544   4.989   5.120  13.777  0.2384  1.0649 -0.8681
12377TIP3   OH258545   4.684   0.820  12.443 -0.0337  0.1184  0.1896
12377TIP3    H158546   4.740   0.829  12.520  1.2027 -2.6172 -0.2645
12377TIP3    H258547   4.742   0.788  12.374 -1.4760  0.7124 -1.3598
12378TIP3   OH258548   0.443   1.419   3.360 -0.5077 -0.0713  0.3036
12378TIP3    H158549   0.526   1.460   3.334 -0.6203 -0.7894 -1.3137
12378TIP3    H258550   0.376   1.472   3.318 -0.8552  0.1944  1.1782
12379TIP3   OH258551   6.562   3.510  11.256 -0.2963  0.4180 -0.3982
12379TIP3    H158552   6.582   3.599  11.283  0.2118  1.1865 -3.0272
12379TIP3    H258553   6.631   3.488  11.193  0.5543 -2.4828  1.2896
12380TIP3   OH258554   2.136   1.199   2.764 -0.1856  0.0408 -1.0069
12380TIP3    H158555   2.126   1.122   2.709 -0.7316  0.4859 -1.5444
12380TIP3    H258556   2.200   1.253   2.716  0.7518 -0.3854 -0.2749
12381TIP3   OH258557   4.074   4.889  17.042 -0.5450 -0.2409 -0.3600
12381TIP3    H158558   4.112   4.822  17.099 -1.0197  1.5271  2.2232
12381TIP3    H258559   4.127   4.967  17.059  0.0202  0.1386 -3.2948
12382TIP3   OH258560   4.676   0.242  16.083 -0.3768 -0.2277  0.2927
12382TIP3    H158561   4.669   0.149  16.059 -1.4419 -0.7936  2.5160
12382TIP3    H258562   4.594   0.261  16.128  0.3317  1.4707  0.9524
12383TIP3   OH258563   4.658   0.156  13.951 -0.5849 -0.1292  0.0392
12383TIP3    H158564   4.706   0.215  14.009 -2.5724  0.1209  1.5537
12383TIP3    H258565   4.591   0.212  13.910 -0.9434 -0.8558 -0.3946
12384TIP3   OH258566   2.784   2.089   0.297 -0.0260  0.0217 -0.2096
12384TIP3    H158567   2.689   2.088   0.309 -0.2087 -0.5698 -1.5994
12384TIP3    H258568   2.818   2.045   0.375 -0.9472 -0.6003 -0.1422
12385TIP3   OH258569   1.107   2.880   5.382  0.6918  0.1808  0.7553
12385TIP3    H158570   1.188   2.842   5.416 -0.4747 -3.3318  0.0752
12385TIP3    H258571   1.117   2.877   5.287  0.0173  0.2974  0.6769
12386TIP3   OH258572   3.884   1.481   2.720 -0.3475  0.0704 -0.3855
12386TIP3    H158573   3.867   1.397   2.677  0.8280  0.0743 -0.9054
12386TIP3    H258574   3.910   1.540   2.648  0.4821  0.4056  0.1739
12387TIP3   OH258575   4.120   1.884  12.595  0.3213  0.0747 -0.0676
12387TIP3    H158576   4.091   1.883  12.686 -0.6372  1.8579 -0.3102
12387TIP3    H258577   4.201   1.935  12.596  1.8756 -2.2583  0.1431
12388TIP3   OH258578   2.951   3.761   2.399 -0.2342  0.1843 -0.4931
12388TIP3    H158579   2.973   3.671   2.421  0.0438  0.4320  0.2928
12388TIP3    H258580   3.005   3.781   2.323  1.9168  0.5986  1.0576
12389TIP3   OH258581   3.286   2.857   5.876  0.0790  0.3766  0.1867
12389TIP3    H158582   3.294   2.767   5.909 -1.3750  0.1812  0.0955
12389TIP3    H258583   3.223   2.850   5.804  0.9713  1.2719 -0.7076
12390TIP3   OH258584   0.290   0.158   1.658  0.1197  0.1911  0.1454
12390TIP3    H158585   0.221   0.119   1.605 -0.7034  0.8832  0.6906
12390TIP3    H258586   0.253   0.164   1.746  0.8167  0.7131  0.4151
12391TIP3   OH258587   0.406   1.631  14.090 -0.0669 -0.2995 -0.1750
12391TIP3    H158588   0.378   1.554  14.139 -1.5122 -0.1872 -0.7621
12391TIP3    H258589   0.333   1.692  14.097  0.6104  0.5909 -0.6336
12392TIP3   OH258590   2.572   0.041  12.328 -0.8494  0.0864  0.0387
12392TIP3    H158591   2.530   0.004  12.251 -0.7025 -1.2430  0.5639
12392TIP3    H258592   2.587  -0.034  12.386  2.5732  0.3444 -0.2647
12393TIP3   OH258593   5.941   1.709  12.772  1.0609  0.2353  0.0946
12393TIP3    H158594   5.886   1.648  12.823  0.5372 -0.2678 -1.0467
12393TIP3    H258595   6.026   1.666  12.768  0.7389 -0.3539 -0.5614
12394TIP3   OH258596   3.286   4.767  14.729 -0.5313  0.4660 -0.4480
12394TIP3    H158597   3.319   4.856  14.714  0.2910  0.5238  1.3904
12394TIP3    H258598   3.355   4.710  14.695  0.1383  0.5858  0.6212
12395TIP3   OH258599   4.875   5.088   5.493  0.0194 -0.5601  0.5480
12395TIP3    H158600   4.929   5.009   5.500  1.2050  0.0784 -0.8853
12395TIP3    H258601   4.910   5.147   5.560 -0.7993 -1.1854  1.5496
12396TIP3   OH258602   3.037   4.895  13.559  0.0626  0.3783  0.5805
12396TIP3    H158603   3.063   4.847  13.481 -0.6332  0.2665  0.4113
12396TIP3    H258604   3.103   4.964  13.568 -0.3177  0.9358 -0.6103
12397TIP3   OH258605   5.939   4.704  16.752 -0.3775 -0.0153 -0.3660
12397TIP3    H158606   5.893   4.721  16.835 -0.2414  0.1299 -0.3195
12397TIP3    H258607   6.029   4.687  16.779 -0.5566 -1.0941 -0.3842
12398TIP3   OH258608   3.586   3.292  13.873  0.4768  0.4976 -0.2360
12398TIP3    H158609   3.635   3.218  13.836  0.9796  0.3606  0.6826
12398TIP3    H258610   3.612   3.295  13.965  1.0332  2.2658 -0.4131
12399TIP3   OH258611   5.858   0.517  14.810  0.1541 -0.4023  0.3067
12399TIP3    H158612   5.778   0.553  14.773  0.4651  0.8656  0.8277
12399TIP3    H258613   5.830   0.479  14.894 -0.0541 -0.7647  0.0746
12400TIP3   OH258614   0.119   5.714  12.436  0.2447  0.0173  0.5290
12400TIP3    H158615   0.108   5.643  12.500  2.3720 -1.4698 -0.6103
12400TIP3    H258616   0.198   5.760  12.466  1.1484 -0.5753 -0.8535
12401TIP3   OH258617   4.780   5.499  12.856  0.4103  1.0554 -0.3913
12401TIP3    H158618   4.795   5.439  12.783  0.3436 -0.5365  0.8436
12401TIP3    H258619   4.782   5.443  12.934  1.7220  2.8521  0.9643
12402TIP3   OH258620   5.874   2.798  16.628 -0.4931  0.4164 -0.1339
12402TIP3    H158621   5.909   2.730  16.570 -0.3812 -0.8600  1.3606
12402TIP3    H258622   5.791   2.761  16.660 -0.9223  1.4258 -0.0500
12403TIP3   OH258623   1.888   1.315  14.417  0.4742  0.1982  0.2189
12403TIP3    H158624   1.971   1.308  14.371  0.0448  0.4452 -0.6101
12403TIP3    H258625   1.842   1.386  14.373 -0.2062  0.0198  0.6249
12404TIP3   OH258626   0.079   3.236  17.011 -0.2395 -0.1831  0.4222
12404TIP3    H158627   0.064   3.320  17.055  1.1888  0.5848 -0.5052
12404TIP3    H258628   0.121   3.181  17.077 -0.9103 -0.0770  0.9427
12405TIP3   OH258629   1.132   5.887   3.293 -0.0917  0.4053  0.1160
12405TIP3    H158630   1.146   5.906   3.386  0.6042 -1.3734  0.4245
12405TIP3    H258631   1.082   5.805   3.293  2.3337 -1.2060 -1.0046
12406TIP3   OH258632   3.529   4.753   1.456 -0.7027  0.2581 -0.5037
12406TIP3    H158633   3.562   4.775   1.369  1.4895  1.8479  0.6410
12406TIP3    H258634   3.440   4.789   1.458 -1.2315 -0.7972 -2.4072
12407TIP3   OH258635   5.061   2.671  17.009 -0.2635  0.5513  0.4352
12407TIP3    H158636   4.989   2.612  17.033  0.7256 -1.2228 -0.6660
12407TIP3    H258637   5.125   2.613  16.966  1.0557  2.3577 -0.1439
12408TIP3   OH258638   5.134   4.446  17.250 -0.2138 -0.2932  0.1986
12408TIP3    H158639   5.150   4.412  17.162 -0.6493 -1.6889  0.6257
12408TIP3    H258640   5.125   4.541  17.239 -0.3366 -0.4600 -1.2620
12409TIP3   OH258641   3.348   5.613  16.807 -0.4282  0.0325 -0.0289
12409TIP3    H158642   3.311   5.527  16.827  0.2337 -0.1249  0.5589
12409TIP3    H258643   3.327   5.627  16.714  0.1051 -1.0928 -0.3313
12410TIP3   OH258644   2.721   0.028  11.443  0.4277 -0.3244  0.4852
12410TIP3    H158645   2.734   0.055  11.352  0.3535 -0.6151  0.3855
12410TIP3    H258646   2.706  -0.066  11.438  0.0875 -0.2864  0.7717
12411TIP3   OH258647   0.496   1.037   4.292 -0.0998  0.4396 -0.1652
12411TIP3    H158648   0.472   0.945   4.284  1.6024  0.0930 -2.2308
12411TIP3    H258649   0.541   1.043   4.377  0.4894 -0.8270 -0.3620
12412TIP3   OH258650   0.906   2.791   4.487 -0.4792 -0.4757  0.5012
12412TIP3    H158651   0.992   2.802   4.528 -0.8842  0.3799  1.1387
12412TIP3    H258652   0.894   2.696   4.483 -0.1580 -0.5840  1.7944
12413TIP3   OH258653   2.307   1.884   3.385 -0.4243 -0.4909  0.5376
12413TIP3    H158654   2.277   1.812   3.330 -1.9310  1.1493 -0.9244
12413TIP3    H258655   2.238   1.896   3.449  0.8118 -1.6624  2.1641
12414TIP3   OH258656   0.122   5.700  11.956  0.1333  0.3500  0.0299
12414TIP3    H158657   0.063   5.730  12.025  0.1359 -0.4309  0.3789
12414TIP3    H258658   0.096   5.609  11.940  0.9895  0.1194 -0.0766
12415TIP3   OH258659   2.715   6.195  17.253 -0.3008 -0.0185  0.2398
12415TIP3    H158660   2.756   6.195  17.166  1.6399  0.6040  1.1073
12415TIP3    H258661   2.690   6.286  17.268  0.9338  0.2216  0.9959
12416TIP3   OH258662   0.073   3.524   1.660 -0.0617  0.2453 -0.2223
12416TIP3    H158663   0.101   3.564   1.742  0.8669 -0.6319 -0.1001
12416TIP3    H258664   0.013   3.589   1.622  0.5019  1.2411  0.5165
12417TIP3   OH258665   1.293   3.033   5.221 -0.0504  0.0190 -0.2116
12417TIP3    H158666   1.371   3.069   5.263 -0.2415 -0.4172  0.5406
12417TIP3    H258667   1.227   3.102   5.229  0.1879  0.2971 -0.6383
12418TIP3   OH258668   2.248   2.544  14.606 -0.0563 -0.4698 -0.0032
12418TIP3    H158669   2.225   2.471  14.549  0.1541 -0.0525 -0.6380
12418TIP3    H258670   2.263   2.617  14.546 -0.5704  0.1777  0.6413
12419TIP3   OH258671   3.998   5.209   5.201  0.2059  0.8422 -0.6519
12419TIP3    H158672   4.087   5.224   5.169  0.3504  1.8991  0.1911
12419TIP3    H258673   4.009   5.182   5.292 -0.3340  1.1561 -0.4885
12420TIP3   OH258674   5.636   1.556   0.304  0.3032 -0.0783  0.1341
12420TIP3    H158675   5.552   1.598   0.323  0.1929 -0.4232  0.4262
12420TIP3    H258676   5.645   1.562   0.209  0.6127  1.2083  0.2280
12421TIP3   OH258677   0.567   2.276   1.726 -0.1663  0.0644 -0.6657
12421TIP3    H158678   0.632   2.207   1.714  0.1508  0.2831 -0.1822
12421TIP3    H258679   0.520   2.278   1.642  0.1029 -0.4424 -0.8352
12422TIP3   OH258680   4.784   3.773  10.746 -0.1635 -0.4585 -0.4008
12422TIP3    H158681   4.834   3.698  10.778  2.2909  0.9358 -0.6933
12422TIP3    H258682   4.760   3.749  10.656 -1.3494 -1.7231  0.2078
12423TIP3   OH258683   3.614   4.602  15.247  0.2190  0.1291  0.1278
12423TIP3    H158684   3.544   4.537  15.258  0.6234 -0.1084  1.4209
12423TIP3    H258685   3.641   4.593  15.156 -3.2766  2.1205 -1.3209
12424TIP3   OH258686   4.717   2.325  13.191 -0.0972 -0.0211 -0.1133
12424TIP3    H158687   4.754   2.286  13.112 -0.5848 -0.8296  0.0464
12424TIP3    H258688   4.781   2.305  13.260 -0.9159 -1.6305  0.2106
12425TIP3   OH258689   6.617   2.452  14.155 -0.3936  0.0481 -0.5519
12425TIP3    H158690   6.531   2.493  14.158 -0.1931  0.4274  0.6131
12425TIP3    H258691   6.636   2.441  14.062 -0.7598  1.9500 -0.8881
12426TIP3   OH258692   2.739   4.810   6.194  0.0580 -0.1873  0.3758
12426TIP3    H158693   2.672   4.876   6.208  0.2015  0.2140 -0.6781
12426TIP3    H258694   2.814   4.859   6.159  0.8741 -0.6351  1.4452
12427TIP3   OH258695   3.802   4.454   5.616  0.4350 -0.2503 -0.4496
12427TIP3    H158696   3.777   4.546   5.603  1.0678 -0.0576 -0.3388
12427TIP3    H258697   3.720   4.410   5.635  0.2014  0.4000  0.0898
12428TIP3   OH258698   3.632   0.014  13.008 -0.0634 -0.2456 -0.1089
12428TIP3    H158699   3.702  -0.009  12.946 -0.0151  0.4239 -0.3099
12428TIP3    H258700   3.620  -0.065  13.061 -0.1670 -0.8662 -1.0303
12429TIP3   OH258701   0.573   3.548   3.543 -0.0007 -0.1517  0.3211
12429TIP3    H158702   0.577   3.453   3.552 -3.0473 -0.3491  0.6450
12429TIP3    H258703   0.582   3.563   3.449 -2.5815 -1.1230 -0.1716
12430TIP3   OH258704   5.267   0.766  12.531 -0.1605 -0.1254  0.3556
12430TIP3    H158705   5.216   0.833  12.486 -1.0155  0.1413  1.6703
12430TIP3    H258706   5.228   0.683  12.502 -1.6559  0.0828  1.6520
12431TIP3   OH258707   4.612   4.000  16.643  0.4186  0.0476 -0.0285
12431TIP3    H158708   4.655   4.086  16.648  1.8415 -0.5857 -0.6081
12431TIP3    H258709   4.629   3.960  16.729 -0.1033  0.2766  0.1848
12432TIP3   OH258710   3.982   3.354  15.553 -0.1695 -0.0744 -0.0246
12432TIP3    H158711   4.050   3.360  15.486  0.9113  0.7815  1.1116
12432TIP3    H258712   4.019   3.399  15.629 -2.5677  1.6778  0.2030
12433TIP3   OH258713   1.149   1.455  15.237  0.2602  0.3055 -0.2345
12433TIP3    H158714   1.157   1.473  15.144 -2.8866 -0.8814 -0.8515
12433TIP3    H258715   1.164   1.360  15.245  0.9092  0.4592  0.5506
12434TIP3   OH258716   4.728   3.494   1.745 -0.6879  0.2601  0.0986
12434TIP3    H158717   4.726   3.497   1.841 -0.7383 -2.3459  0.2621
12434TIP3    H258718   4.656   3.435   1.722  1.3996 -1.9806 -1.2413
12435TIP3   OH258719   2.091   5.782  12.535  0.1818 -0.2551 -0.0388
12435TIP3    H158720   2.032   5.763  12.462  2.0096 -1.6457 -1.2317
12435TIP3    H258721   2.077   5.711  12.597  0.2336 -0.2920 -0.0700
12436TIP3   OH258722   0.457   2.615  14.209  0.2377  0.1270  0.5646
12436TIP3    H158723   0.480   2.578  14.294  1.3655  0.2964  0.3623
12436TIP3    H258724   0.369   2.583  14.191  1.1825 -2.6410  0.3369
12437TIP3   OH258725   4.193   0.449  15.523  0.0050  0.1206 -0.1235
12437TIP3    H158726   4.251   0.506  15.573 -0.1617  0.5874 -0.4526
12437TIP3    H258727   4.252   0.403  15.462 -0.0875  1.4609 -1.2681
12438TIP3   OH258728   1.066   6.364   5.866  0.0478  0.3704  0.0248
12438TIP3    H158729   1.052   6.392   5.957 -0.5541 -0.0630  0.0739
12438TIP3    H258730   1.006   6.291   5.855  1.4640 -0.8016 -0.1484
12439TIP3   OH258731   6.058   3.836   3.076  0.1123  0.9287 -0.5526
12439TIP3    H158732   5.974   3.869   3.109  0.5081  1.2258  0.1806
12439TIP3    H258733   6.065   3.749   3.115 -1.4193 -0.5757 -3.2971
12440TIP3   OH258734   5.578   5.173   0.827 -0.2705 -0.1872 -0.4329
12440TIP3    H158735   5.489   5.137   0.826 -0.6668  0.7418  0.1911
12440TIP3    H258736   5.581   5.232   0.751 -1.0951  1.8231  1.0036
12441TIP3   OH258737   2.812   5.880   4.749  0.5370 -0.2393  0.3416
12441TIP3    H158738   2.761   5.938   4.806  0.6761 -1.0236  1.3044
12441TIP3    H258739   2.746   5.833   4.698  0.3797  0.0936  0.2394
12442TIP3   OH258740   2.958   5.611   6.172 -0.1168  0.0952 -0.9858
12442TIP3    H158741   2.939   5.591   6.080  1.3207  0.5231 -1.3955
12442TIP3    H258742   2.991   5.701   6.170 -1.7067  0.7494  0.1880
12443TIP3   OH258743   1.670   1.173  12.067  0.3477 -0.4625  0.1351
12443TIP3    H158744   1.722   1.246  12.033 -0.5342 -0.6613 -1.7208
12443TIP3    H258745   1.685   1.101  12.006  0.8690 -1.7484  1.7022
12444TIP3   OH258746   0.186   0.179   0.806 -0.0022  0.2983  0.2227
12444TIP3    H158747   0.227   0.141   0.728 -0.1685  0.9924 -0.2061
12444TIP3    H258748   0.213   0.271   0.806  0.6715  0.1301  1.4448
12445TIP3   OH258749   0.463   1.273   2.977  0.4900 -0.4012  0.2213
12445TIP3    H158750   0.537   1.302   3.030  0.5442 -0.5153  0.2077
12445TIP3    H258751   0.404   1.349   2.975  1.0072 -0.0017 -0.4978
12446TIP3   OH258752   5.607   0.243   6.553 -0.2782  0.1468 -0.4898
12446TIP3    H158753   5.584   0.336   6.543 -1.6852 -0.2479 -1.0204
12446TIP3    H258754   5.691   0.235   6.507  0.4041  1.3568  0.4690
12447TIP3   OH258755   4.381   4.448  12.561  0.1447 -0.1586 -0.4335
12447TIP3    H158756   4.417   4.422  12.477  1.0158  1.2421 -0.5217
12447TIP3    H258757   4.343   4.368  12.597  1.1789 -1.1261 -1.4445
12448TIP3   OH258758   4.271   0.397  12.866 -0.0690  0.3396  0.3022
12448TIP3    H158759   4.319   0.422  12.787 -0.1039 -0.1099  0.1324
12448TIP3    H258760   4.338   0.390  12.934  0.4584 -2.1382 -0.3496
12449TIP3   OH258761   0.369   4.500   1.982  0.1320 -0.6440  0.3258
12449TIP3    H158762   0.385   4.570   2.045 -0.1295 -1.0630  0.8687
12449TIP3    H258763   0.368   4.544   1.897  1.3594 -0.1948  0.5217
12450TIP3   OH258764   4.935   2.364   3.506 -0.0437 -0.3496  0.6002
12450TIP3    H158765   5.000   2.392   3.571  0.1103 -0.7202  0.6128
12450TIP3    H258766   4.925   2.439   3.448 -1.4431  0.6288  2.0114
12451TIP3   OH258767   4.593   5.125  10.779  0.2034  0.1718 -0.2171
12451TIP3    H158768   4.650   5.075  10.720 -1.6984 -2.2499 -0.1723
12451TIP3    H258769   4.539   5.179  10.721  0.4874  0.1706 -0.4802
12452TIP3   OH258770   4.541   2.678  15.170 -0.2184  0.1445  0.0987
12452TIP3    H158771   4.485   2.602  15.187  0.5794 -0.0050  2.3907
12452TIP3    H258772   4.486   2.738  15.120 -1.8785 -0.6826  0.8624
12453TIP3   OH258773   0.379   4.898   2.384  0.1822  0.2948 -0.4599
12453TIP3    H158774   0.450   4.876   2.445 -0.0115 -0.0101 -0.3398
12453TIP3    H258775   0.299   4.881   2.435  0.0125 -0.3602 -0.9336
12454TIP3   OH258776   1.449   1.253  15.771  0.2555  0.6324 -0.3833
12454TIP3    H158777   1.358   1.267  15.799  0.5432  0.4951  0.6644
12454TIP3    H258778   1.459   1.158  15.770  0.0836  0.6080 -1.5698
12455TIP3   OH258779   6.160   4.605   2.683 -0.3931 -0.2541  0.6545
12455TIP3    H158780   6.116   4.666   2.625 -0.6662 -0.6365  0.4510
12455TIP3    H258781   6.154   4.644   2.770  0.0228  0.3227  0.4260
12456TIP3   OH258782   3.464   2.128   5.183 -0.2291  0.1794 -0.3518
12456TIP3    H158783   3.479   2.036   5.163 -0.8207 -0.1329  0.5848
12456TIP3    H258784   3.369   2.137   5.188 -0.1496  0.6264  0.5183
12457TIP3   OH258785   3.154   6.654   3.529 -0.6779 -0.1623 -0.0994
12457TIP3    H158786   3.213   6.585   3.500 -1.0278 -0.5253  0.0392
12457TIP3    H258787   3.088   6.660   3.460  0.3043  1.2439 -0.9725
12458TIP3   OH258788   4.599   2.743   3.033  0.5721  0.0863  0.6892
12458TIP3    H158789   4.577   2.731   2.940  2.0385  1.4530  0.0988
12458TIP3    H258790   4.581   2.836   3.049  1.3841  0.1291  1.4294
12459TIP3   OH258791   6.136   1.402  15.490  0.2144  0.3693  0.0650
12459TIP3    H158792   6.050   1.427  15.456  0.7447  0.8759 -0.9312
12459TIP3    H258793   6.130   1.307  15.503 -0.2694  0.2935 -0.6643
12460TIP3   OH258794   5.936   4.367   1.796  0.4524  0.4175  0.8863
12460TIP3    H158795   5.907   4.297   1.738 -1.4054  1.3616  0.5801
12460TIP3    H258796   5.977   4.321   1.870  0.4235 -0.9150  0.1117
12461TIP3   OH258797   6.157   1.065  10.577  0.4102  0.5121 -0.1132
12461TIP3    H158798   6.144   1.160  10.572  0.6945  0.6261  1.0649
12461TIP3    H258799   6.068   1.029  10.576  0.2934  0.7982 -0.3286
12462TIP3   OH258800   0.853   1.560  13.166 -0.6846 -0.6026 -0.3672
12462TIP3    H158801   0.832   1.636  13.111  1.4394  1.6356  1.6693
12462TIP3    H258802   0.892   1.497  13.105  2.1057  1.9712 -1.5335
12463TIP3   OH258803   4.098   0.919  15.996  0.2949 -0.1176  0.2162
12463TIP3    H158804   4.039   0.889  16.065  1.2858  0.9616  1.6081
12463TIP3    H258805   4.178   0.868  16.009  0.8594  0.8305  0.5634
12464TIP3   OH258806   5.266   5.776  13.965 -0.6542 -0.4796  0.2970
12464TIP3    H158807   5.329   5.765  14.036  1.8138  0.6053 -1.5778
12464TIP3    H258808   5.308   5.837  13.905 -2.8127 -0.9933 -1.8906
12465TIP3   OH258809   5.686   5.856   1.713  0.1247 -0.0670 -0.5110
12465TIP3    H158810   5.643   5.802   1.647  1.2893  0.6631 -1.9093
12465TIP3    H258811   5.737   5.795   1.765 -0.2170 -0.5643 -0.7521
12466TIP3   OH258812   0.711   4.998   2.151  0.2653 -0.1382 -0.0466
12466TIP3    H158813   0.758   4.953   2.222 -0.7109  1.4922  1.7505
12466TIP3    H258814   0.707   5.089   2.180 -0.4414  0.5374 -2.1088
12467TIP3   OH258815   2.829   5.725   1.643  0.5271  0.5989 -0.2185
12467TIP3    H158816   2.870   5.638   1.643 -0.2944  0.1760  1.1485
12467TIP3    H258817   2.872   5.771   1.715  1.1292  1.4315 -1.0909
12468TIP3   OH258818   3.844   3.092  11.335  0.0175  0.5880  0.2625
12468TIP3    H158819   3.786   3.135  11.399 -0.7867 -1.0964  0.7143
12468TIP3    H258820   3.788   3.077  11.259  1.2424  3.5766 -1.3889
12469TIP3   OH258821   3.961   1.218   4.924 -0.1082 -0.1578 -0.0777
12469TIP3    H158822   4.033   1.269   4.962 -1.7352  1.6473  0.8141
12469TIP3    H258823   3.942   1.262   4.841 -0.8925  0.0951  0.2265
12470TIP3   OH258824   4.129   2.256  15.465 -0.0922  0.3807 -0.1496
12470TIP3    H158825   4.205   2.270  15.409  1.1326 -0.0859  1.3121
12470TIP3    H258826   4.158   2.191  15.529 -1.2991  1.1143  1.2172
12471TIP3   OH258827   5.825   5.413  16.006  0.0900  0.2713  0.5812
12471TIP3    H158828   5.736   5.434  15.977 -0.1195 -1.5058 -0.1361
12471TIP3    H258829   5.817   5.329  16.051  2.0269 -2.5991 -3.7394
12472TIP3   OH258830   1.812   1.593   5.420 -0.2559 -0.2077 -0.4045
12472TIP3    H158831   1.861   1.606   5.501  0.6405 -1.7153 -0.6710
12472TIP3    H258832   1.747   1.527   5.441  0.7786 -1.5203 -1.1929
12473TIP3   OH258833   1.024   0.110   1.533  0.2834  0.2764  0.2512
12473TIP3    H158834   0.981   0.104   1.448  0.7966  2.9543 -0.2834
12473TIP3    H258835   0.979   0.046   1.587 -1.3558 -0.1395 -1.4880
12474TIP3   OH258836   2.225   5.016  15.517 -0.2144 -0.0651  0.2365
12474TIP3    H158837   2.195   5.045  15.431 -1.5630  1.5815  1.2000
12474TIP3    H258838   2.295   4.954  15.498  0.1076  0.8886 -2.0296
12475TIP3   OH258839   2.909   0.651  15.799  0.1760 -0.1278  0.2840
12475TIP3    H158840   2.814   0.658  15.786  0.3914  1.1171 -0.7713
12475TIP3    H258841   2.923   0.690  15.886 -0.5769 -3.1577  1.9358
12476TIP3   OH258842   4.283   5.535   4.270 -0.0388 -0.5118  0.1590
12476TIP3    H158843   4.303   5.581   4.352 -0.1077  2.0281 -1.1552
12476TIP3    H258844   4.247   5.451   4.298 -2.0151  1.0622  2.8015
12477TIP3   OH258845   6.741   4.357  12.935  0.1723  0.5799  0.4880
12477TIP3    H158846   6.805   4.408  12.886  1.6463 -0.2725  1.4345
12477TIP3    H258847   6.778   4.351  13.024 -1.5758  0.6535  1.2574
12478TIP3   OH258848   2.187   2.950   1.101 -0.0150  0.3188 -0.5227
12478TIP3    H158849   2.223   3.000   1.174  0.1795 -2.6471  1.5793
12478TIP3    H258850   2.141   2.877   1.142  0.0106 -1.4461 -3.3478
12479TIP3   OH258851   4.012   5.980  16.135 -0.0574  0.1729 -0.1584
12479TIP3    H158852   4.054   5.931  16.064  0.6271  2.0983 -1.1683
12479TIP3    H258853   3.918   5.976  16.115 -0.1792 -1.9268  0.6307
12480TIP3   OH258854   4.578   6.607  13.665  0.2499  0.2997 -0.0788
12480TIP3    H158855   4.578   6.514  13.644  2.2731  0.1451  0.3371
12480TIP3    H258856   4.507   6.618  13.728  0.0629 -0.9802 -0.0441
12481TIP3   OH258857   2.772   2.078  16.243 -0.6495 -0.0624 -0.2687
12481TIP3    H158858   2.715   2.087  16.166 -0.2637 -0.1896 -0.5772
12481TIP3    H258859   2.733   2.134  16.309 -1.3968 -0.5016 -0.3204
12482TIP3   OH258860   0.677   4.088  10.556 -0.0332 -0.3223 -0.5698
12482TIP3    H158861   0.616   4.043  10.615 -0.4625  1.3968  0.3744
12482TIP3    H258862   0.710   4.019  10.498 -3.6804 -1.1935 -1.8808
12483TIP3   OH258863   4.135   1.883   5.231 -0.1798  0.1815  0.1392
12483TIP3    H158864   4.199   1.953   5.239 -0.2405  0.1396  1.1594
12483TIP3    H258865   4.163   1.817   5.295 -0.7075 -0.2627 -0.0756
12484TIP3   OH258866   2.205   3.725   2.509  0.2169  0.0654 -0.1657
12484TIP3    H158867   2.134   3.682   2.462 -0.4216  0.1245  0.7188
12484TIP3    H258868   2.282   3.673   2.488 -0.4846 -1.3465  0.6185
12485TIP3   OH258869   3.704   3.097  17.307  0.1975  0.1347  0.0921
12485TIP3    H158870   3.658   3.034  17.363  1.0665  0.8288  1.6487
12485TIP3    H258871   3.635   3.135  17.252 -0.7384 -0.3864  0.8748
12486TIP3   OH258872   1.809   1.887  13.885  0.4319  0.4363 -0.3348
12486TIP3    H158873   1.718   1.908  13.864 -0.4926 -2.2485  0.5056
12486TIP3    H258874   1.858   1.910  13.806 -1.6470 -1.6446 -2.3968
12487TIP3   OH258875   3.404   5.995  11.843 -0.0889  0.0786  0.0510
12487TIP3    H158876   3.399   5.901  11.855 -0.4461  0.1135  0.1731
12487TIP3    H258877   3.329   6.016  11.787 -0.8308  0.4789  1.1563
12488TIP3   OH258878   2.836   1.942   2.105  0.4279 -0.3623  0.4751
12488TIP3    H158879   2.752   1.980   2.131 -1.0473 -4.2931  2.3278
12488TIP3    H258880   2.825   1.921   2.012 -0.0519  0.4607  0.3400
12489TIP3   OH258881   2.611   0.735  17.347  0.3737  0.2109  0.5864
12489TIP3    H158882   2.617   0.656  17.400  0.5058 -0.6882 -0.7443
12489TIP3    H258883   2.539   0.785  17.387 -0.5085 -1.1336  0.7440
12490TIP3   OH258884   3.552   4.663  13.049  0.1455 -0.2082  0.3574
12490TIP3    H158885   3.481   4.630  13.103 -1.9367  2.0105 -0.8544
12490TIP3    H258886   3.609   4.711  13.109 -1.4547  1.1776  0.8196
12491TIP3   OH258887   4.147   2.960  17.150 -0.3347 -0.5212  0.4699
12491TIP3    H158888   4.088   2.989  17.081 -0.2887  2.7611  1.6085
12491TIP3    H258889   4.131   2.866  17.159  0.3935 -1.4254 -4.5989
12492TIP3   OH258890   3.250   0.439   1.642  0.2033 -0.1974  0.2274
12492TIP3    H158891   3.307   0.462   1.716  0.0699 -1.3310  0.6971
12492TIP3    H258892   3.298   0.468   1.565  0.7394  0.2037  0.7033
12493TIP3   OH258893   2.970   0.092  12.829  0.4002  0.2035  0.1759
12493TIP3    H158894   2.971   0.122  12.738 -0.6078  3.3454  1.0465
12493TIP3    H258895   2.981  -0.003  12.824  0.0975  0.2348 -3.2087
12494TIP3   OH258896   4.333   5.473   2.558 -0.0071  0.6173 -0.1765
12494TIP3    H158897   4.331   5.539   2.489 -1.0652  1.5464  0.7055
12494TIP3    H258898   4.418   5.485   2.600 -0.5788  2.1446  0.6198
12495TIP3   OH258899   2.249   6.387  10.678  0.3816  0.2170  0.0162
12495TIP3    H158900   2.173   6.329  10.668  0.7824 -0.1017 -1.4314
12495TIP3    H258901   2.234   6.433  10.761 -0.6722 -0.8810  0.4574
12496TIP3   OH258902   6.523   2.209  14.543 -0.0352 -0.0513  0.0825
12496TIP3    H158903   6.467   2.232  14.616  1.4718  0.8209  1.0168
12496TIP3    H258904   6.463   2.197  14.469 -1.3644  1.5945  0.8440
12497TIP3   OH258905   3.600   4.313  16.834  0.1945  0.3413 -0.7216
12497TIP3    H158906   3.601   4.338  16.742 -1.3945 -0.7365 -1.0838
12497TIP3    H258907   3.517   4.265  16.845  1.2282 -1.2329  0.8050
12498TIP3   OH258908   6.198   3.624  11.346 -0.1276 -0.2107 -0.3716
12498TIP3    H158909   6.220   3.535  11.374  0.5367 -1.1078 -3.3020
12498TIP3    H258910   6.103   3.621  11.331 -0.5859  0.4337  1.9958
12499TIP3   OH258911   0.951   1.314   5.165 -0.4837 -0.4641 -0.3552
12499TIP3    H158912   0.910   1.384   5.115  0.7394 -0.8804 -2.0304
12499TIP3    H258913   1.039   1.307   5.128  0.7284 -0.3887  2.2917
12500TIP3   OH258914   5.745   2.257   2.871 -0.1022 -0.2112 -0.0189
12500TIP3    H158915   5.651   2.239   2.869 -0.1873 -0.0211  1.2806
12500TIP3    H258916   5.772   2.232   2.960  1.3219 -1.4259 -0.7514
12501TIP3   OH258917   3.742   4.724  16.922  0.6880 -0.0476  0.9590
12501TIP3    H158918   3.700   4.762  16.998 -0.1869 -0.4814  0.7100
12501TIP3    H258919   3.722   4.784  16.850  0.6289 -0.1665  0.8747
12502TIP3   OH258920   6.056   6.425  11.620  0.2831  0.0863 -0.2534
12502TIP3    H158921   6.084   6.388  11.704  0.4563 -0.8117 -0.6981
12502TIP3    H258922   6.065   6.353  11.558 -1.3902  0.2537 -0.7364
12503TIP3   OH258923   3.286   3.676   2.033  0.5130 -0.6953 -0.4190
12503TIP3    H158924   3.310   3.738   2.102 -0.7370  0.5800 -1.0900
12503TIP3    H258925   3.366   3.625   2.019  1.5358  0.6395  0.2784
12504TIP3   OH258926   3.535   3.340   3.785 -0.4862 -0.1692  0.0689
12504TIP3    H158927   3.458   3.301   3.743 -0.8522 -0.7171  1.1827
12504TIP3    H258928   3.508   3.352   3.877 -0.0718  1.9423 -0.0504
12505TIP3   OH258929   2.855   0.126  14.034 -0.0247  0.0897 -0.0405
12505TIP3    H158930   2.794   0.183  13.987 -0.0259  0.0686 -0.0646
12505TIP3    H258931   2.864   0.166  14.120  0.0045  0.1488 -0.0703
12506TIP3   OH258932   6.275   4.899  12.141  0.0296 -0.0445  0.3768
12506TIP3    H158933   6.261   4.949  12.061 -0.8468  0.1246  0.6255
12506TIP3    H258934   6.188   4.888  12.178  0.1017 -2.2145  0.0648
12507TIP3   OH258935   5.634   6.312   1.213 -0.3634 -0.3430 -0.0142
12507TIP3    H158936   5.658   6.293   1.122  2.8325 -0.4387  0.7154
12507TIP3    H258937   5.541   6.289   1.219 -0.7537 -0.1342 -3.2698
12508TIP3   OH258938   4.024   6.624   5.426 -0.0195  0.1652  0.7244
12508TIP3    H158939   4.044   6.700   5.481 -2.1214  0.2350  1.4877
12508TIP3    H258940   3.929   6.624   5.419  0.0678 -1.1260 -1.1437
12509TIP3   OH258941   0.710   0.712  14.497 -0.3842  0.2398 -0.3963
12509TIP3    H158942   0.633   0.657  14.487  0.1268 -0.8641  1.3487
12509TIP3    H258943   0.686   0.774  14.566  0.3259 -0.2287  0.2858
12510TIP3   OH258944   0.309   4.825  16.427  0.2197  0.1513  0.0906
12510TIP3    H158945   0.300   4.861  16.516  1.9009 -0.4127  0.5426
12510TIP3    H258946   0.259   4.744  16.429  1.8259 -0.8879  1.2112
12511TIP3   OH258947   5.526   4.580   4.178  0.0982 -1.2035  0.3006
12511TIP3    H158948   5.528   4.498   4.228 -0.1798 -1.6251 -0.3573
12511TIP3    H258949   5.470   4.638   4.229 -0.8847 -1.9163  0.0712
12512TIP3   OH258950   2.251   0.406  11.403  0.3481 -0.1694 -0.2298
12512TIP3    H158951   2.332   0.419  11.452 -0.0578  1.8422 -0.0259
12512TIP3    H258952   2.215   0.325  11.438  2.2705 -1.1518 -0.3786
12513TIP3   OH258953   3.456   0.141  12.847  0.1165 -0.5157  0.1079
12513TIP3    H158954   3.532   0.133  12.904  0.9799  0.1681 -0.9126
12513TIP3    H258955   3.383   0.106  12.899  1.1155 -1.2029  1.0953
12514TIP3   OH258956   2.868   1.981   0.769 -0.7211  0.0462  0.4237
12514TIP3    H158957   2.861   1.890   0.740  0.7828  0.2550 -0.6765
12514TIP3    H258958   2.931   1.978   0.841 -0.6601  0.2240  0.3771
12515TIP3   OH258959   6.224   6.586  14.588  0.3004 -0.0310  0.4058
12515TIP3    H158960   6.183   6.673  14.594  0.5526  0.1954 -0.9340
12515TIP3    H258961   6.193   6.540  14.666  0.9347  1.5759  1.6647
12516TIP3   OH258962   6.134   2.055   1.244  0.0178 -0.5395  0.8129
12516TIP3    H158963   6.191   2.128   1.267 -0.1440 -0.5172  1.1438
12516TIP3    H258964   6.052   2.074   1.289 -0.9289  0.4514 -1.1693
12517TIP3   OH258965   0.155   5.365  16.688  0.3834 -0.8641  0.0558
12517TIP3    H158966   0.068   5.359  16.725  1.0873  1.0858  2.2457
12517TIP3    H258967   0.141   5.389  16.596 -1.3749 -4.4279 -0.7919
12518TIP3   OH258968   4.727   2.015   2.387  0.1230  1.6752 -0.1751
12518TIP3    H158969   4.660   2.050   2.446  1.0719  1.7212  0.9137
12518TIP3    H258970   4.798   1.986   2.445  0.4684  0.3403 -1.2094
12519TIP3   OH258971   3.823   6.337  12.423 -0.4305 -0.5460 -0.1402
12519TIP3    H158972   3.903   6.343  12.371  0.2472  0.3619  0.9399
12519TIP3    H258973   3.760   6.392  12.378  0.0206 -0.0919 -0.2229
12520TIP3   OH258974   0.950   5.736   0.796 -0.5666 -0.4799  0.3316
12520TIP3    H158975   0.970   5.642   0.799 -1.5989 -0.7126  2.5620
12520TIP3    H258976   0.883   5.744   0.729 -1.8473 -1.6989  1.3982
12521TIP3   OH258977   4.376   2.656  13.873  0.9320 -0.3674 -0.1422
12521TIP3    H158978   4.324   2.629  13.797 -0.4479  0.2326  0.5475
12521TIP3    H258979   4.413   2.574  13.907  0.5529 -0.7956 -0.7382
12522TIP3   OH258980   1.552   1.868  15.380  0.4291 -0.0017 -0.3096
12522TIP3    H158981   1.561   1.781  15.342 -1.3540 -0.5120  0.3316
12522TIP3    H258982   1.527   1.851  15.471 -2.3809  1.1034 -0.7738
12523TIP3   OH258983   5.258   3.899   0.980 -0.2636 -0.6195  0.3216
12523TIP3    H158984   5.307   3.936   1.053  1.4216 -2.4573  0.2050
12523TIP3    H258985   5.235   3.811   1.009 -1.3444 -0.6654 -0.6087
12524TIP3   OH258986   1.344   3.673   3.869  0.1963  0.1694 -0.9597
12524TIP3    H158987   1.269   3.649   3.923  0.1961 -0.5698 -1.2752
12524TIP3    H258988   1.346   3.769   3.871 -2.2431  0.3556 -2.9256
12525TIP3   OH258989   0.030   5.340   3.463  0.3459 -0.2868 -0.0430
12525TIP3    H158990   0.093   5.384   3.407  0.1993  0.9706  0.7433
12525TIP3    H258991   0.037   5.385   3.547 -0.6028 -1.0466  0.4675
12526TIP3   OH258992   4.128   5.376   2.733 -0.0936 -0.7205  0.4404
12526TIP3    H158993   4.224   5.369   2.727  0.1385  0.2167  2.3385
12526TIP3    H258994   4.097   5.286   2.728  0.8918 -1.0533 -0.0574
12527TIP3   OH258995   4.597   2.012   1.364  0.0365  0.0485 -0.1834
12527TIP3    H158996   4.669   1.994   1.425 -0.2291  0.5725  0.2988
12527TIP3    H258997   4.602   2.107   1.349 -0.3059  0.0229 -0.4661
12528TIP3   OH258998   6.610   4.726  16.586  0.5911  0.0006 -0.1213
12528TIP3    H158999   6.682   4.668  16.559  0.4138 -0.1296 -0.3255
12528TIP3    H259000   6.537   4.667  16.603  0.9715 -0.0013  1.6148
12529TIP3   OH259001   2.153   6.477  13.834  0.1832 -0.3068  0.2497
12529TIP3    H159002   2.206   6.556  13.832 -1.2967  0.7323  0.2351
12529TIP3    H259003   2.188   6.426  13.907  1.3120  0.2413  0.1076
12530TIP3   OH259004   6.274   2.197  17.374  0.5951 -0.7658  0.2443
12530TIP3    H159005   6.229   2.217  17.457 -1.0274  0.0654 -0.7944
12530TIP3    H259006   6.227   2.121  17.339 -0.1081  0.1538 -0.8859
12531TIP3   OH259007   5.721   1.011   0.507  0.2797  0.1475 -0.2196
12531TIP3    H159008   5.703   0.920   0.529 -0.8479  0.3987 -0.0476
12531TIP3    H259009   5.693   1.020   0.416 -0.0414  0.4365 -0.0939
12532TIP3   OH259010   1.440   5.030   5.456  0.0443  0.2971 -0.3602
12532TIP3    H159011   1.534   5.009   5.454  0.1248 -0.4462  3.2291
12532TIP3    H259012   1.398   4.945   5.470 -1.5398  0.2431 -4.4021
12533TIP3   OH259013   6.699   4.281   4.605  0.8277 -0.1298  0.2974
12533TIP3    H159014   6.789   4.293   4.575  1.4184 -0.2229  1.9584
12533TIP3    H259015   6.706   4.224   4.681 -0.5849  0.3780  0.8381
12534TIP3   OH259016   0.342   4.382  14.408  1.0021  0.0533 -0.1555
12534TIP3    H159017   0.383   4.389  14.322  0.8066 -0.4613 -0.2923
12534TIP3    H259018   0.387   4.448  14.461  1.3576  0.1390 -0.5570
12535TIP3   OH259019   5.020   4.645   3.196 -0.0375 -0.4172  0.4057
12535TIP3    H159020   5.021   4.608   3.108  2.6996  0.6745 -0.1213
12535TIP3    H259021   4.991   4.736   3.184 -0.2895 -0.4490  0.7358
12536TIP3   OH259022   2.110   1.820   4.118 -0.2326 -0.2591 -0.1472
12536TIP3    H159023   2.088   1.830   4.210 -0.6841  0.2051 -0.3014
12536TIP3    H259024   2.204   1.800   4.118 -0.3347 -0.7614  0.4334
12537TIP3   OH259025   0.297   4.097   3.234  0.1998 -0.0063 -0.5443
12537TIP3    H159026   0.363   4.051   3.287  0.6696  0.6052 -0.5912
12537TIP3    H259027   0.347   4.155   3.178 -0.4440  1.7505  0.6332
12538TIP3   OH259028   4.947   0.695  11.198  0.1651 -0.4489  0.4181
12538TIP3    H159029   4.945   0.733  11.110  0.2020 -1.2486  0.0608
12538TIP3    H259030   4.858   0.661  11.210 -0.2376  0.8244  1.2309
12539TIP3   OH259031   6.746   0.418  11.272 -0.2003  0.0252 -0.3790
12539TIP3    H159032   6.712   0.433  11.184  2.4407 -0.8654 -1.6730
12539TIP3    H259033   6.694   0.345  11.306 -0.1001 -0.8314 -1.9622
12540TIP3   OH259034   1.235   5.089  11.536  0.0993  0.0552  0.1461
12540TIP3    H159035   1.235   5.035  11.457  1.0456  0.0406  0.1397
12540TIP3    H259036   1.191   5.170  11.510 -0.9356 -0.5291  0.0342
12541TIP3   OH259037   0.761   4.690  15.980 -0.0795 -0.3393  0.4757
12541TIP3    H159038   0.830   4.641  15.935  0.2442  0.1419  0.4480
12541TIP3    H259039   0.705   4.622  16.017  0.6724 -0.7476  0.9070
12542TIP3   OH259040   6.232   4.273  12.361  0.2207  0.1640 -0.1653
12542TIP3    H159041   6.315   4.227  12.371 -0.0543 -0.6999 -1.5336
12542TIP3    H259042   6.170   4.205  12.336 -0.8562  0.8372  0.5971
12543TIP3   OH259043   1.150   6.155   1.088  0.4978 -0.3071  0.1607
12543TIP3    H159044   1.164   6.166   1.182 -2.3953  3.0176  0.4090
12543TIP3    H259045   1.062   6.117   1.082  1.2782 -1.9954 -1.2521
12544TIP3   OH259046   3.876   0.032   3.408 -0.0937  0.5432 -0.2916
12544TIP3    H159047   3.800  -0.027   3.411  1.0453 -0.9856 -0.3917
12544TIP3    H259048   3.870   0.083   3.490 -1.0420  0.2336 -0.1517
12545TIP3   OH259049   5.427   0.386  11.451 -0.4596 -0.1754  0.8261
12545TIP3    H159050   5.407   0.479  11.437  0.1916 -0.0893  0.3941
12545TIP3    H259051   5.438   0.351  11.363  0.3543 -0.4150  1.0134
12546TIP3   OH259052   0.747   5.038   0.547  0.0010  0.2790  0.2374
12546TIP3    H159053   0.754   5.042   0.642 -0.6742 -1.5304  0.3998
12546TIP3    H259054   0.655   5.058   0.529 -0.4958 -1.8158  0.2004
12547TIP3   OH259055   1.352   0.911   2.344  0.3267 -0.6488 -0.4245
12547TIP3    H159056   1.375   1.003   2.360  1.0903 -1.0952  1.4190
12547TIP3    H259057   1.385   0.893   2.256 -0.0691  0.8931 -0.9224
12548TIP3   OH259058   6.430   4.873   2.839  0.0034  0.3605 -0.2203
12548TIP3    H159059   6.390   4.890   2.925  1.6743  0.3131  0.6203
12548TIP3    H259060   6.479   4.791   2.852 -2.1804 -1.4003 -2.1530
12549TIP3   OH259061   6.716   6.677  13.270  0.5106 -0.3959 -0.7892
12549TIP3    H159062   6.640   6.689  13.326  0.3800 -0.3766 -0.9717
12549TIP3    H259063   6.734   6.763  13.233  0.8110 -0.3345 -0.5013
12550TIP3   OH259064   3.124   5.564  12.243  0.0491 -0.2043  0.2529
12550TIP3    H159065   3.219   5.552  12.230 -0.0682  0.0851 -1.0527
12550TIP3    H259066   3.092   5.588  12.156 -0.6665  3.5342  1.3680
12551TIP3   OH259067   0.987   0.124  15.858  0.5167 -0.0798  0.5321
12551TIP3    H159068   1.002   0.120  15.952  2.6331 -0.9864  0.2139
12551TIP3    H259069   0.898   0.156  15.849 -0.2188 -1.2582  2.8614
12552TIP3   OH259070   5.428   3.835   5.132  0.5738  0.1547  0.2000
12552TIP3    H159071   5.504   3.830   5.074  0.1570 -0.6038 -0.2966
12552TIP3    H259072   5.355   3.806   5.077  0.3838 -2.0531  1.5093
12553TIP3   OH259073   0.461   5.062  11.627  0.0855  0.0521 -0.5533
12553TIP3    H159074   0.384   5.073  11.571  0.6593 -0.2408 -1.4001
12553TIP3    H259075   0.521   5.007  11.577  1.0694  0.6922 -0.1232
12554TIP3   OH259076   3.985   3.631  16.367 -0.2007  0.1931 -0.0323
12554TIP3    H159077   3.904   3.654  16.321 -1.4845 -1.4498  1.2505
12554TIP3    H259078   4.051   3.690  16.331 -1.5756  0.4089 -2.4043
12555TIP3   OH259079   2.278   4.700  16.999 -0.0853 -0.1691  0.0708
12555TIP3    H159080   2.236   4.779  16.966 -1.2580  0.0944  2.0357
12555TIP3    H259081   2.205   4.642  17.023  0.6726 -0.6614  1.3320
12556TIP3   OH259082   4.070   5.329  15.946 -0.2372  0.2307 -0.2580
12556TIP3    H159083   4.115   5.248  15.924 -2.0542 -0.4680 -1.6631
12556TIP3    H259084   4.140   5.394  15.957  1.2956 -1.5783  1.3655
12557TIP3   OH259085   1.791   3.353  16.137  0.2166 -0.0660  0.3170
12557TIP3    H159086   1.834   3.319  16.059  1.3026 -0.3911  1.0386
12557TIP3    H259087   1.809   3.289  16.205 -0.8714  0.1206  0.8131
12558TIP3   OH259088   0.239   2.157   3.162 -0.2668  0.2974 -0.1253
12558TIP3    H159089   0.210   2.095   3.229 -0.7787  0.7006  0.0311
12558TIP3    H259090   0.332   2.172   3.181  0.3350 -1.7404 -1.2003
12559TIP3   OH259091   2.398   0.837   5.558  1.1459  0.2076  0.5467
12559TIP3    H159092   2.307   0.836   5.526  0.5153  0.7566  2.2343
12559TIP3    H259093   2.420   0.745   5.569  0.8360  0.0651  0.0621
12560TIP3   OH259094   5.802   5.917  13.220  0.2104 -0.1127 -0.3861
12560TIP3    H159095   5.817   5.927  13.126 -0.1738  1.4219 -0.3019
12560TIP3    H259096   5.709   5.936  13.231  0.5865  1.3553  0.4955
12561TIP3   OH259097   0.007   1.781   4.349  0.2534 -0.2190 -0.1471
12561TIP3    H159098  -0.038   1.734   4.420  2.6496  0.2227  1.8157
12561TIP3    H259099   0.062   1.714   4.308 -1.0526 -0.4493 -1.6206
12562TIP3   OH259100   5.512   3.321   4.353 -0.6893  0.0635 -0.2843
12562TIP3    H159101   5.492   3.337   4.445  0.0284  1.4541 -0.3520
12562TIP3    H259102   5.542   3.405   4.319  0.1029 -0.6847 -1.5229
12563TIP3   OH259103   2.633   3.443  14.578 -0.0598  0.3870 -0.1057
12563TIP3    H159104   2.559   3.393  14.611  0.1876 -0.1178 -0.3121
12563TIP3    H259105   2.608   3.468  14.489 -0.0086  0.2767 -0.1504
12564TIP3   OH259106   4.618   5.358   2.578  0.1370 -0.2107  0.1957
12564TIP3    H159107   4.624   5.446   2.540 -2.4988  0.3783  0.9578
12564TIP3    H259108   4.697   5.350   2.631  0.8116  1.3844 -0.5050
12565TIP3   OH259109   0.507   2.159  15.782  0.3327  0.1016 -0.3081
12565TIP3    H159110   0.509   2.231  15.846 -0.8396  1.7826 -2.0595
12565TIP3    H259111   0.452   2.093  15.824  1.4487  0.1372  1.3505
12566TIP3   OH259112   6.662   6.714   3.597 -0.1940 -0.4742 -0.0217
12566TIP3    H159113   6.679   6.620   3.589  2.5597  0.0429 -1.3665
12566TIP3    H259114   6.736   6.748   3.647  1.6523  1.6073 -3.7773
12567TIP3   OH259115   0.292   0.904  16.783 -0.4958  0.4082  0.3645
12567TIP3    H159116   0.333   0.912  16.697  0.5888 -1.1732  0.6695
12567TIP3    H259117   0.365   0.912  16.845 -1.2326  1.3238  1.1456
12568TIP3   OH259118   5.382   6.049  10.648  0.2575 -0.3637  0.5038
12568TIP3    H159119   5.445   6.062  10.719  0.1028  1.1081  0.3930
12568TIP3    H259120   5.334   5.970  10.673  0.2548  0.0858  1.9962
12569TIP3   OH259121   3.147   5.744   5.227  0.2477 -0.1136 -0.3396
12569TIP3    H159122   3.175   5.655   5.206  0.8846  0.1514 -0.6185
12569TIP3    H259123   3.086   5.733   5.300 -2.1261 -1.0837 -2.2937
12570TIP3   OH259124   0.966   3.410   1.433 -0.1984 -0.2820 -0.6288
12570TIP3    H159125   1.004   3.374   1.352  2.3351 -2.2245  1.2678
12570TIP3    H259126   0.945   3.501   1.410  0.0740 -0.8370 -3.5517
12571TIP3   OH259127   0.489   6.569   1.002 -0.1567  0.0051  0.3905
12571TIP3    H159128   0.480   6.482   1.042 -0.7148  0.4525  1.2554
12571TIP3    H259129   0.401   6.605   1.003 -0.0587  0.3086 -0.6418
12572TIP3   OH259130   0.449   3.233  16.886  0.1656 -0.4934  0.0079
12572TIP3    H159131   0.407   3.148  16.877 -0.5602 -0.0816 -0.7242
12572TIP3    H259132   0.540   3.219  16.861  0.7940 -1.6260  2.5766
12573TIP3   OH259133   5.564   1.875  13.392  0.5116  0.3162  0.0467
12573TIP3    H159134   5.511   1.817  13.447  0.2553  1.0264  0.5618
12573TIP3    H259135   5.607   1.934  13.454  1.1422  0.3823 -0.4403
12574TIP3   OH259136   5.778   0.218   1.396 -0.4444  0.0261 -0.2230
12574TIP3    H159137   5.772   0.166   1.477 -0.1667 -0.0075 -0.2242
12574TIP3    H259138   5.843   0.173   1.343 -2.0669 -1.1218 -1.3379
12575TIP3   OH259139   0.412   0.278  14.584 -0.4168 -0.0062  0.0086
12575TIP3    H159140   0.368   0.211  14.533  1.3651 -0.6995 -0.7215
12575TIP3    H259141   0.432   0.236  14.668 -1.6276  0.5077  0.5819
12576TIP3   OH259142   0.112   3.709  11.797 -0.4700 -0.3867 -0.1072
12576TIP3    H159143   0.090   3.650  11.868 -0.8770 -1.9728 -1.4840
12576TIP3    H259144   0.054   3.683  11.725  1.3459 -0.2568 -1.6924
12577TIP3   OH259145   4.001   5.774  10.825 -0.1482 -0.1133 -0.3222
12577TIP3    H159146   3.936   5.705  10.837  1.2230 -1.0253  2.6587
12577TIP3    H259147   3.959   5.835  10.763 -4.2764 -0.1694  2.0132
12578TIP3   OH259148   1.153   1.476  13.799  0.3767 -0.2365 -0.3652
12578TIP3    H159149   1.118   1.500  13.713 -1.4561  2.1719  0.9242
12578TIP3    H259150   1.122   1.387  13.813  0.2743 -0.4831 -1.9706
12579TIP3   OH259151   4.470   4.228   5.992  0.7851 -0.1410  0.0733
12579TIP3    H159152   4.428   4.155   6.037  1.3368 -0.9685 -0.7214
12579TIP3    H259153   4.493   4.289   6.062 -1.9863  0.5240  0.5262
12580TIP3   OH259154   5.496   2.288   1.347 -0.6730 -0.6100  0.0209
12580TIP3    H159155   5.470   2.197   1.358 -1.1748 -0.3315  1.4521
12580TIP3    H259156   5.462   2.314   1.262 -0.9997 -1.6034 -0.1526
12581TIP3   OH259157   4.001   2.376  11.278 -0.3504  0.1590  0.4078
12581TIP3    H159158   3.950   2.397  11.200 -0.4014  0.6337  0.5681
12581TIP3    H259159   3.937   2.337  11.338 -0.3990  0.1854  0.3735
12582TIP3   OH259160   2.865   5.443   2.813  0.1890 -0.0977 -0.8220
12582TIP3    H159161   2.931   5.374   2.822 -1.1434 -1.2625  1.0044
12582TIP3    H259162   2.787   5.397   2.781 -1.3357  0.0285  2.3104
12583TIP3   OH259163   3.001   2.703   2.649 -0.0031 -0.3698  0.0344
12583TIP3    H159164   2.949   2.663   2.719  0.2275 -0.7107  0.0144
12583TIP3    H259165   3.054   2.770   2.694  0.2711 -0.7032  0.2201
12584TIP3   OH259166   4.818   5.237  11.628  0.1980  0.1805  0.6566
12584TIP3    H159167   4.729   5.261  11.605  0.0622  1.6411  2.4769
12584TIP3    H259168   4.869   5.317  11.611  0.7500  0.0522  1.6429
12585TIP3   OH259169   4.656   5.836   2.829 -0.1232 -0.0965  0.3688
12585TIP3    H159170   4.629   5.927   2.814 -1.4646 -0.8086 -2.1830
12585TIP3    H259171   4.589   5.802   2.889 -1.2032 -0.0725 -0.7740
12586TIP3   OH259172   6.238   6.426   0.227  0.9619 -0.1259 -0.3123
12586TIP3    H159173   6.324   6.420   0.269  1.1401 -1.9800 -0.8516
12586TIP3    H259174   6.250   6.383   0.142  0.0951  1.7525 -1.4473
12587TIP3   OH259175   3.540   1.362   5.768  0.5352  0.5294 -0.4306
12587TIP3    H159176   3.604   1.330   5.831  0.1032 -3.2175 -1.6559
12587TIP3    H259177   3.593   1.394   5.694  0.9811  2.4873  0.6741
12588TIP3   OH259178   5.682   3.717  13.479  0.0599  0.2052 -0.0042
12588TIP3    H159179   5.777   3.713  13.464  0.0078  2.6134 -1.5275
12588TIP3    H259180   5.644   3.728  13.391 -1.4209  1.6735  0.7662
12589TIP3   OH259181   1.693   2.454  10.502  0.0369 -0.1514  0.2289
12589TIP3    H159182   1.600   2.442  10.484  0.0042 -0.3371  0.5255
12589TIP3    H259183   1.732   2.368  10.485  0.4165  0.3120 -1.5025
12590TIP3   OH259184   6.707   4.488  13.358  0.4615 -0.1825  0.2254
12590TIP3    H159185   6.770   4.518  13.424  1.2282 -3.5094  1.2482
12590TIP3    H259186   6.754   4.419  13.310 -1.6990 -1.3438 -0.3749
12591TIP3   OH259187   1.859   4.849   3.097  0.1509  0.3772 -0.5716
12591TIP3    H159188   1.866   4.865   3.003  0.0972  3.3151 -0.1850
12591TIP3    H259189   1.894   4.929   3.137  1.0798 -1.1683  1.9453
12592TIP3   OH259190   2.819   4.762   4.348 -0.1721  0.1468  0.0652
12592TIP3    H159191   2.735   4.728   4.319  0.5217 -1.0936 -0.6170
12592TIP3    H259192   2.857   4.691   4.399  0.5732  0.5764  0.1260
12593TIP3   OH259193   1.469   2.831  11.067 -0.0227 -0.0525  0.2838
12593TIP3    H159194   1.548   2.884  11.066  0.1948 -0.3679 -0.7382
12593TIP3    H259195   1.425   2.851  10.984 -1.3933  0.6606  1.1522
12594TIP3   OH259196   2.583   0.274  16.850 -0.0917  0.0946 -0.1062
12594TIP3    H159197   2.507   0.275  16.792 -0.8837  0.7560  0.9083
12594TIP3    H259198   2.617   0.185  16.844 -1.4074 -0.4335  0.0074
12595TIP3   OH259199   1.553   3.497  16.426  0.1571 -0.0671  0.4014
12595TIP3    H159200   1.547   3.497  16.330  2.5488 -1.6232  0.1754
12595TIP3    H259201   1.586   3.585  16.448 -1.6651  0.7733 -0.0215
12596TIP3   OH259202   2.660   6.443  10.541 -1.1798  0.5196 -0.0771
12596TIP3    H159203   2.591   6.380  10.522  0.1423 -0.7033 -1.0894
12596TIP3    H259204   2.643   6.516  10.482 -2.9841  1.3774  1.4179
12597TIP3   OH259205   2.746   4.274  11.292 -0.2532 -0.1695 -0.3065
12597TIP3    H159206   2.820   4.215  11.309  1.9377  2.4012 -0.3534
12597TIP3    H259207   2.725   4.260  11.199  3.0267  1.9249 -1.5105
12598TIP3   OH259208   4.356   4.559   4.560  0.1576  0.1459 -0.0812
12598TIP3    H159209   4.291   4.516   4.504  1.3537 -0.9187 -0.7013
12598TIP3    H259210   4.306   4.589   4.636 -1.0229 -0.8340 -0.4329
12599TIP3   OH259211   1.660   6.328  16.668 -0.1820 -0.8484  0.2429
12599TIP3    H159212   1.706   6.244  16.657  0.5052 -0.4920  0.3095
12599TIP3    H259213   1.568   6.304  16.673  0.0448 -1.6754  0.9531
12600TIP3   OH259214   4.467   4.176  11.457  0.0647  0.1305 -0.0039
12600TIP3    H159215   4.530   4.226  11.406  1.6165 -1.7959 -0.0734
12600TIP3    H259216   4.382   4.195  11.416  0.6612  2.1895 -0.3585
12601TIP3   OH259217   2.234   4.610   2.964  0.2937 -0.1237 -0.7223
12601TIP3    H159218   2.326   4.632   2.951  0.2723  1.9397  1.9810
12601TIP3    H259219   2.235   4.527   3.011  0.8905  0.7794  0.9163
12602TIP3   OH259220   4.623   0.335   5.400  0.4218 -0.1296  0.1467
12602TIP3    H159221   4.635   0.291   5.485 -0.3291  0.0913  0.3780
12602TIP3    H259222   4.579   0.417   5.422  0.9451  0.2949 -0.3847
12603TIP3   OH259223   1.830   1.246   0.596 -0.1602 -0.1685 -0.2148
12603TIP3    H159224   1.810   1.178   0.661  0.1991  0.9773  1.1401
12603TIP3    H259225   1.852   1.197   0.517  1.8975 -1.7243  1.2139
12604TIP3   OH259226   3.606   6.608   4.500 -0.0703 -0.0653  0.2007
12604TIP3    H159227   3.528   6.663   4.507  0.3344  0.3898  1.5539
12604TIP3    H259228   3.649   6.636   4.420 -0.3954  0.8904  0.3524
12605TIP3   OH259229   5.257   2.010  15.576 -0.4911  0.2010  0.0329
12605TIP3    H159230   5.331   1.978  15.628 -0.1309  0.4741 -0.3052
12605TIP3    H259231   5.287   2.003  15.486 -1.8225 -2.1391 -0.3136
12606TIP3   OH259232   4.982   0.684   5.038  0.2359 -0.5666 -0.2000
12606TIP3    H159233   5.044   0.614   5.061  1.7341  0.3141 -1.3525
12606TIP3    H259234   5.005   0.756   5.096  0.6673 -0.0476 -1.0040
12607TIP3   OH259235   1.044   4.974  15.422  0.1804  0.5010  0.1447
12607TIP3    H159236   1.032   5.056  15.470 -0.0524  1.4780 -1.5143
12607TIP3    H259237   1.136   4.974  15.395  0.3309 -0.0801  0.6225
12608TIP3   OH259238   1.467   0.623  14.430  0.4722 -0.6957  0.6295
12608TIP3    H159239   1.379   0.654  14.452  0.7645 -0.1586  1.0762
12608TIP3    H259240   1.453   0.539  14.386 -0.2839 -0.4126  0.3152
12609TIP3   OH259241   4.367   1.833  10.717 -0.1102  0.1477 -0.0366
12609TIP3    H159242   4.275   1.852  10.698 -0.2098 -0.3449 -0.0764
12609TIP3    H259243   4.373   1.833  10.812 -0.3092 -0.5172 -0.0207
12610TIP3   OH259244   3.482   5.191  16.591 -0.0371 -0.4212  0.4511
12610TIP3    H159245   3.434   5.256  16.539 -0.4646  1.2879  2.8277
12610TIP3    H259246   3.551   5.240  16.635 -0.5229 -1.4809  2.5358
12611TIP3   OH259247   2.993   3.565  12.885 -0.0108  0.6623 -0.4269
12611TIP3    H159248   2.957   3.619  12.955 -0.9405 -1.5383  0.9160
12611TIP3    H259249   2.960   3.605  12.804 -2.6844  0.7747  0.6038
12612TIP3   OH259250   1.640   0.281  15.178 -0.1665 -0.2638  0.4206
12612TIP3    H159251   1.566   0.238  15.135 -0.2461  1.4266 -1.2729
12612TIP3    H259252   1.716   0.230  15.152 -0.2322  0.6029 -1.6936
12613TIP3   OH259253   4.844   2.348   3.878 -0.3348  0.2185  0.0265
12613TIP3    H159254   4.887   2.291   3.815  1.5970  0.9867  0.5728
12613TIP3    H259255   4.910   2.364   3.945 -1.3987  1.6906  0.7954
12614TIP3   OH259256   4.738   6.320   4.145 -0.0272 -0.0180 -0.5500
12614TIP3    H159257   4.688   6.401   4.152  2.6233  1.7218 -0.1041
12614TIP3    H259258   4.708   6.266   4.218 -0.4386  1.4319  0.3946
12615TIP3   OH259259   2.015   5.984  16.108  0.1218  0.0486  0.6339
12615TIP3    H159260   2.056   5.994  16.022 -2.0896  0.5930 -0.4403
12615TIP3    H259261   2.046   6.060  16.158  0.5551  0.3540 -0.0701
12616TIP3   OH259262   4.232   0.687   4.547  0.1070  0.3601  0.5485
12616TIP3    H159263   4.141   0.710   4.564 -1.2258 -1.2429 -3.4347
12616TIP3    H259264   4.266   0.758   4.493  1.5653  1.2987  2.5635
12617TIP3   OH259265   1.699   4.378   4.301 -0.1759  0.0728 -0.1216
12617TIP3    H159266   1.753   4.452   4.331 -0.1115 -0.2354  0.5513
12617TIP3    H259267   1.638   4.363   4.374 -0.9595  0.2101 -0.7390
12618TIP3   OH259268   2.077   5.384  14.840  0.1923 -0.0670 -0.1632
12618TIP3    H159269   2.023   5.459  14.865  0.7161  0.5843 -0.8960
12618TIP3    H259270   2.151   5.424  14.793  1.9108 -0.8323  1.7673
12619TIP3   OH259271   2.797   1.481  14.961 -0.4079  0.3980 -0.1702
12619TIP3    H159272   2.818   1.390  14.985 -0.6547  0.0428 -1.2512
12619TIP3    H259273   2.743   1.513  15.033  0.0883 -0.1531  0.4575
12620TIP3   OH259274   5.276   2.667   2.355  0.1104 -0.8433  0.2389
12620TIP3    H159275   5.211   2.620   2.304  0.2093  2.4045 -3.2670
12620TIP3    H259276   5.359   2.626   2.331 -0.1493 -1.8259  0.9277
12621TIP3   OH259277   5.352   1.026  11.408 -0.5766 -0.1592  0.3119
12621TIP3    H159278   5.369   1.003  11.317  0.9529 -0.0175  0.5487
12621TIP3    H259279   5.275   1.084  11.403  1.2546  2.3442 -1.2388
12622TIP3   OH259280   5.413   4.222  17.252 -0.0251 -0.2543  0.0805
12622TIP3    H159281   5.399   4.301  17.201  1.3786  1.2936  1.9455
12622TIP3    H259282   5.498   4.189  17.223  0.2712  0.0242  0.5975
12623TIP3   OH259283   5.461   1.989  16.473  0.0854  0.4075  0.1015
12623TIP3    H159284   5.489   1.951  16.390 -1.4322 -0.5595  0.0094
12623TIP3    H259285   5.380   1.943  16.495  0.2469  0.9275  1.9262
12624TIP3   OH259286   2.515   6.406  15.335  0.0949  0.4009 -0.1259
12624TIP3    H159287   2.432   6.440  15.367  0.5728  0.1707  1.4748
12624TIP3    H259288   2.576   6.479  15.343 -0.3463  1.2330 -3.2964
12625TIP3   OH259289   6.419   0.186  13.597  0.4126  0.0088 -0.2748
12625TIP3    H159290   6.388   0.273  13.574  0.8557  0.5400  1.0902
12625TIP3    H259291   6.342   0.129  13.584  0.2778  0.4815 -1.7030
12626TIP3   OH259292   2.739   6.591  13.339  0.2056  0.0935  0.5229
12626TIP3    H159293   2.788   6.655  13.287 -0.8077 -0.2785 -0.9466
12626TIP3    H259294   2.719   6.637  13.421  0.6482  1.1767  0.0390
12627TIP3   OH259295   3.807   2.447   2.200 -0.7600  0.0397 -0.3638
12627TIP3    H159296   3.756   2.522   2.232 -0.1460  0.2653  0.1041
12627TIP3    H259297   3.879   2.439   2.262  1.3091  1.4044 -2.4149
12628TIP3   OH259298   1.228   6.715   4.795 -0.2206 -0.3742  0.0965
12628TIP3    H159299   1.256   6.772   4.724  0.8623 -0.1080  0.7085
12628TIP3    H259300   1.157   6.762   4.838 -0.2845 -0.1376 -0.2692
12629TIP3   OH259301   4.789   1.626   0.526  0.2289 -0.8196  0.8255
12629TIP3    H159302   4.835   1.702   0.563 -1.7954  0.1077  1.5506
12629TIP3    H259303   4.735   1.592   0.598 -1.0432 -1.2049 -0.2665
12630TIP3   OH259304   2.783   2.764  14.860  0.2809 -0.2199 -0.4314
12630TIP3    H159305   2.766   2.819  14.936 -2.1238 -3.0201  1.2833
12630TIP3    H259306   2.878   2.748  14.863  0.1302 -1.1448  2.7663
12631TIP3   OH259307   2.781   4.481  13.460  0.2375 -0.0144 -0.3180
12631TIP3    H159308   2.831   4.408  13.426  0.1111 -1.5033  2.4184
12631TIP3    H259309   2.841   4.525  13.521 -0.0261  1.5722 -1.1566
12632TIP3   OH259310   0.889   3.438  13.455  0.3596 -0.4389 -0.4448
12632TIP3    H159311   0.911   3.500  13.524  0.6237  0.5946 -1.4318
12632TIP3    H259312   0.910   3.352  13.493  0.1391  0.0668  0.8834
12633TIP3   OH259313   5.701   2.135   2.041 -0.1940  0.3564  0.0376
12633TIP3    H159314   5.626   2.187   2.069 -0.5045 -0.4503  0.7621
12633TIP3    H259315   5.673   2.044   2.053  0.7939  0.0363  0.0527
12634TIP3   OH259316   0.323   3.940  16.903  0.0952  0.5970  0.4558
12634TIP3    H159317   0.274   3.858  16.891 -0.4988  0.7590  1.6055
12634TIP3    H259318   0.350   3.938  16.995  1.7855  0.7895 -0.0116
12635TIP3   OH259319   4.172   2.329  16.601  0.0944  0.3610  0.1986
12635TIP3    H159320   4.144   2.273  16.673 -1.3783 -1.7544 -1.8599
12635TIP3    H259321   4.119   2.409  16.610 -1.5802 -0.7153  0.3823
12636TIP3   OH259322   5.101   0.772  14.497  0.5159  0.3401  0.7976
12636TIP3    H159323   5.096   0.758  14.402 -0.0621  1.5947  0.6310
12636TIP3    H259324   5.189   0.807  14.511  0.8823 -0.5602  0.8411
12637TIP3   OH259325   6.275   4.127  13.506 -0.9436  0.4107 -0.1716
12637TIP3    H159326   6.364   4.157  13.524 -0.6485 -1.1909  1.3216
12637TIP3    H259327   6.222   4.207  13.504  0.4077  1.3314 -0.4142
12638TIP3   OH259328   2.690   0.040   0.396 -0.1294  0.0731  0.1473
12638TIP3    H159329   2.693   0.136   0.392  0.4905  0.0402 -0.2793
12638TIP3    H259330   2.723   0.019   0.483  2.9559  0.1373 -0.8938
12639TIP3   OH259331   0.757   3.606  16.704 -0.0297  0.2878 -0.4713
12639TIP3    H159332   0.749   3.590  16.610  0.8101 -0.0937 -0.4790
12639TIP3    H259333   0.667   3.606  16.736 -0.2535 -0.7953 -1.0728
12640TIP3   OH259334   4.355   2.090  11.546 -0.0262  0.2497  0.8475
12640TIP3    H159335   4.419   2.051  11.606 -1.0164  0.8952  2.4067
12640TIP3    H259336   4.270   2.068  11.586 -0.8340 -0.8047 -1.2845
12641TIP3   OH259337   3.957   4.520   3.594  0.4492  0.3842  0.0001
12641TIP3    H159338   4.038   4.479   3.626  0.7955  0.4350 -0.7664
12641TIP3    H259339   3.900   4.524   3.670 -0.4529 -3.4591 -0.2418
12642TIP3   OH259340   0.566   1.544   4.423  0.2078  0.1640  0.0067
12642TIP3    H159341   0.502   1.477   4.448 -0.4775  1.2902  1.4893
12642TIP3    H259342   0.573   1.537   4.328 -1.2456 -0.7787 -0.0601
12643TIP3   OH259343   6.522   5.171   2.834  0.1952 -0.7307 -0.4952
12643TIP3    H159344   6.507   5.076   2.840 -2.6101 -0.4562 -1.6199
12643TIP3    H259345   6.543   5.186   2.742  0.8755 -0.2352 -0.2757
12644TIP3   OH259346   2.985   0.768  16.969 -0.4380  0.8759 -0.2027
12644TIP3    H159347   3.055   0.721  16.924 -0.5993  0.8678 -0.4474
12644TIP3    H259348   2.922   0.789  16.900  0.1548  2.4237 -0.2991
12645TIP3   OH259349   6.124   2.473  15.285 -0.3671  0.1478 -0.1705
12645TIP3    H159350   6.178   2.502  15.358  0.6805  1.6645 -1.4732
12645TIP3    H259351   6.037   2.459  15.322  0.0751  1.1253  1.3014
12646TIP3   OH259352   5.365   4.561  11.901 -0.3228 -0.6863 -0.3188
12646TIP3    H159353   5.413   4.640  11.876 -0.9550  0.2843  1.3738
12646TIP3    H259354   5.273   4.585  11.895 -0.5261 -0.7700  1.5998
12647TIP3   OH259355   4.762   5.620   0.164  0.0606 -0.0076  0.0808
12647TIP3    H159356   4.795   5.624   0.254  0.1384  0.5884  0.0296
12647TIP3    H259357   4.805   5.543   0.126 -0.5538 -0.7123  0.7782
12648TIP3   OH259358   4.362   3.996  12.495  0.8750  0.2700 -0.4888
12648TIP3    H159359   4.362   3.900  12.496  3.3156  0.1741 -2.2687
12648TIP3    H259360   4.293   4.019  12.433 -0.5487 -0.2380  0.8449
12649TIP3   OH259361   3.942   4.079  12.791 -0.2207  0.2711 -0.6766
12649TIP3    H159362   3.912   3.989  12.777  2.8463 -1.3260  1.8438
12649TIP3    H259363   3.984   4.103  12.708 -1.7395 -0.2139 -1.6477
12650TIP3   OH259364   5.385   0.769  14.168  0.5590 -0.1103 -0.2948
12650TIP3    H159365   5.475   0.788  14.142  0.9833 -2.1609 -0.4904
12650TIP3    H259366   5.360   0.694  14.114 -1.1093  0.1463  0.0866
12651TIP3   OH259367   5.707   3.591   2.404  0.0914  0.0751  0.0312
12651TIP3    H159368   5.773   3.661   2.404 -0.1624  0.3242 -1.0938
12651TIP3    H259369   5.674   3.588   2.314 -0.4725 -0.9620  0.2520
12652TIP3   OH259370   0.119   4.753   4.079  0.1740  0.2550  0.1969
12652TIP3    H159371   0.158   4.762   4.165 -1.3839  1.2492  0.8375
12652TIP3    H259372   0.084   4.839   4.059  0.6236  0.0852 -1.5086
12653TIP3   OH259373   1.672   6.116   0.059  0.9572  0.0658 -0.3399
12653TIP3    H159374   1.601   6.120   0.122  0.2387 -1.5435 -0.9901
12653TIP3    H259375   1.630   6.131  -0.026  1.4846 -0.3414 -0.6767
12654TIP3   OH259376   3.343   1.520  17.092 -0.4285 -0.2177 -0.6277
12654TIP3    H159377   3.435   1.492  17.096  0.1844  1.2398 -2.5770
12654TIP3    H259378   3.336   1.588  17.159  0.1348  0.1282 -0.9039
12655TIP3   OH259379   4.589   5.418  13.919  0.0353  0.7219 -0.3022
12655TIP3    H159380   4.667   5.464  13.948 -0.3539  0.8004  0.6646
12655TIP3    H259381   4.517   5.463  13.963 -0.3067 -1.2806  1.3928
12656TIP3   OH259382   2.159   5.025  16.133  0.0168 -0.1581  0.3021
12656TIP3    H159383   2.168   4.989  16.045 -0.7887  1.3547 -0.4313
12656TIP3    H259384   2.240   4.999  16.178  2.0070  1.8152 -1.9129
12657TIP3   OH259385   2.318   5.243  17.201  0.4089  0.5748  0.7666
12657TIP3    H159386   2.336   5.335  17.221  3.2866 -0.0497  1.5742
12657TIP3    H259387   2.339   5.197  17.283  0.7780 -0.9525 -0.1505
12658TIP3   OH259388   2.056   5.042  11.008  0.1912  0.2156 -0.3203
12658TIP3    H159389   2.090   4.967  10.958 -1.8724 -0.5358 -0.6909
12658TIP3    H259390   2.063   5.115  10.947  0.9266  0.0410 -0.4589
12659TIP3   OH259391   4.668   1.193  13.693  0.1028  0.8930 -0.1219
12659TIP3    H159392   4.713   1.205  13.777 -0.0272  0.1128  0.0649
12659TIP3    H259393   4.579   1.224  13.710 -0.1986 -0.1720  0.3227
12660TIP3   OH259394   3.923   0.607   4.684 -0.1465 -0.4499  0.4888
12660TIP3    H159395   3.998   0.560   4.720  0.9348  1.2071  0.5402
12660TIP3    H259396   3.926   0.693   4.726 -2.8872 -0.7432  1.4979
12661TIP3   OH259397   3.263   0.949   5.242 -0.0701  0.2643 -0.3367
12661TIP3    H159398   3.324   1.023   5.241 -0.7824  0.8853  0.1353
12661TIP3    H259399   3.282   0.900   5.162  1.2870  0.2241 -0.0077
12662TIP3   OH259400   0.726   2.240  14.621  0.1066  0.3429  1.1806
12662TIP3    H159401   0.803   2.189  14.597 -0.4255 -0.1716  0.5134
12662TIP3    H259402   0.755   2.331  14.618  0.3979  0.2273 -0.1855
12663TIP3   OH259403   1.807   2.498   4.893  0.0126  0.3645  0.5027
12663TIP3    H159404   1.838   2.577   4.937 -0.5835  1.0728 -0.3119
12663TIP3    H259405   1.802   2.523   4.801  0.1024 -0.7259  0.1933
12664TIP3   OH259406   5.397   5.202   5.071  0.5831 -0.3623 -0.3754
12664TIP3    H159407   5.336   5.135   5.102 -0.8176  0.7695 -0.6037
12664TIP3    H259408   5.399   5.266   5.141  1.2251 -0.2004 -0.5395
12665TIP3   OH259409   1.554   6.547  16.842  0.3183 -0.3365  0.1714
12665TIP3    H159410   1.575   6.628  16.796 -0.2273  0.0728  0.6226
12665TIP3    H259411   1.607   6.480  16.799 -0.5085 -0.0546 -1.3498
12666TIP3   OH259412   4.249   3.220  11.549  0.4375 -0.1844 -0.3299
12666TIP3    H159413   4.216   3.174  11.472 -1.6573 -1.0739  1.0437
12666TIP3    H259414   4.338   3.186  11.561  0.9116  0.1607 -2.4443
12667TIP3   OH259415   4.051   5.188  15.473  0.3197 -0.3835 -0.0918
12667TIP3    H159416   3.981   5.125  15.457  0.1050 -0.5264  1.3094
12667TIP3    H259417   4.109   5.144  15.535  0.4361  0.5979  0.5112
12668TIP3   OH259418   0.439   3.533   2.042  0.3134  0.1810 -0.2836
12668TIP3    H159419   0.445   3.546   1.948  1.9714 -0.5514 -0.3203
12668TIP3    H259420   0.354   3.490   2.055  0.4283 -0.4781 -1.5474
12669TIP3   OH259421   4.625   5.962  14.699 -0.4726  0.2432  0.3786
12669TIP3    H159422   4.595   5.989  14.786 -0.4303  0.4426  0.3333
12669TIP3    H259423   4.709   5.920  14.715 -1.0239 -0.8187  0.5692
12670TIP3   OH259424   2.758   4.788  17.413 -0.4002  0.1384 -0.1327
12670TIP3    H159425   2.818   4.842  17.361 -0.5384  0.0946 -0.3399
12670TIP3    H259426   2.686   4.767  17.353 -0.5016 -0.0145  0.0405
12671TIP3   OH259427   6.061   5.800  13.533 -0.3898 -0.3490 -0.4782
12671TIP3    H159428   6.052   5.711  13.566  0.7282  0.5376  2.6033
12671TIP3    H259429   6.131   5.795  13.469 -0.7116 -1.7487 -0.7563
12672TIP3   OH259430   6.717   6.633  15.607  0.5910  0.2190 -0.0682
12672TIP3    H159431   6.679   6.615  15.522  0.1989 -1.5238  0.4410
12672TIP3    H259432   6.742   6.547  15.642  0.7865  0.8829  1.5452
12673TIP3   OH259433   5.983   6.490   3.236 -0.1259 -0.2407  0.0116
12673TIP3    H159434   6.040   6.492   3.314 -0.5685 -1.6673  0.3893
12673TIP3    H259435   5.897   6.467   3.270 -0.5256  0.0126 -0.8085
12674TIP3   OH259436   2.357   5.376   3.431  0.4817  0.5278 -0.0729
12674TIP3    H159437   2.390   5.465   3.421 -0.9749  0.9651 -1.3220
12674TIP3    H259438   2.326   5.351   3.344 -1.7091 -0.1122  0.8198
12675TIP3   OH259439   1.622   1.404   5.473  0.1092 -0.0121 -0.0302
12675TIP3    H159440   1.604   1.321   5.428 -0.0550  0.2748 -0.5041
12675TIP3    H259441   1.562   1.404   5.548 -2.1216  1.0109 -1.6897
12676TIP3   OH259442   0.446   4.100  15.384  0.3049  0.1748  0.7263
12676TIP3    H159443   0.351   4.104  15.396  0.2559 -0.9560  0.7739
12676TIP3    H259444   0.459   4.034  15.316  1.0673  0.1980  0.8391
12677TIP3   OH259445   4.788   6.603  13.334  0.1725  0.0473 -0.0839
12677TIP3    H159446   4.778   6.685  13.286  0.0892  1.0746  1.5831
12677TIP3    H259447   4.855   6.623  13.400 -1.8083 -0.2953  2.1745
12678TIP3   OH259448   4.820   4.028  13.757 -0.4155 -0.6291  0.2820
12678TIP3    H159449   4.784   3.941  13.740 -0.8918 -0.2620 -0.6715
12678TIP3    H259450   4.768   4.062  13.830  0.4997 -1.5535  1.4082
12679TIP3   OH259451   4.156   2.579  17.436  0.2606 -0.4238  0.4463
12679TIP3    H159452   4.093   2.524  17.480  2.0368 -1.9012  1.2743
12679TIP3    H259453   4.234   2.575  17.491  1.7790 -0.3913 -1.5826
12680TIP3   OH259454   4.148   6.001   0.369 -0.6335 -0.1897  0.2567
12680TIP3    H159455   4.126   6.063   0.299 -1.3441 -0.8184 -0.0996
12680TIP3    H259456   4.228   5.958   0.339 -1.3189 -0.9664 -0.5487
12681TIP3   OH259457   1.100   6.118   2.456  0.6146 -0.3344 -0.2172
12681TIP3    H159458   1.028   6.056   2.466  1.5912 -1.4920 -0.1558
12681TIP3    H259459   1.166   6.089   2.518  2.3739 -1.1542 -2.3439
12682TIP3   OH259460   4.960   0.721   1.795 -0.0514  0.1389 -0.2961
12682TIP3    H159461   4.906   0.780   1.848  1.1421 -0.5976  1.8330
12682TIP3    H259462   4.901   0.649   1.773 -0.0376 -0.6464  1.9776
12683TIP3   OH259463   3.096   6.172  13.827 -0.3838  0.4025  0.5689
12683TIP3    H159464   3.002   6.169  13.844 -0.3380 -0.6532  0.6499
12683TIP3    H259465   3.134   6.105  13.884  0.1628 -0.7391 -1.0777
12684TIP3   OH259466   1.573   5.975   2.050 -0.4474 -0.6528 -0.0579
12684TIP3    H159467   1.480   5.988   2.067 -0.1044  0.8709  0.8995
12684TIP3    H259468   1.583   5.994   1.957 -0.9733  0.0261  0.0115
12685TIP3   OH259469   5.166   0.231   5.836 -0.0821  0.4737  0.7169
12685TIP3    H159470   5.209   0.241   5.921 -1.7423  2.1625  1.4314
12685TIP3    H259471   5.074   0.251   5.854 -0.4106  1.2313 -1.5498
12686TIP3   OH259472   5.174   5.409  15.172  0.0424 -0.6491 -0.4050
12686TIP3    H159473   5.158   5.316  15.192 -1.2520 -0.1089  1.2933
12686TIP3    H259474   5.103   5.455  15.216 -0.1236  1.0862 -2.3349
12687TIP3   OH259475   4.967   6.123  15.222  0.0355 -0.3776  0.1806
12687TIP3    H159476   4.955   6.119  15.127  1.3669  1.9616 -0.1335
12687TIP3    H259477   5.038   6.061  15.240  0.6024  0.0543 -0.5274
12688TIP3   OH259478   2.937   4.104   5.776  0.3587  0.0166  0.1559
12688TIP3    H159479   3.008   4.149   5.821  1.3997 -1.4125  0.0112
12688TIP3    H259480   2.908   4.037   5.838 -0.6248  0.3456  0.0702
12689TIP3   OH259481   5.294   4.220   5.517  0.1125 -0.1771  0.3847
12689TIP3    H159482   5.302   4.163   5.593  0.4811  0.8554  1.1438
12689TIP3    H259483   5.267   4.162   5.446  1.9116 -1.5682  0.7705
12690TIP3   OH259484   5.054   1.200   5.378 -0.3827  0.3485  0.1972
12690TIP3    H159485   5.100   1.281   5.402  0.0441  0.5448 -1.1952
12690TIP3    H259486   4.970   1.206   5.423  0.4002  0.6276  1.6965
12691TIP3   OH259487   0.180   4.478   5.981  0.1462 -0.3299 -0.5965
12691TIP3    H159488   0.262   4.475   6.031 -0.6894  0.7985  0.9490
12691TIP3    H259489   0.127   4.543   6.027 -3.1040 -3.6287  0.7879
12692TIP3   OH259490   3.142   3.571   1.807  0.1430 -0.2511 -0.7298
12692TIP3    H159491   3.212   3.597   1.746  0.6398 -3.7407 -1.8624
12692TIP3    H259492   3.172   3.602   1.892  0.7021  2.4871 -1.8166
12693TIP3   OH259493   3.895   3.779   3.996  0.3418 -0.3070 -0.1165
12693TIP3    H159494   3.831   3.785   4.067  0.8362 -0.5691  0.3573
12693TIP3    H259495   3.881   3.692   3.958  1.2206 -0.8513  0.7717
12694TIP3   OH259496   2.119   6.674   2.004  0.2400 -0.0343 -0.1928
12694TIP3    H159497   2.036   6.668   2.053 -0.3349 -0.3165 -1.1742
12694TIP3    H259498   2.131   6.768   1.990  0.7022  0.0962  0.9500
12695TIP3   OH259499   5.365   0.232   0.359  0.1963  0.4629 -0.0551
12695TIP3    H159500   5.421   0.191   0.426  0.9505  1.4190 -0.0804
12695TIP3    H259501   5.395   0.323   0.354  0.5093  0.3051 -2.0541
12696TIP3   OH259502   5.940   0.553   5.673  0.1631 -0.3038  0.5149
12696TIP3    H159503   6.000   0.619   5.638 -0.7064 -0.5881 -1.6368
12696TIP3    H259504   5.963   0.473   5.627 -1.1812 -0.6386  0.3855
12697TIP3   OH259505   4.853   5.960  15.827  0.6170 -0.7683  0.3215
12697TIP3    H159506   4.807   5.877  15.840 -0.2822 -0.6877 -1.9351
12697TIP3    H259507   4.934   5.935  15.782 -1.2586 -0.3128 -3.7925
12698TIP3   OH259508   0.536   3.951   0.118 -0.3868 -0.0174 -0.1206
12698TIP3    H159509   0.540   3.927   0.210  0.4273  0.0438 -0.1350
12698TIP3    H259510   0.523   3.869   0.072 -1.7564  0.0452  0.0925
12699TIP3   OH259511   6.172   0.476  14.457 -0.1256 -0.2469  0.0140
12699TIP3    H159512   6.160   0.473  14.552 -2.5239 -1.0391 -0.2438
12699TIP3    H259513   6.230   0.551  14.443 -1.5147  1.3118  1.9695
12700TIP3   OH259514   5.174   2.995  11.481 -0.5315  0.2127  0.3101
12700TIP3    H159515   5.262   2.960  11.481 -1.1188 -1.4590  2.4139
12700TIP3    H259516   5.142   2.981  11.392  1.2581  0.7687 -0.4487
12701TIP3   OH259517   5.452   3.891   2.902 -0.4171  0.1971  0.1417
12701TIP3    H159518   5.481   3.890   2.993  1.2311 -1.7920 -0.3303
12701TIP3    H259519   5.359   3.912   2.907 -0.3904  0.0251  2.2945
12702TIP3   OH259520   6.548   5.905   1.462 -0.2489  0.9117  0.5912
12702TIP3    H159521   6.489   5.834   1.486 -0.3426  0.5033 -0.7948
12702TIP3    H259522   6.492   5.971   1.423  0.0965  0.9098  0.0867
12703TIP3   OH259523   0.803   4.779   5.339  0.0865  0.0930  0.7693
12703TIP3    H159524   0.781   4.691   5.369  1.6468 -0.3766  0.6231
12703TIP3    H259525   0.727   4.807   5.289 -0.9586 -0.6500  1.8929
12704TIP3   OH259526   5.939   3.998  14.640 -0.3210  0.2060 -0.4192
12704TIP3    H159527   5.910   4.047  14.563 -0.1873  1.5390  0.3592
12704TIP3    H259528   5.899   4.043  14.714 -0.8756 -1.3708  0.2779
12705TIP3   OH259529   5.265   1.686   3.346  0.3346 -0.0839 -0.2290
12705TIP3    H159530   5.170   1.676   3.354  0.3404 -0.7425 -0.8202
12705TIP3    H259531   5.289   1.752   3.411 -0.5930  0.4293 -0.3993
12706TIP3   OH259532   0.854   2.368  16.181 -0.0951  0.0084 -0.1842
12706TIP3    H159533   0.922   2.375  16.114 -1.6362  0.2296 -1.7939
12706TIP3    H259534   0.882   2.429  16.250  1.1311  0.3846 -0.9907
12707TIP3   OH259535   1.731   0.288  11.876  0.0339 -0.3314 -0.2497
12707TIP3    H159536   1.782   0.231  11.818  0.0064 -1.1861  0.5499
12707TIP3    H259537   1.695   0.229  11.942  0.5698  0.6922  0.9978
12708TIP3   OH259538   5.789   5.451   5.287 -0.1631 -0.4014  0.0150
12708TIP3    H159539   5.830   5.528   5.249 -1.3149 -0.0013 -0.4701
12708TIP3    H259540   5.771   5.476   5.378 -0.5648 -0.0785 -0.1509
12709TIP3   OH259541   2.803   1.383  17.238 -0.4549  0.4545 -0.0817
12709TIP3    H159542   2.808   1.478  17.252  0.5564  0.4873 -0.6207
12709TIP3    H259543   2.864   1.346  17.301 -0.4652  0.1918 -0.2256
12710TIP3   OH259544   2.752   6.010  12.367 -0.3394 -0.3566  0.1726
12710TIP3    H159545   2.658   6.004  12.383 -0.5200  1.4619 -0.0952
12710TIP3    H259546   2.761   6.074  12.297  1.1507  0.2640  0.8789
12711TIP3   OH259547   5.779   5.778  12.471 -0.3674 -0.2582 -0.2801
12711TIP3    H159548   5.852   5.777  12.409 -1.9469  0.9437 -2.3295
12711TIP3    H259549   5.798   5.852  12.529  0.7607 -0.9057  0.1951
12712TIP3   OH259550   4.082   2.222   0.703 -0.9177  0.2475 -0.4816
12712TIP3    H159551   4.121   2.151   0.755 -1.3595  1.1624  1.1621
12712TIP3    H259552   4.141   2.230   0.628  0.4086 -0.3850  0.4272
12713TIP3   OH259553   3.559   5.105  17.425 -0.1430  0.0300 -0.6541
12713TIP3    H159554   3.577   5.190  17.385  1.1616 -0.5918 -1.4736
12713TIP3    H259555   3.634   5.088  17.481 -0.3338 -0.6415 -0.5944
12714TIP3   OH259556   3.947   2.331   5.108  0.7788 -0.4094  0.2631
12714TIP3    H159557   3.978   2.276   5.180  0.9720  0.6342  1.0128
12714TIP3    H259558   3.896   2.400   5.152  1.6662  0.7686 -0.5041
12715TIP3   OH259559   3.490   3.209  12.246 -0.3942 -0.2955 -0.1000
12715TIP3    H159560   3.394   3.208  12.245 -0.4318 -0.1418  1.1546
12715TIP3    H259561   3.513   3.203  12.339  0.8364 -1.2090 -0.4339
12716TIP3   OH259562   1.657   1.604   6.757  0.0115 -0.5070  0.0951
12716TIP3    H159563   1.640   1.692   6.792 -1.0456 -0.4339 -0.5744
12716TIP3    H259564   1.737   1.576   6.801  0.0939  0.5998  0.6774
12717TIP3   OH259565   1.889   5.425   2.336  0.1050 -0.0223 -0.4159
12717TIP3    H159566   1.803   5.383   2.332 -1.0048  2.0420  0.1839
12717TIP3    H259567   1.879   5.505   2.285  1.7069  0.2155 -0.4083
12718TIP3   OH259568   6.622   0.728  12.231 -0.4265  0.2109  0.5570
12718TIP3    H159569   6.582   0.807  12.194 -1.0914  0.1159  1.0574
12718TIP3    H259570   6.714   0.752  12.244  0.2095 -0.1978 -2.4626
12719TIP3   OH259571   1.511   1.786  13.472  0.3799 -0.2764  0.5553
12719TIP3    H159572   1.417   1.791  13.452  0.6011  0.6246 -0.3462
12719TIP3    H259573   1.526   1.693  13.488 -0.6521 -0.4481  0.6400
12720TIP3   OH259574   4.869   6.574  15.348 -0.1772  0.2425 -0.0861
12720TIP3    H159575   4.924   6.575  15.427  1.8491 -1.0122 -1.3867
12720TIP3    H259576   4.827   6.489  15.349 -1.8184  1.0174  0.6533
12721TIP3   OH259577   4.224   5.983   6.186 -0.0850  0.4074  0.1977
12721TIP3    H159578   4.285   5.999   6.258 -0.1548 -0.1295  0.3796
12721TIP3    H259579   4.143   6.026   6.215 -0.7829 -1.6152  1.4477
12722TIP3   OH259580   6.531   6.183  11.507 -0.2709  0.3436 -0.5173
12722TIP3    H159581   6.439   6.157  11.500 -0.2345 -0.2822  1.0717
12722TIP3    H259582   6.571   6.116  11.563  0.7626  1.5666  0.2478
12723TIP3   OH259583   2.948   5.266   4.573 -0.0297  0.9223  0.1467
12723TIP3    H159584   2.887   5.234   4.506 -1.4180  0.3018  1.6308
12723TIP3    H259585   2.895   5.270   4.653  1.7989  0.7753  1.4157
12724TIP3   OH259586   4.158   6.448  16.381  0.6847  0.0795 -0.0306
12724TIP3    H159587   4.097   6.378  16.358  0.0983 -0.0364  1.7677
12724TIP3    H259588   4.184   6.485  16.297  0.6137 -1.9490 -1.0200
12725TIP3   OH259589   6.326   0.174   1.582 -0.1268  0.4109 -0.0709
12725TIP3    H159590   6.386   0.115   1.627  0.6102  0.7858 -0.5254
12725TIP3    H259591   6.372   0.258   1.579 -0.6049  0.6682 -0.5694
12726TIP3   OH259592   1.793   0.076   2.307 -0.4628 -0.7779 -0.2168
12726TIP3    H159593   1.764   0.118   2.226 -1.3781 -0.6351  0.1677
12726TIP3    H259594   1.784  -0.018   2.290  1.9215 -0.9098 -1.2026
12727TIP3   OH259595   4.547   1.592  14.788  0.3704 -0.4566 -0.3311
12727TIP3    H159596   4.620   1.540  14.823 -0.8774 -2.7712 -0.9654
12727TIP3    H259597   4.487   1.527  14.753 -2.2777  1.3409  0.6214
12728TIP3   OH259598   1.571   1.910   4.481 -0.3620 -0.0378  0.4042
12728TIP3    H159599   1.538   1.989   4.438 -0.7031  0.3782  1.4166
12728TIP3    H259600   1.552   1.923   4.574 -1.1111 -1.6273  0.5047
12729TIP3   OH259601   3.743   2.267   2.481 -0.1070 -0.0379 -0.0821
12729TIP3    H159602   3.765   2.221   2.400 -1.5354 -0.6317 -0.1544
12729TIP3    H259603   3.648   2.260   2.488  0.0104 -0.3073  1.8117
12730TIP3   OH259604   6.612   6.368   2.409 -0.2902 -0.6631  0.2800
12730TIP3    H159605   6.583   6.446   2.361  2.7293  1.2185  1.2823
12730TIP3    H259606   6.563   6.371   2.491 -0.3537  0.0503  0.2234
12731TIP3   OH259607   0.249   3.276   4.580  0.1663 -0.1515 -0.2851
12731TIP3    H159608   0.321   3.277   4.644  1.2574  0.7414 -1.4791
12731TIP3    H259609   0.198   3.198   4.603  0.9507 -0.2750  1.1917
12732TIP3   OH259610   3.838   0.084   0.496 -0.2811 -0.7064  0.3922
12732TIP3    H159611   3.815   0.095   0.588 -1.4987 -2.4275  0.3222
12732TIP3    H259612   3.771   0.026   0.460 -0.4532  0.7573 -1.8593
12733TIP3   OH259613   5.150   5.615  16.816  0.6452  0.1425  0.3440
12733TIP3    H159614   5.076   5.674  16.801 -0.1592 -0.5287  1.4875
12733TIP3    H259615   5.184   5.595  16.729  0.5487  1.7938 -0.0943
12734TIP3   OH259616   1.329   1.937   6.372  0.0574 -0.0410 -0.3868
12734TIP3    H159617   1.412   1.976   6.344  0.2291 -0.3268 -0.2726
12734TIP3    H259618   1.322   1.857   6.321 -0.1566 -0.0116 -0.4051
12735TIP3   OH259619   6.387   1.437  17.035 -0.2735  0.1439 -0.1227
12735TIP3    H159620   6.360   1.409  17.123 -1.9878 -1.0209 -0.9429
12735TIP3    H259621   6.469   1.391  17.019  0.5964  1.1750  1.2386
12736TIP3   OH259622   5.354   1.142   2.993 -0.4474 -0.5810  0.1605
12736TIP3    H159623   5.357   1.165   3.086  1.4375  0.3235 -0.0626
12736TIP3    H259624   5.437   1.096   2.978 -1.6982 -2.7035 -0.6354
12737TIP3   OH259625   0.648   6.697   5.526 -0.0467  0.3853 -0.3879
12737TIP3    H159626   0.654   6.610   5.565 -2.2181 -0.0734 -0.9143
12737TIP3    H259627   0.702   6.752   5.582 -1.0771 -0.7063  1.8173
12738TIP3   OH259628   5.064   3.876  16.055  0.3542 -0.3602 -0.3159
12738TIP3    H159629   5.045   3.969  16.071  3.0531  0.4300 -1.1731
12738TIP3    H259630   5.040   3.832  16.136 -2.1182  0.8579 -0.3097
12739TIP3   OH259631   3.885   4.521  14.457 -1.2349  0.4230  0.2219
12739TIP3    H159632   3.873   4.441  14.508  2.5364 -0.6803 -0.2784
12739TIP3    H259633   3.812   4.521  14.395 -2.9506 -1.0276  2.0959
12740TIP3   OH259634   3.999   2.108   4.321 -0.0273  0.1121 -0.4933
12740TIP3    H159635   3.942   2.048   4.274 -0.5420 -0.4682  0.8006
12740TIP3    H259636   4.072   2.052   4.351  0.2207  0.4314 -0.4966
12741TIP3   OH259637   1.227   2.605  16.436  0.6808  0.1231  0.1014
12741TIP3    H159638   1.168   2.562  16.498  0.6296  1.8438  1.3138
12741TIP3    H259639   1.168   2.659  16.382  0.9677  0.4964  0.1612
12742TIP3   OH259640   2.775   3.541   2.777 -0.5147  0.1105  0.0029
12742TIP3    H159641   2.791   3.635   2.785  1.0814 -0.1402  0.0824
12742TIP3    H259642   2.690   3.528   2.819  0.4615  1.1489  2.5496
12743TIP3   OH259643   2.679   0.313   1.566 -0.0591  0.0310  0.4885
12743TIP3    H159644   2.745   0.361   1.517  0.8325  0.2373  1.8378
12743TIP3    H259645   2.698   0.221   1.547  0.5032  0.0967  0.6975
12744TIP3   OH259646   5.394   0.970   1.183  0.1630 -0.0740 -0.4403
12744TIP3    H159647   5.340   0.924   1.118  0.0818 -0.6581  0.0383
12744TIP3    H259648   5.401   1.059   1.149 -0.3332 -0.2343 -0.9772
12745TIP3   OH259649   0.537   5.464   1.702 -0.4632 -0.1485 -0.0808
12745TIP3    H159650   0.585   5.471   1.619  1.0081 -1.0317  0.6415
12745TIP3    H259651   0.472   5.534   1.699  0.0010  0.2401 -1.6978
12746TIP3   OH259652   5.814   4.864   2.650  0.2639  0.2711 -0.7881
12746TIP3    H159653   5.806   4.790   2.710  1.4554  0.9806  0.2973
12746TIP3    H259654   5.826   4.940   2.707  0.0130  1.1813 -1.9033
12747TIP3   OH259655   1.968   6.466   3.145  0.2874  0.0599  0.1736
12747TIP3    H159656   2.021   6.476   3.224 -0.2743 -0.4616  0.6240
12747TIP3    H259657   1.991   6.542   3.090 -0.7800  1.5296  1.6689
12748TIP3   OH259658   6.702   6.155   3.965 -0.4885 -0.0870  0.2244
12748TIP3    H159659   6.730   6.246   3.965  0.1175 -0.2334 -1.6614
12748TIP3    H259660   6.633   6.151   3.899 -0.7259 -0.9425  0.5095
12749TIP3   OH259661   6.281   2.622  16.217 -0.4189 -0.1545 -0.2224
12749TIP3    H159662   6.239   2.537  16.212  0.6273 -0.6883 -0.0769
12749TIP3    H259663   6.357   2.616  16.158  0.1032  0.4115  0.3715
12750TIP3   OH259664   3.470   4.188   5.174 -0.2896 -0.1286  0.5142
12750TIP3    H159665   3.381   4.153   5.168 -0.9279  0.8142  3.0853
12750TIP3    H259666   3.521   4.115   5.210  0.5756 -1.3782 -2.8444
12751TIP3   OH259667   5.643   2.482  13.099 -0.5771  0.8207 -0.2620
12751TIP3    H159668   5.632   2.388  13.092 -0.4925  0.8523 -0.8789
12751TIP3    H259669   5.624   2.502  13.190 -0.6994  0.2216 -0.1548
12752TIP3   OH259670   0.520   1.548   0.237  0.6731  0.5196  0.5206
12752TIP3    H159671   0.481   1.470   0.277 -0.0352  0.3253 -0.5185
12752TIP3    H259672   0.583   1.513   0.173 -0.7546  0.7273 -1.0657
12753TIP3   OH259673   3.885   0.937  14.867  0.2296 -0.0927 -0.7699
12753TIP3    H159674   3.966   0.979  14.837  1.7344 -0.9692  1.8248
12753TIP3    H259675   3.914   0.863  14.919 -2.3075 -1.1816 -0.7694
12754TIP3   OH259676   2.528   5.982   0.614  0.0464 -0.0630 -0.5432
12754TIP3    H159677   2.496   6.055   0.562  0.1550  0.0871 -0.3983
12754TIP3    H259678   2.604   6.016   0.660  0.5818 -0.4978 -1.0929
12755TIP3   OH259679   3.052   2.748   5.347  0.1240 -0.3387  0.0237
12755TIP3    H159680   3.004   2.798   5.413 -0.3876  0.0899 -0.6609
12755TIP3    H259681   3.073   2.665   5.391  1.2452  0.5632  1.2648
12756TIP3   OH259682   5.570   1.732   2.565  0.1803  0.0267  0.2208
12756TIP3    H159683   5.527   1.696   2.642  1.8764  0.0412  1.2346
12756TIP3    H259684   5.663   1.731   2.587  0.8274 -0.8901 -2.2088
12757TIP3   OH259685   3.347   4.490  17.270 -0.2728 -0.0390 -0.1516
12757TIP3    H159686   3.273   4.506  17.211 -0.7644  1.2022  0.7480
12757TIP3    H259687   3.421   4.472  17.212 -1.0698 -0.3331 -1.0951
12758TIP3   OH259688   0.649   5.291  13.601 -0.4761 -0.3981  0.6851
12758TIP3    H159689   0.651   5.226  13.671 -0.7428 -0.0623  1.0117
12758TIP3    H259690   0.663   5.375  13.645  0.0869 -0.2553  0.2379
12759TIP3   OH259691   2.675   1.349  11.408  0.4235  0.1514  0.3136
12759TIP3    H159692   2.742   1.282  11.399 -1.9245 -2.7266  2.2458
12759TIP3    H259693   2.620   1.340  11.330  1.8257  2.1366 -0.9988
12760TIP3   OH259694   4.799   4.366   1.078 -0.1943 -0.0028 -0.4221
12760TIP3    H159695   4.775   4.276   1.097 -1.7251 -0.2421 -3.0197
12760TIP3    H259696   4.771   4.415   1.156  0.4499 -1.6880  0.9303
12761TIP3   OH259697   0.138   5.228  15.630  0.3229  0.6898 -0.1282
12761TIP3    H159698   0.221   5.194  15.595  0.2135  0.1212  0.1555
12761TIP3    H259699   0.165   5.300  15.688  0.7812 -0.6227  1.3701
12762TIP3   OH259700   3.420   1.636  14.080  1.0020 -0.1880 -0.5307
12762TIP3    H159701   3.489   1.614  14.018 -0.1476 -0.3586 -1.8150
12762TIP3    H259702   3.372   1.707  14.038 -0.1747 -0.7208 -0.1332
12763TIP3   OH259703   5.371   4.445  13.958 -0.2126  0.0595 -0.5903
12763TIP3    H159704   5.466   4.451  13.952 -0.2124  1.0921  0.0532
12763TIP3    H259705   5.343   4.411  13.873  0.7379 -0.4076 -0.7252
12764TIP3   OH259706   2.079   0.932   2.348 -0.5888 -0.1072  0.2927
12764TIP3    H159707   2.049   0.890   2.268  0.3069 -0.2063 -0.0062
12764TIP3    H259708   2.172   0.951   2.332 -0.5759  0.5266  1.0285
12765TIP3   OH259709   2.315   3.289   1.176  0.0258  0.4408  0.5751
12765TIP3    H159710   2.292   3.262   1.087  0.4488  1.2511  0.2092
12765TIP3    H259711   2.387   3.232   1.201 -0.3796 -0.0797  0.5628
12766TIP3   OH259712   2.666   5.290   0.557  0.0733  0.8583 -0.1162
12766TIP3    H159713   2.750   5.262   0.592  0.2610 -1.0303 -1.8802
12766TIP3    H259714   2.687   5.355   0.490  0.1694  0.3022 -0.6373
12767TIP3   OH259715   5.246   5.680  11.184 -0.5862  0.4080 -0.3706
12767TIP3    H159716   5.165   5.700  11.231  0.2935  1.1914  0.8880
12767TIP3    H259717   5.222   5.683  11.092 -2.1412 -0.1104 -0.0118
12768TIP3   OH259718   1.554   5.831   5.359  0.2673  0.2375 -0.4786
12768TIP3    H159719   1.592   5.888   5.292  1.9923  0.0606  0.2923
12768TIP3    H259720   1.628   5.807   5.415 -0.8635 -0.7949  0.6426
12769TIP3   OH259721   1.996   0.127  13.179 -0.1935  0.0642 -0.0550
12769TIP3    H159722   1.942   0.060  13.222  0.6326  0.1288  1.1439
12769TIP3    H259723   1.992   0.202  13.239  0.6149  0.3225 -0.3206
12770TIP3   OH259724   5.139   5.466   4.566 -0.1206 -0.4421  0.4324
12770TIP3    H159725   5.121   5.534   4.631 -0.9072  1.7388 -1.9133
12770TIP3    H259726   5.128   5.509   4.482 -1.6042 -3.6983 -1.2432
12771TIP3   OH259727   0.707   0.272   1.255  0.2791  0.1855  0.0683
12771TIP3    H159728   0.646   0.199   1.247  1.7667 -1.0437 -0.5056
12771TIP3    H259729   0.742   0.284   1.167  2.3615 -0.4969  0.7639
12772TIP3   OH259730   4.506   0.362  13.846  0.0039  0.6592  0.0964
12772TIP3    H159731   4.541   0.450  13.831  1.0622  0.0827 -0.9960
12772TIP3    H259732   4.481   0.330  13.759  0.1208 -0.3046  0.4002
12773TIP3   OH259733   1.476   1.768  16.475 -0.2805 -0.1822  0.5072
12773TIP3    H159734   1.551   1.781  16.533  0.4812 -1.9931 -0.0074
12773TIP3    H259735   1.466   1.852  16.430  2.4741 -0.3311 -0.5791
12774TIP3   OH259736   6.159   5.471  15.055  0.5783 -0.1834  0.5895
12774TIP3    H159737   6.095   5.470  14.983 -0.0514  0.2933  1.1372
12774TIP3    H259738   6.203   5.386  15.048 -0.2595 -0.6100  0.3267
12775TIP3   OH259739   2.637   2.875  13.743 -0.2867  0.9634  0.4121
12775TIP3    H159740   2.670   2.785  13.739 -0.3242  0.9923 -1.8978
12775TIP3    H259741   2.713   2.928  13.720 -0.4948  1.4749  0.8953
12776TIP3   OH259742   2.724   0.513  14.811 -0.2151  0.0175 -0.0773
12776TIP3    H159743   2.702   0.603  14.834  0.9003  0.3768 -0.3302
12776TIP3    H259744   2.687   0.500  14.724 -2.8336 -0.7310  1.0698
12777TIP3   OH259745   1.984   5.078   6.854  0.0199 -0.4944 -0.2134
12777TIP3    H159746   1.988   5.009   6.921 -0.7027  0.3584  0.7320
12777TIP3    H259747   1.903   5.061   6.807 -0.5182  0.1105  0.4800
12778TIP3   OH259748   2.547   1.309  12.886 -0.1139  0.0735  0.0010
12778TIP3    H159749   2.487   1.288  12.814  0.3512  0.2012 -0.4224
12778TIP3    H259750   2.632   1.279  12.856 -0.1967 -1.5590  1.2389
12779TIP3   OH259751   6.564   4.421   1.184 -0.5325  0.0323  0.0351
12779TIP3    H159752   6.536   4.467   1.105  1.1124  1.2882  0.1151
12779TIP3    H259753   6.483   4.403   1.231 -1.4630  0.1400 -1.4633
12780TIP3   OH259754   5.942   2.218   2.128  0.8922 -0.0267  0.0854
12780TIP3    H159755   5.868   2.165   2.100  0.8389 -0.9386  1.7937
12780TIP3    H259756   5.990   2.162   2.189  2.3505  0.9567 -0.1014
12781TIP3   OH259757   4.442   1.585  17.104 -0.3821 -0.5040 -0.0241
12781TIP3    H159758   4.499   1.660  17.121  0.7235 -1.2706 -0.1690
12781TIP3    H259759   4.479   1.515  17.158 -1.9644 -0.7043  0.8415
12782TIP3   OH259760   6.314   4.051  12.113  0.4027 -0.0989 -0.0922
12782TIP3    H159761   6.304   4.044  12.018 -2.2265 -0.5525  0.1368
12782TIP3    H259762   6.370   4.128  12.125  0.2642  0.3652 -1.9896
12783TIP3   OH259763   1.828   0.516   5.120 -0.1819 -0.5673 -0.3013
12783TIP3    H159764   1.845   0.489   5.029  0.9976  1.2917 -0.6870
12783TIP3    H259765   1.873   0.449   5.173  1.0480 -0.4690 -1.1665
12784TIP3   OH259766   6.147   2.006   4.042 -0.1539  0.1726  1.0514
12784TIP3    H159767   6.150   2.056   4.123  0.0409 -1.5602  2.1678
12784TIP3    H259768   6.236   1.975   4.029 -0.0640  0.8836 -0.1382
12785TIP3   OH259769   5.484   3.182  11.215 -0.1401  0.0103 -0.1413
12785TIP3    H159770   5.395   3.168  11.248  0.5246  0.1711  1.8505
12785TIP3    H259771   5.478   3.265  11.167 -1.1263 -0.1416 -0.3117
12786TIP3   OH259772   3.261   4.156  15.617  0.0921 -0.4398  0.0967
12786TIP3    H159773   3.289   4.142  15.527  0.2648 -2.8081  0.4434
12786TIP3    H259774   3.230   4.070  15.646 -0.3952  0.3711  2.1449
12787TIP3   OH259775   3.221   5.798   4.251  0.3614 -0.6022  0.0280
12787TIP3    H159776   3.136   5.796   4.295  0.0385 -2.0596 -0.5995
12787TIP3    H259777   3.285   5.788   4.321 -0.0777 -1.3464  0.3388
12788TIP3   OH259778   1.125   4.257  12.450 -0.5324  0.2008 -0.1870
12788TIP3    H159779   1.117   4.257  12.354  2.5322  0.9499 -0.5686
12788TIP3    H259780   1.186   4.186  12.469 -0.2682  0.7367  1.0839
12789TIP3   OH259781   2.463   5.215  15.440  0.2358 -0.2701 -0.6929
12789TIP3    H159782   2.541   5.269  15.432  0.6140 -0.1301  2.5161
12789TIP3    H259783   2.423   5.242  15.523 -2.2717 -1.5423 -1.3763
12790TIP3   OH259784   5.709   4.788  13.556 -0.1480 -0.4294  0.0032
12790TIP3    H159785   5.798   4.823  13.547 -0.5671  0.8113  0.5522
12790TIP3    H259786   5.660   4.858  13.598 -1.1960 -1.4243  0.4711
12791TIP3   OH259787   1.715   0.186   4.100 -0.4923 -0.0916  0.2335
12791TIP3    H159788   1.730   0.186   4.195 -0.8679 -0.6070  0.3017
12791TIP3    H259789   1.786   0.238   4.064  1.7370 -2.7591  0.4815
12792TIP3   OH259790   0.510   0.553  17.013 -0.2992  0.0478  0.4833
12792TIP3    H159791   0.516   0.460  16.990 -0.1082  0.5087 -1.4950
12792TIP3    H259792   0.429   0.583  16.972  0.4704  1.1082 -0.3129
12793TIP3   OH259793   1.515   5.764  14.175  0.1294 -0.2533 -0.4044
12793TIP3    H159794   1.608   5.766  14.196 -0.0392  1.0421  0.2927
12793TIP3    H259795   1.476   5.706  14.242  0.3159 -0.1625 -0.2184
12794TIP3   OH259796   4.365   6.551   4.833 -0.0170 -0.3208 -0.1019
12794TIP3    H159797   4.278   6.551   4.873 -1.3428  1.0266 -2.6644
12794TIP3    H259798   4.382   6.643   4.813  1.3967 -0.7101 -0.8385
12795TIP3   OH259799   6.389   0.064   0.750 -0.5593  0.3849 -0.0650
12795TIP3    H159800   6.346   0.010   0.683 -2.1088  0.8347  0.5104
12795TIP3    H259801   6.446   0.003   0.797  1.3040  0.2471 -2.3250
12796TIP3   OH259802   5.710   4.637  13.780  0.0257  0.2575 -0.1235
12796TIP3    H159803   5.652   4.563  13.762  1.3163 -0.4964 -1.3973
12796TIP3    H259804   5.703   4.692  13.702 -0.8880  1.5130  0.7902
12797TIP3   OH259805   0.139   2.700   4.612 -0.6407  0.1654  0.2496
12797TIP3    H159806   0.112   2.764   4.546 -1.0610  1.3232  1.4944
12797TIP3    H259807   0.061   2.686   4.665 -0.3101 -0.7470  0.5132
12798TIP3   OH259808   1.370   1.728   2.463  0.2571  0.1140 -0.6910
12798TIP3    H159809   1.281   1.694   2.457  0.1079  0.4275 -0.3076
12798TIP3    H259810   1.370   1.782   2.542  1.1978 -1.0591  0.1425
12799TIP3   OH259811   0.603   0.763  13.919  0.2235  0.4098  0.1780
12799TIP3    H159812   0.632   0.769  13.828  1.6262  2.4916  0.7028
12799TIP3    H259813   0.651   0.689  13.955  0.6395  0.3773 -0.4302
12800TIP3   OH259814   3.969   2.795  13.039 -0.0887 -0.7585  0.0858
12800TIP3    H159815   3.925   2.865  12.990 -1.1828  0.7304  2.9603
12800TIP3    H259816   4.060   2.822  13.044 -0.0650 -0.6756 -0.6412
12801TIP3   OH259817   5.793   2.777  12.792 -0.2578  0.1447 -0.4980
12801TIP3    H159818   5.736   2.854  12.795 -0.8240 -0.2948  1.9298
12801TIP3    H259819   5.737   2.706  12.761 -0.8616 -0.1048  1.0835
12802TIP3   OH259820   3.659   4.595   4.475 -0.0846  0.6766 -0.2387
12802TIP3    H159821   3.745   4.560   4.455 -0.1869  0.9313 -1.1570
12802TIP3    H259822   3.607   4.519   4.500 -0.1281  0.2528 -1.5772
12803TIP3   OH259823   2.591   4.314   1.332 -0.3873  0.0948  0.3370
12803TIP3    H159824   2.547   4.395   1.306 -2.9793 -0.7598  1.7349
12803TIP3    H259825   2.582   4.257   1.255 -1.5385  0.0454  0.4820
12804TIP3   OH259826   4.534   4.282   2.084 -0.2732  0.1943 -0.3689
12804TIP3    H159827   4.559   4.246   2.169 -0.4278  0.1641 -0.3363
12804TIP3    H259828   4.591   4.238   2.021  0.2664  0.6650 -0.2140
12805TIP3   OH259829   5.811   5.743   3.910  0.0040 -0.2744 -0.1728
12805TIP3    H159830   5.843   5.819   3.862 -0.8484 -0.3616 -0.8979
12805TIP3    H259831   5.847   5.668   3.863  0.9529 -0.3342  0.6186
12806TIP3   OH259832   4.447   5.537  12.698  0.5020  0.3427  0.1148
12806TIP3    H159833   4.435   5.458  12.644 -1.2875  0.2659  0.5572
12806TIP3    H259834   4.538   5.561  12.685  0.7149 -0.9908 -1.1512
12807TIP3   OH259835   6.421   3.291   6.498  0.5145 -0.4648 -0.2313
12807TIP3    H159836   6.448   3.373   6.539 -0.0181 -1.0091  1.2819
12807TIP3    H259837   6.418   3.311   6.404 -1.6725  1.8881  0.2017
12808TIP3   OH259838   3.622   1.671  13.906  0.1920  0.5736 -0.7758
12808TIP3    H159839   3.601   1.753  13.862  0.8825 -0.7956 -3.9115
12808TIP3    H259840   3.717   1.664  13.901  0.3581  0.5723  1.4813
12809TIP3   OH259841   6.088   2.587  11.030 -0.1633 -0.0766 -0.3706
12809TIP3    H159842   6.026   2.514  11.028  0.9877 -1.1516  1.1825
12809TIP3    H259843   6.037   2.660  11.067 -0.8889 -0.5134 -0.4887
12810TIP3   OH259844   2.984   2.991   4.665 -0.5497 -0.1722 -0.2586
12810TIP3    H159845   3.000   2.913   4.611  1.1599 -0.8550  1.1229
12810TIP3    H259846   2.903   2.971   4.712 -0.0432 -1.2222  0.2030
12811TIP3   OH259847   6.071   2.176  12.457  0.3440  0.7330  0.4355
12811TIP3    H159848   6.054   2.180  12.552  0.5040  1.5039  0.4388
12811TIP3    H259849   6.050   2.086  12.433  0.9641  0.3286  1.3353
12812TIP3   OH259850   4.350   3.665   5.606 -0.3658 -0.3950  0.5472
12812TIP3    H159851   4.354   3.593   5.670  0.5243 -0.3945  0.5062
12812TIP3    H259852   4.258   3.691   5.605 -0.1084  1.1842  3.6280
12813TIP3   OH259853   0.054   6.366   6.413  0.3109 -0.2556 -0.5074
12813TIP3    H159854   0.116   6.354   6.341  1.1741 -0.5063  0.2580
12813TIP3    H259855  -0.032   6.371   6.370  0.8222 -0.2071 -1.5614
12814TIP3   OH259856   1.616   5.033  13.357 -0.1297 -0.2416 -0.6250
12814TIP3    H159857   1.676   4.961  13.339 -0.5188 -0.6679 -0.2559
12814TIP3    H259858   1.670   5.100  13.399  0.2368 -0.3127 -0.9802
12815TIP3   OH259859   4.379   2.440   4.077 -0.0802 -0.4842 -0.1486
12815TIP3    H159860   4.299   2.407   4.118 -1.5709  1.6818 -1.1311
12815TIP3    H259861   4.438   2.456   4.150 -1.0467 -0.8008  0.7391
12816TIP3   OH259862   1.968   1.205  13.788  0.3500  0.1933 -0.0433
12816TIP3    H159863   1.962   1.191  13.883 -0.7824 -0.7294 -0.2283
12816TIP3    H259864   1.969   1.117  13.751  1.4419  0.5289 -0.8775
12817TIP3   OH259865   3.949   2.331  16.326 -0.1876  0.3345  0.3775
12817TIP3    H159866   3.954   2.418  16.364  0.3333  0.3681  0.2427
12817TIP3    H259867   3.864   2.328  16.282  0.4649  1.3516 -1.0059
12818TIP3   OH259868   2.710   4.040   3.394  0.1937  0.4431 -0.2313
12818TIP3    H159869   2.787   4.019   3.447  1.1325  2.9095 -0.5078
12818TIP3    H259870   2.714   4.134   3.380 -2.0538  0.4322 -1.5940
12819TIP3   OH259871   5.165   4.714  14.673  0.0223  0.2202 -0.3080
12819TIP3    H159872   5.215   4.755  14.744 -1.0931  3.1112 -1.0616
12819TIP3    H259873   5.232   4.674  14.618  1.1710  0.7139  0.6751
12820TIP3   OH259874   5.976   5.995  14.295 -0.1774 -0.5044  0.1191
12820TIP3    H159875   5.930   6.079  14.293 -0.6625 -0.7632  0.2168
12820TIP3    H259876   6.002   5.984  14.386  1.8960  0.5989 -0.2846
12821TIP3   OH259877   5.395   2.307  15.252 -0.2513  0.0712 -0.6639
12821TIP3    H159878   5.337   2.384  15.252 -0.0067  0.2597 -0.6503
12821TIP3    H259879   5.465   2.330  15.191  1.3249  1.0289  1.3582
12822TIP3   OH259880   3.473   4.031  10.587 -0.1336 -0.5750 -0.2380
12822TIP3    H159881   3.466   3.951  10.535 -1.5084  1.1794 -3.0368
12822TIP3    H259882   3.391   4.078  10.569  1.4712  2.3905 -0.4893
12823TIP3   OH259883   6.363   4.210   2.801  0.1496  0.0112  0.3325
12823TIP3    H159884   6.374   4.182   2.892 -0.6770 -1.3409  0.0357
12823TIP3    H259885   6.452   4.230   2.772  1.0739 -3.5988  0.1980
12824TIP3   OH259886   4.153   3.949  17.253 -0.4741 -0.0195  0.5435
12824TIP3    H159887   4.245   3.970  17.233 -0.1557 -1.2972  0.5604
12824TIP3    H259888   4.103   4.000  17.190  0.2333  0.8795  0.6857
12825TIP3   OH259889   5.532   3.282  16.539  0.3403 -0.6500  0.2460
12825TIP3    H159890   5.543   3.352  16.603  0.4427  0.8683 -1.3465
12825TIP3    H259891   5.620   3.244  16.530  0.9022  0.8213 -0.8014
12826TIP3   OH259892   0.907   0.341   1.819  0.2773 -0.8607 -0.0284
12826TIP3    H159893   0.859   0.259   1.809 -1.2277 -0.1312  0.8398
12826TIP3    H259894   0.964   0.345   1.742  1.1848 -3.1855  0.4406
12827TIP3   OH259895   5.179   1.469  16.181  0.0362 -0.2144  0.5612
12827TIP3    H159896   5.109   1.517  16.224 -0.4172 -0.5203  0.1659
12827TIP3    H259897   5.259   1.502  16.223 -0.2143  1.2667 -0.0602
12828TIP3   OH259898   5.571   0.631   2.805  0.3972  0.3712  0.5115
12828TIP3    H159899   5.551   0.567   2.873  0.8958  0.6483  0.9275
12828TIP3    H259900   5.498   0.693   2.808 -0.0967 -0.1857  0.0905
12829TIP3   OH259901   0.665   0.265   3.986 -0.0420 -0.4920  0.6618
12829TIP3    H159902   0.605   0.277   4.060 -1.0248 -2.0015  0.1598
12829TIP3    H259903   0.678   0.353   3.952 -1.2491 -0.0076  1.3624
12830TIP3   OH259904   4.185   0.806  15.165  0.3065 -0.3795 -0.3761
12830TIP3    H159905   4.134   0.725  15.171  0.2290 -0.2410  1.2819
12830TIP3    H259906   4.168   0.838  15.077 -2.9968 -0.0087  0.2548
12831TIP3   OH259907   5.963   1.268   5.039 -0.5564 -0.6197  0.3364
12831TIP3    H159908   5.933   1.217   5.115  0.5878 -1.7340  0.0585
12831TIP3    H259909   6.054   1.291   5.060 -0.3263 -0.6887 -0.5794
12832TIP3   OH259910   4.452   5.178  13.739  0.3895  0.3682  0.1456
12832TIP3    H159911   4.513   5.233  13.689  1.1053  0.7839  1.4269
12832TIP3    H259912   4.500   5.157  13.819 -0.5758 -0.6232  0.4740
12833TIP3   OH259913   5.166   0.274   1.113  0.4014  0.6950 -0.3774
12833TIP3    H159914   5.074   0.247   1.114  0.2583  1.2088  0.9464
12833TIP3    H259915   5.168   0.356   1.161  1.7141  0.1248  0.5990
12834TIP3   OH259916   6.463   0.046   2.570 -0.3914  0.4723  0.3159
12834TIP3    H159917   6.469   0.036   2.665  0.0883  1.1663  0.3648
12834TIP3    H259918   6.375   0.017   2.549 -0.4419  0.1373  0.9518
12835TIP3   OH259919   5.501   0.308   2.409 -0.3676  0.0339  0.0699
12835TIP3    H159920   5.522   0.401   2.406 -0.0705 -0.0263  0.1919
12835TIP3    H259921   5.587   0.265   2.417 -0.5627 -0.2081  0.9502
12836TIP3   OH259922   6.436   1.998   2.981 -0.4233 -0.1562 -0.4872
12836TIP3    H159923   6.476   1.931   3.036 -1.7723 -0.6323 -0.0463
12836TIP3    H259924   6.469   1.981   2.894  0.5225 -0.3697 -0.0971
12837TIP3   OH259925   2.685   0.193   4.817  0.1294  0.6480 -0.3388
12837TIP3    H159926   2.756   0.235   4.768  0.1579  0.7537 -0.2085
12837TIP3    H259927   2.720   0.184   4.906 -0.9186  3.0509  0.4208
12838TIP3   OH259928   4.921   1.247  12.551 -0.0540 -0.4390  0.1243
12838TIP3    H159929   4.883   1.160  12.545  1.4734 -1.0652 -3.2955
12838TIP3    H259930   4.989   1.240  12.618 -0.7805 -1.5058  0.7608
12839TIP3   OH259931   2.988   3.191  13.276  0.0741 -0.8345 -0.0753
12839TIP3    H159932   3.073   3.230  13.301 -0.7748  0.7288  0.5527
12839TIP3    H259933   2.994   3.179  13.182  0.2878  1.2427 -0.3899
12840TIP3   OH259934   2.444   3.236   0.287  1.1903  0.3557  0.0007
12840TIP3    H159935   2.446   3.326   0.319  1.2103  1.1451 -2.0199
12840TIP3    H259936   2.368   3.197   0.330  1.1143  1.3706  0.8261
12841TIP3   OH259937   5.838   3.584   4.183  0.1740 -0.1177  0.3163
12841TIP3    H159938   5.887   3.666   4.182  0.7709 -0.4818 -0.8189
12841TIP3    H259939   5.898   3.519   4.147 -1.0538 -0.6071 -0.9314
12842TIP3   OH259940   1.358   1.137  14.279 -0.1627 -0.1505 -0.0307
12842TIP3    H159941   1.351   1.177  14.366  2.3916  0.3649  0.0138
12842TIP3    H259942   1.375   1.044  14.297 -2.2970 -0.6092 -0.0863
12843TIP3   OH259943   4.156   4.224  12.151  0.2993  0.0403  0.1564
12843TIP3    H159944   4.063   4.247  12.162  0.8361  1.7498  1.7491
12843TIP3    H259945   4.203   4.305  12.173  2.1785 -0.7310 -0.7926
12844TIP3   OH259946   4.333   1.242   4.464 -0.4265 -0.3012  0.7863
12844TIP3    H159947   4.406   1.199   4.420 -2.3198 -2.0666 -0.8315
12844TIP3    H259948   4.306   1.312   4.405 -0.4991 -0.1031  1.0494
12845TIP3   OH259949   6.131   6.707  15.719 -0.2320  0.6323  0.0592
12845TIP3    H159950   6.141   6.774  15.786  1.4969  0.3135  0.1604
12845TIP3    H259951   6.189   6.636  15.746 -0.3650  0.0068 -1.1823
12846TIP3   OH259952   1.096   5.014   1.030  0.2367  0.1386 -0.5822
12846TIP3    H159953   1.171   5.059   0.991 -0.0961  1.1126 -0.1161
12846TIP3    H259954   1.019   5.060   0.996 -0.2295 -1.3678 -1.7236
12847TIP3   OH259955   6.743   5.848  14.076 -0.1720 -0.4212  0.3593
12847TIP3    H159956   6.747   5.883  14.165  0.3049  3.4385 -0.9613
12847TIP3    H259957   6.758   5.754  14.086  0.9789 -0.0122  4.2093
12848TIP3   OH259958   6.534   1.002   4.442 -0.3601  0.4946  0.3020
12848TIP3    H159959   6.466   0.973   4.381  1.1510 -1.5167 -0.5682
12848TIP3    H259960   6.616   0.980   4.397  0.8442 -1.1183  3.0626
12849TIP3   OH259961   1.073   3.105   3.017  0.2439  0.0847  0.3032
12849TIP3    H159962   1.121   3.150   2.947  0.4394  0.1327  0.4647
12849TIP3    H259963   1.042   3.024   2.977 -1.1459  0.9085 -0.3264
12850TIP3   OH259964   3.216   1.469  16.871  0.2008 -0.0112 -0.1378
12850TIP3    H159965   3.245   1.379  16.859 -0.1412  0.0484 -1.5453
12850TIP3    H259966   3.265   1.500  16.947 -0.0523 -1.5327  0.6821
12851TIP3   OH259967   5.686   3.783  11.486  0.0987 -0.2173  0.0579
12851TIP3    H159968   5.618   3.722  11.456 -1.2348  0.4105  1.6327
12851TIP3    H259969   5.673   3.788  11.581  0.6248  1.9790  0.0603
12852TIP3   OH259970   3.164   5.605  15.836 -0.1128  0.0206 -0.2652
12852TIP3    H159971   3.237   5.619  15.775  0.7659 -0.5627  0.6048
12852TIP3    H259972   3.137   5.515  15.821  0.7878 -0.4722  0.8554
12853TIP3   OH259973   6.347   2.566  10.777  0.3660  0.0229  0.3679
12853TIP3    H159974   6.282   2.497  10.766  1.1809 -0.4424 -2.1433
12853TIP3    H259975   6.297   2.641  10.809 -1.3100 -0.5030 -0.9034
12854TIP3   OH259976   4.526   0.092  14.254 -0.1920 -0.1021  0.5037
12854TIP3    H159977   4.565   0.082  14.167  0.4938 -0.8061  0.8823
12854TIP3    H259978   4.450   0.034  14.253 -2.0698  2.1992 -0.6667
12855TIP3   OH259979   1.045   5.917   3.726  0.1126  0.1405  0.2882
12855TIP3    H159980   0.987   5.841   3.732  0.2039 -0.1054 -1.4659
12855TIP3    H259981   1.028   5.967   3.806 -0.6675 -1.2102  0.9932
12856TIP3   OH259982   1.035   5.725  13.306 -0.9288 -0.2329 -0.8450
12856TIP3    H159983   1.105   5.683  13.256 -0.5254 -0.1031 -0.3920
12856TIP3    H259984   1.036   5.680  13.391 -1.3242 -0.1547 -0.7959
12857TIP3   OH259985   5.147   3.037   1.962 -0.0559 -0.0206 -0.0590
12857TIP3    H159986   5.086   3.110   1.973  0.9895  0.8799 -0.0901
12857TIP3    H259987   5.183   3.049   1.874 -0.6926 -1.2223 -0.4999
12858TIP3   OH259988   4.675   5.876   5.151  0.7503 -0.3357  0.4113
12858TIP3    H159989   4.689   5.798   5.205 -0.2185 -0.6151  0.2804
12858TIP3    H259990   4.695   5.847   5.062  0.2178 -0.4944  0.3389
12859TIP3   OH259991   5.984   3.460  12.474  0.0421  0.3137  0.6195
12859TIP3    H159992   5.989   3.551  12.446 -0.1435  0.4545  1.0406
12859TIP3    H259993   5.891   3.438  12.467  0.2426 -0.2342 -0.6970
12860TIP3   OH259994   5.457   0.040  10.333  0.8187  0.1794 -0.4924
12860TIP3    H159995   5.467  -0.009  10.414 -3.3785  1.6817  1.2310
12860TIP3    H259996   5.448  -0.027  10.265  2.0984 -1.1546  0.5829
12861TIP3   OH259997   6.610   4.077  13.193 -0.1615  0.2538 -0.0764
12861TIP3    H159998   6.524   4.051  13.226  0.1046 -0.3356  0.1553
12861TIP3    H259999   6.644   3.999  13.149  0.6336  0.2096  0.6004
12862TIP3   OH260000   3.943   3.861   4.529 -0.6817 -0.7006 -0.0372
12862TIP3    H160001   3.928   3.772   4.563 -2.9162  0.4187  2.2176
12862TIP3    H260002   3.868   3.911   4.560  0.4437  1.9873 -1.3798
12863TIP3   OH260003   3.007   3.138  17.140 -0.6578 -0.0806  0.0246
12863TIP3    H160004   2.922   3.182  17.144 -0.8363 -0.3845 -0.3255
12863TIP3    H260005   2.988   3.052  17.102  0.1522  0.8011 -2.6141
12864TIP3   OH260006   4.903   1.654   4.332 -0.2530 -0.4505  0.2557
12864TIP3    H160007   4.893   1.706   4.252  2.1813  1.3347  0.9894
12864TIP3    H260008   4.914   1.564   4.301 -2.1902 -0.2500 -1.2094
12865TIP3   OH260009   0.149   1.819  15.643 -0.3657 -0.0567  0.1977
12865TIP3    H160010   0.085   1.853  15.581  0.6222 -0.7308 -1.2413
12865TIP3    H260011   0.234   1.842  15.605  0.2726  0.3609  1.8011
12866TIP3   OH260012   5.770   3.508  15.154  0.5427 -0.1960 -0.1678
12866TIP3    H160013   5.823   3.486  15.077  1.3889  1.5301 -0.1148
12866TIP3    H260014   5.827   3.562  15.208 -1.3690  2.1462 -0.3219
12867TIP3   OH260015   1.590   1.133   5.938 -0.3707 -0.4305  0.0622
12867TIP3    H160016   1.608   1.056   5.993 -0.9872  0.2277  1.2197
12867TIP3    H260017   1.507   1.167   5.972 -1.8848 -1.1625 -2.6100
12868TIP3   OH260018   3.720   5.139  12.299 -0.3768 -0.3148  0.0637
12868TIP3    H160019   3.738   5.169  12.388 -0.9781 -1.3275  0.5464
12868TIP3    H260020   3.782   5.186  12.245 -0.0788  0.4130  1.0062
12869TIP3   OH260021   3.711   0.391  10.582  0.3680 -0.4181  0.5036
12869TIP3    H160022   3.627   0.417  10.621  0.9367  2.2524  0.1278
12869TIP3    H260023   3.692   0.384  10.488  0.2278 -1.5332  0.5928
12870TIP3   OH260024   3.360   4.565  13.242 -0.4504  0.2414 -0.0631
12870TIP3    H160025   3.311   4.621  13.302 -1.1767  0.7465 -1.1039
12870TIP3    H260026   3.311   4.482  13.242 -0.5971  0.3273 -0.1539
12871TIP3   OH260027   6.261   4.466   1.924 -0.2160  0.0129 -0.1794
12871TIP3    H160028   6.212   4.461   1.842  1.1023  0.3332 -1.0146
12871TIP3    H260029   6.234   4.549   1.964 -0.5221  0.0764 -0.5196
12872TIP3   OH260030   0.683   6.517   0.797 -0.0924 -0.8454  0.1850
12872TIP3    H160031   0.603   6.526   0.849 -0.6002 -1.8194 -0.4027
12872TIP3    H260032   0.693   6.423   0.783  1.4144 -0.7699  0.6203
12873TIP3   OH260033   5.642   3.149  14.425 -0.0759  0.1116 -0.4448
12873TIP3    H160034   5.554   3.128  14.456  0.0307  0.6637  0.2499
12873TIP3    H260035   5.629   3.213  14.355 -0.1876  0.7893  0.1945
12874TIP3   OH260036   5.244   4.305  14.992  0.2057  0.2556 -0.1625
12874TIP3    H160037   5.264   4.398  14.987  0.4215  0.1324 -2.2589
12874TIP3    H260038   5.180   4.290  14.923 -0.2390 -1.0739  0.5021
12875TIP3   OH260039   6.556   3.447  16.276  0.1310 -0.0861 -0.3462
12875TIP3    H160040   6.643   3.486  16.282 -0.6833  1.6355  1.2987
12875TIP3    H260041   6.572   3.353  16.273  2.0048  0.0619  1.9820
12876TIP3   OH260042   4.069   3.987   3.037  0.2235 -0.3177 -0.0157
12876TIP3    H160043   4.074   3.906   3.089  1.2677 -0.1187  0.2139
12876TIP3    H260044   4.109   4.054   3.093  0.9819 -0.0152 -0.8940
12877TIP3   OH260045   5.900   3.464  16.665 -0.0328  0.0723 -0.3965
12877TIP3    H160046   5.885   3.550  16.627  0.0754 -0.7585 -2.4349
12877TIP3    H260047   5.992   3.467  16.694 -0.2630  0.8815  0.3003
12878TIP3   OH260048   0.243   2.249   5.610 -0.2139  0.5575 -0.7678
12878TIP3    H160049   0.215   2.162   5.582 -0.1190  0.2601  0.0495
12878TIP3    H260050   0.182   2.309   5.567 -1.3186 -0.0059 -0.0389
12879TIP3   OH260051   4.283   0.468  11.214  0.7181 -0.3975  0.1407
12879TIP3    H160052   4.212   0.407  11.194 -0.7880  0.9476  1.1141
12879TIP3    H260053   4.333   0.425  11.282 -0.6832 -0.3425  1.2526
12880TIP3   OH260054   5.338   3.777  13.379 -0.0844  0.5775  0.0447
12880TIP3    H160055   5.409   3.757  13.319  1.5087  2.5894  1.1364
12880TIP3    H260056   5.349   3.714  13.450  0.8156  1.0429  0.3348
12881TIP3   OH260057   5.950   4.540  10.914 -0.1859  0.0099 -0.5397
12881TIP3    H160058   6.038   4.544  10.877 -0.0533  0.0188 -0.2284
12881TIP3    H260059   5.946   4.615  10.974  0.1313 -0.8403  0.5869
12882TIP3   OH260060   2.129   2.994  15.154  0.3022 -0.6249  0.4352
12882TIP3    H160061   2.196   3.022  15.091  0.8461 -1.4407  0.6358
12882TIP3    H260062   2.152   2.904  15.175  0.1817 -0.3566  1.8604
12883TIP3   OH260063   4.894   2.524  11.382  0.2989 -0.3639  0.0570
12883TIP3    H160064   4.987   2.505  11.370  0.2604 -3.2722  3.1115
12883TIP3    H260065   4.892   2.595  11.446  0.3338  0.8333 -1.2119
12884TIP3   OH260066   3.614   4.194   1.446  0.2274  0.1531  0.5905
12884TIP3    H160067   3.554   4.266   1.426  1.8187  0.8483 -2.1727
12884TIP3    H260068   3.560   4.129   1.492 -1.7770  2.1238  1.1733
12885TIP3   OH260069   4.421   5.964  14.874 -0.6655  0.2696 -0.4074
12885TIP3    H160070   4.442   5.891  14.932  0.4709  0.1753 -0.9096
12885TIP3    H260071   4.376   6.028  14.930 -0.4505 -0.2320  0.3468
12886TIP3   OH260072   2.961   4.251  15.660 -0.4268  0.3611  0.4764
12886TIP3    H160073   2.898   4.293  15.717 -0.8478 -0.4671  0.6381
12886TIP3    H260074   3.040   4.240  15.713 -0.5924  0.2040  0.6881
12887TIP3   OH260075   5.912   5.979   6.170 -0.6542 -0.0360  0.1144
12887TIP3    H160076   6.005   5.995   6.186 -0.2950  0.4354 -2.0857
12887TIP3    H260077   5.867   6.046   6.221  0.0050 -1.6938  3.1016
12888TIP3   OH260078   2.048   2.521   5.690  0.0379 -0.0166 -0.1886
12888TIP3    H160079   2.009   2.579   5.625 -0.2494 -0.2756 -0.2514
12888TIP3    H260080   2.118   2.477   5.643 -0.5268 -0.6146 -0.4879
12889TIP3   OH260081   2.888   0.821   4.948  0.8089  0.1457 -0.4358
12889TIP3    H160082   2.969   0.842   4.901  2.3542  0.9400  2.3381
12889TIP3    H260083   2.857   0.906   4.980 -0.7723 -0.2462 -0.8552
12890TIP3   OH260084   5.867   5.453  13.802 -0.2898 -0.4753  0.1617
12890TIP3    H160085   5.793   5.393  13.789 -0.9231  0.1251  0.8580
12890TIP3    H260086   5.900   5.431  13.889  0.3687 -0.7490 -0.1533
12891TIP3   OH260087   0.034   2.959  15.381 -0.6207 -0.0937 -0.3371
12891TIP3    H160088  -0.004   3.000  15.459  0.6074  2.3835 -0.9319
12891TIP3    H260089   0.084   2.886  15.415  0.1903  1.1470  1.2980
12892TIP3   OH260090   1.392   6.688   0.990 -0.6126  0.5880 -0.2554
12892TIP3    H160091   1.376   6.728   1.076 -0.3553 -1.9269  1.0556
12892TIP3    H260092   1.319   6.627   0.978 -0.5000  0.7083 -1.7332
12893TIP3   OH260093   5.623   0.067   1.051  0.0975 -0.2439  1.0880
12893TIP3    H160094   5.708   0.077   1.095  0.6835 -0.9679  0.1523
12893TIP3    H260095   5.630  -0.015   1.003 -0.8311  0.1202  0.3019
12894TIP3   OH260096   2.667   4.861  15.549  0.8399 -0.0528 -0.0647
12894TIP3    H160097   2.682   4.914  15.627 -0.2375 -1.7311  1.3436
12894TIP3    H260098   2.693   4.772  15.573 -2.0457 -1.1724 -0.6204
12895TIP3   OH260099   1.460   3.871   1.435 -0.0544  0.3965 -0.2213
12895TIP3    H160100   1.541   3.876   1.385  1.2903  2.9851  2.0197
12895TIP3    H260101   1.484   3.822   1.514 -1.4364 -1.1885 -0.7250
12896TIP3   OH260102   5.418   3.016  12.119  0.3253  0.1083 -0.4953
12896TIP3    H160103   5.376   3.081  12.175  1.5918 -0.1357  0.7898
12896TIP3    H260104   5.479   3.066  12.065  1.1673  0.0229  0.3646
12897TIP3   OH260105   0.260   6.143   3.246  0.4065  0.3514  0.0595
12897TIP3    H160106   0.345   6.186   3.239  0.2293  1.3087  2.5473
12897TIP3    H260107   0.203   6.193   3.187  1.2731  0.5575 -0.6125
12898TIP3   OH260108   0.146   0.092  16.179  0.1732  0.0399 -0.6787
12898TIP3    H160109   0.185   0.118  16.096 -0.5823 -3.1886 -2.1913
12898TIP3    H260110   0.052   0.109  16.169  0.1236 -0.0145 -0.3333
12899TIP3   OH260111   1.348   1.630   3.187  0.1329  0.2658  0.4946
12899TIP3    H160112   1.324   1.543   3.217 -0.8117  1.0431  2.1330
12899TIP3    H260113   1.443   1.629   3.179  0.1176 -0.9246  0.3980
12900TIP3   OH260114   1.694   2.633  17.181 -0.5549 -0.0029 -0.2367
12900TIP3    H160115   1.711   2.653  17.274 -2.0874  1.1401 -0.1735
12900TIP3    H260116   1.751   2.559  17.163  1.9820  1.5618  0.8106
12901TIP3   OH260117   0.111   2.079  13.839 -0.1844 -0.2750 -0.3863
12901TIP3    H160118   0.183   2.018  13.852  0.2794 -0.0049 -1.6270
12901TIP3    H260119   0.103   2.088  13.744 -3.7295 -2.5176 -0.4861
12902TIP3   OH260120   1.507   6.416   5.502  0.2029 -0.0891  0.1433
12902TIP3    H160121   1.472   6.388   5.587  1.4071 -1.1481  0.3188
12902TIP3    H260122   1.453   6.492   5.478 -0.1624  0.2428  1.8507
12903TIP3   OH260123   3.115   2.402   1.703 -0.2214 -0.1089  0.4235
12903TIP3    H160124   3.183   2.418   1.769  1.1517 -0.4462 -0.8395
12903TIP3    H260125   3.155   2.340   1.642 -0.4052  2.0753 -2.1471
12904TIP3   OH260126   0.399   2.203   0.763  0.0087  0.1183  0.4366
12904TIP3    H160127   0.479   2.256   0.766 -0.1675  0.4855 -0.7663
12904TIP3    H260128   0.394   2.173   0.672 -0.3334 -1.2978  0.9021
12905TIP3   OH260129   3.101   2.640  17.201  0.0993 -0.5058  0.3052
12905TIP3    H160130   3.060   2.601  17.278  0.2014 -1.4142 -0.0903
12905TIP3    H260131   3.029   2.681  17.154  0.1836  0.9428  1.3897
12906TIP3   OH260132   3.736   6.170   3.597  0.1915 -0.7996  0.4884
12906TIP3    H160133   3.754   6.110   3.670 -0.5759 -1.6177  0.0221
12906TIP3    H260134   3.684   6.118   3.536  1.3560 -0.3114 -0.9539
12907TIP3   OH260135   0.596   4.494  11.318  0.5964  0.6471 -0.6504
12907TIP3    H160136   0.680   4.520  11.357  2.0149 -1.7131 -1.9514
12907TIP3    H260137   0.585   4.553  11.243  0.6340  1.5149  0.0103
12908TIP3   OH260138   6.696   4.402  14.250  0.0507 -0.2561  0.1103
12908TIP3    H160139   6.667   4.486  14.285 -1.0888 -1.0163  1.0886
12908TIP3    H260140   6.771   4.377  14.305 -0.5678 -0.5745  0.8298
12909TIP3   OH260141   2.959   2.441  13.096 -0.0658 -0.0561  0.3195
12909TIP3    H160142   2.935   2.489  13.175  2.0646 -0.9261  1.5767
12909TIP3    H260143   2.998   2.506  13.039 -0.8501  0.4172  0.3034
12910TIP3   OH260144   2.864   6.080  14.279  0.8479  0.2274  0.5131
12910TIP3    H160145   2.897   6.029  14.354  2.4567 -1.6313 -1.3297
12910TIP3    H260146   2.819   6.015  14.225  2.0391  0.9292 -1.4169
12911TIP3   OH260147   1.311   3.582  14.335 -0.3289  0.1268  0.3576
12911TIP3    H160148   1.281   3.491  14.340 -1.9837  0.6589  0.7722
12911TIP3    H260149   1.283   3.620  14.418  0.7780  0.9110  0.3893
12912TIP3   OH260150   3.461   0.897   4.046  0.0798  0.3866  0.5115
12912TIP3    H160151   3.543   0.856   4.019 -0.3086 -1.0436  1.3938
12912TIP3    H260152   3.425   0.837   4.111 -1.4098  1.2656  0.5290
12913TIP3   OH260153   0.140   3.626   3.336 -0.1100 -0.1643  0.4761
12913TIP3    H160154   0.093   3.595   3.259  1.6842  0.9978 -1.1741
12913TIP3    H260155   0.087   3.700   3.368 -0.6574 -0.4029  0.1267
12914TIP3   OH260156   1.910   3.671  13.080 -0.1742  0.3453  0.1444
12914TIP3    H160157   1.905   3.609  13.007  2.8425  0.3843 -0.1953
12914TIP3    H260158   1.860   3.747  13.050 -1.9280 -0.9367 -0.3833
12915TIP3   OH260159   5.523   3.366   3.084  0.0378 -0.1597  0.4063
12915TIP3    H160160   5.439   3.413   3.088  0.8338  1.2367  1.7003
12915TIP3    H260161   5.510   3.300   3.016 -2.0099  0.2177  0.3652
12916TIP3   OH260162   5.883   1.848  14.664 -0.1962 -0.0207 -0.4263
12916TIP3    H160163   5.884   1.919  14.728  0.0571 -0.5061  0.1166
12916TIP3    H260164   5.948   1.875  14.599  0.7788 -0.3083  0.3996
12917TIP3   OH260165   0.402   6.048   1.867 -0.0095 -0.3642 -0.9606
12917TIP3    H160166   0.385   5.988   1.795 -2.5058 -1.2839  0.2626
12917TIP3    H260167   0.315   6.067   1.904  1.0161  1.3405  0.7876
12918TIP3   OH260168   5.829   5.996  17.186  0.0714  0.5276  0.0397
12918TIP3    H160169   5.869   5.911  17.172  1.3112  1.2508 -1.0180
12918TIP3    H260170   5.850   6.017  17.277  4.0346  1.7576 -0.9757
12919TIP3   OH260171   1.108   1.339  14.281 -0.0472  0.2729 -0.5816
12919TIP3    H160172   1.145   1.424  14.257 -0.6929  0.5277 -0.6839
12919TIP3    H260173   1.176   1.276  14.255 -0.2050  0.6339 -1.9705
12920TIP3   OH260174   0.081   2.302   1.671 -0.7197 -0.1047 -0.4658
12920TIP3    H160175   0.023   2.341   1.605 -0.1754 -1.7869 -2.0082
12920TIP3    H260176   0.161   2.355   1.666  0.1643 -1.5299 -2.8276
12921TIP3   OH260177   5.159   4.987  10.795 -0.1273 -0.2817  0.3330
12921TIP3    H160178   5.176   4.899  10.826 -0.0365 -0.5453 -0.4303
12921TIP3    H260179   5.243   5.018  10.761  0.8644  1.5881  4.0078
12922TIP3   OH260180   5.510   0.598  11.687  0.3087  0.2043 -0.0330
12922TIP3    H160181   5.457   0.624  11.612  2.5111 -0.2117 -1.8399
12922TIP3    H260182   5.459   0.529  11.730 -1.3691  1.0320 -0.6475
12923TIP3   OH260183   0.469   2.392   5.354  0.5081  0.4648 -0.1585
12923TIP3    H160184   0.479   2.418   5.262  0.4565  1.1626  0.0229
12923TIP3    H260185   0.401   2.451   5.387 -0.0388 -0.3081  0.1254
12924TIP3   OH260186   3.589   5.652  13.020 -0.1755 -0.3537  0.5471
12924TIP3    H160187   3.609   5.560  12.999 -1.6769 -0.2613 -1.6025
12924TIP3    H260188   3.621   5.701  12.945 -1.8861  0.5326  0.3513
12925TIP3   OH260189   4.130   5.109  17.248 -0.1899 -0.7207  0.7397
12925TIP3    H160190   4.097   5.022  17.268 -1.3649 -0.1427  1.3959
12925TIP3    H260191   4.137   5.153  17.333 -0.1310  0.0087  0.3681
12926TIP3   OH260192   5.408   1.795  12.579 -0.4740 -0.2386  0.1358
12926TIP3    H160193   5.384   1.742  12.503 -0.4924 -0.2529  0.1517
12926TIP3    H260194   5.451   1.733  12.638 -1.0224 -0.3675  0.4068
12927TIP3   OH260195   5.626   2.646  13.669 -0.1232  0.0168 -0.1167
12927TIP3    H160196   5.573   2.596  13.607  1.2733  0.7462 -1.9645
12927TIP3    H260197   5.567   2.716  13.699 -1.9876 -2.3082  2.2360
12928TIP3   OH260198   1.010   4.334  14.327 -0.5026  0.4779 -0.3819
12928TIP3    H160199   1.024   4.247  14.289 -2.5439 -0.1215  0.1296
12928TIP3    H260200   1.050   4.394  14.264  0.9440 -0.8121 -0.7456
12929TIP3   OH260201   4.357   6.199   3.833  0.7592  0.1399 -0.2455
12929TIP3    H160202   4.280   6.255   3.822  1.2856  0.4607 -3.4132
12929TIP3    H260203   4.321   6.113   3.854 -0.5098  0.3334 -1.4497
12930TIP3   OH260204   2.216   2.968  12.389  0.0100 -0.1368  0.3765
12930TIP3    H160205   2.270   3.045  12.371 -0.3172 -0.2649 -1.3502
12930TIP3    H260206   2.127   2.994  12.365  0.1686 -1.5677 -2.1691
12931TIP3   OH260207   1.548   2.945  15.625  0.6979  0.4295  0.0954
12931TIP3    H160208   1.464   2.922  15.585  1.2878 -0.7873 -0.4869
12931TIP3    H260209   1.526   2.964  15.717 -0.3439  1.1128 -0.2754
12932TIP3   OH260210   3.759   6.713   2.090 -0.0618  0.5913  0.1802
12932TIP3    H160211   3.682   6.655   2.094 -1.4101  2.3234  0.6710
12932TIP3    H260212   3.783   6.729   2.181  1.5730 -0.7380  0.0265
12933TIP3   OH260213   5.970   2.378   0.729 -0.0503 -0.1937 -0.4542
12933TIP3    H160214   6.000   2.325   0.802  1.2069  1.3146  0.1830
12933TIP3    H260215   5.949   2.315   0.660  2.0779 -1.4915  0.0020
12934TIP3   OH260216   0.737   5.650  13.181 -0.3541 -0.1789  0.0910
12934TIP3    H160217   0.740   5.657  13.276  2.2100 -1.0037  0.1521
12934TIP3    H260218   0.829   5.643  13.154 -0.9488  0.7181 -2.5163
12935TIP3   OH260219   0.045   0.190   5.928  0.3571 -0.1554 -0.1989
12935TIP3    H160220  -0.014   0.129   5.972 -0.8808  1.5626  0.6511
12935TIP3    H260221   0.082   0.243   5.999  0.6661  0.7109 -0.9805
12936TIP3   OH260222   2.097   2.403  11.821 -0.8804  0.0232 -0.3781
12936TIP3    H160223   2.157   2.389  11.893 -1.2864 -1.6665 -0.3414
12936TIP3    H260224   2.107   2.496  11.799  0.7202  0.0843  0.5049
12937TIP3   OH260225   5.969   3.243   3.728 -0.4382 -0.2713  0.0853
12937TIP3    H160226   6.026   3.309   3.688  0.6017 -1.1233  0.1002
12937TIP3    H260227   5.951   3.181   3.657  1.3644 -1.7627  0.8339
12938TIP3   OH260228   4.507   4.628  15.685  0.2305 -0.1444 -0.4015
12938TIP3    H160229   4.435   4.573  15.717 -0.9982  1.8860  0.5179
12938TIP3    H260230   4.476   4.662  15.601  0.7412 -0.3868 -0.6954
12939TIP3   OH260231   0.417   0.717  13.613 -0.3307 -0.1868 -0.1146
12939TIP3    H160232   0.377   0.669  13.685 -0.0562 -0.5638 -0.2129
12939TIP3    H260233   0.391   0.808  13.628 -0.2704 -0.2604  0.4629
12940TIP3   OH260234   1.986   1.275  11.188 -0.2609 -0.1192  0.3094
12940TIP3    H160235   1.997   1.333  11.263 -1.1189 -0.6669  0.8804
12940TIP3    H260236   1.992   1.331  11.112  1.7699  0.2967  0.7258
12941TIP3   OH260237   0.947   6.435  15.245 -0.2633  0.4656 -0.0153
12941TIP3    H160238   0.942   6.481  15.328 -1.1763 -0.5829  0.5309
12941TIP3    H260239   1.035   6.456  15.211 -1.1365  3.8063 -0.5525
12942TIP3   OH260240   0.760   5.766  15.466  0.3187 -0.0798 -0.0052
12942TIP3    H160241   0.847   5.778  15.504 -0.1313 -2.6439  2.1343
12942TIP3    H260242   0.777   5.734  15.378  1.5614 -0.7044  0.4368
12943TIP3   OH260243   6.276   5.228  15.039 -0.0176  0.0091 -0.0440
12943TIP3    H160244   6.359   5.217  14.993  0.5839  0.3248  0.9291
12943TIP3    H260245   6.223   5.153  15.013  0.8954 -0.6572  0.0000
12944TIP3   OH260246   1.900   1.169   6.044  0.6479 -0.3139  0.1995
12944TIP3    H160247   1.933   1.257   6.062  0.4406  0.0004 -0.8826
12944TIP3    H260248   1.877   1.170   5.951 -2.4890 -0.4924  0.8814
12945TIP3   OH260249   3.204   2.197   1.956 -0.1862 -0.0986 -0.0667
12945TIP3    H160250   3.197   2.186   2.051  0.3950 -0.0766 -0.0170
12945TIP3    H260251   3.248   2.282   1.945  2.2278 -1.3002 -0.2830
12946TIP3   OH260252   5.349   6.451  11.586 -0.1120 -0.4333  0.7436
12946TIP3    H160253   5.277   6.506  11.616 -2.3858 -2.3751 -0.8074
12946TIP3    H260254   5.387   6.415  11.666 -1.6191 -0.2498  1.5743
12947TIP3   OH260255   2.131   5.383  16.374  0.5112 -0.2046  0.6408
12947TIP3    H160256   2.219   5.408  16.404  0.9236 -0.0325 -0.6558
12947TIP3    H260257   2.088   5.465  16.355  1.4246 -0.2927 -2.3808
12948TIP3   OH260258   4.242   0.185  10.979 -0.3644 -0.5764 -0.2636
12948TIP3    H160259   4.200   0.219  10.900 -2.5861 -0.8763  0.6963
12948TIP3    H260260   4.171   0.179  11.043  1.2776 -0.6936  1.6613
12949TIP3   OH260261   0.716   3.630   2.122 -0.1336 -0.0899 -0.2144
12949TIP3    H160262   0.701   3.701   2.185 -1.1390 -1.2328  0.9063
12949TIP3    H260263   0.629   3.591   2.109  0.6005 -2.1316  0.4937
12950TIP3   OH260264   1.101   6.366  13.354  0.0025  0.0938 -0.1967
12950TIP3    H160265   1.093   6.275  13.329 -0.0462  0.3387 -1.0958
12950TIP3    H260266   1.118   6.364  13.449 -0.2186 -0.8252 -0.1738
12951TIP3   OH260267   0.933   1.668  15.578 -0.4486 -0.0435 -0.1477
12951TIP3    H160268   0.981   1.591  15.607 -1.5414 -0.3264  0.9970
12951TIP3    H260269   0.961   1.681  15.487 -1.1222 -2.5064 -0.7807
12952TIP3   OH260270   6.020   5.164  13.288 -0.0932 -0.5406  0.1719
12952TIP3    H160271   5.951   5.193  13.348 -2.9265 -0.5707 -2.8102
12952TIP3    H260272   6.059   5.245  13.255  1.9140 -0.5238  2.3324
12953TIP3   OH260273   4.177   4.208   3.167  0.0163  0.3106 -0.3234
12953TIP3    H160274   4.104   4.227   3.227  0.3253  0.9060 -0.1356
12953TIP3    H260275   4.229   4.288   3.166  1.4077 -0.5393  0.5811
12954TIP3   OH260276   2.217   2.196   0.347 -0.1867  0.1000  0.3415
12954TIP3    H160277   2.203   2.146   0.428  2.1105  0.4172  1.0206
12954TIP3    H260278   2.240   2.284   0.377  0.3923  0.2974 -0.6462
12955TIP3   OH260279   2.940   5.325   3.124  0.1852  0.0821 -0.4364
12955TIP3    H160280   3.027   5.344   3.160  0.5689  2.3665 -2.2834
12955TIP3    H260281   2.947   5.236   3.089  0.1100 -1.8309  3.8438
12956TIP3   OH260282   0.422   1.196  11.181  0.3600 -0.1855 -0.1835
12956TIP3    H160283   0.371   1.116  11.166  2.4334 -1.3319 -1.7282
12956TIP3    H260284   0.398   1.253  11.109  1.4385 -0.8777 -1.1344
12957TIP3   OH260285   2.409   1.906   1.396  0.2984 -0.2611 -0.6633
12957TIP3    H160286   2.479   1.852   1.434 -0.6302 -0.6191  0.6087
12957TIP3    H260287   2.348   1.842   1.358 -0.0701 -0.0333 -0.4580
12958TIP3   OH260288   1.890   6.159   3.135  0.4067  0.5314 -0.1267
12958TIP3    H160289   1.896   6.248   3.100  1.8992 -0.2207 -1.9857
12958TIP3    H260290   1.950   6.108   3.080 -1.4168 -1.9110  0.0026
12959TIP3   OH260291   5.639   0.563  14.272  0.2550 -0.1984  0.3432
12959TIP3    H160292   5.709   0.561  14.337 -1.6430  2.9309  2.7607
12959TIP3    H260293   5.562   0.528  14.318 -0.7517  0.5563 -0.6944
12960TIP3   OH260294   4.487   2.219   1.895  0.0971  0.0883 -0.0843
12960TIP3    H160295   4.499   2.313   1.898  1.5243 -0.0306 -1.4303
12960TIP3    H260296   4.437   2.199   1.975  0.4978  1.8504  0.6424
12961TIP3   OH260297   5.647   0.751   1.223 -0.3501 -0.8799  0.1155
12961TIP3    H160298   5.701   0.818   1.266  1.0682 -1.0763 -1.2635
12961TIP3    H260299   5.597   0.799   1.158 -1.8494 -0.7121  1.3403
12962TIP3   OH260300   3.985   1.430   3.203  0.6302 -0.7904  0.1890
12962TIP3    H160301   3.924   1.361   3.229  0.0516 -0.7534 -1.0468
12962TIP3    H260302   4.042   1.441   3.280  0.7654 -2.6655  0.3889
12963TIP3   OH260303   0.177   3.408   5.162  0.4939 -0.1440  0.0718
12963TIP3    H160304   0.151   3.374   5.247  0.8694 -0.7452 -0.0465
12963TIP3    H260305   0.182   3.331   5.106  2.6965 -0.1136  0.1312
12964TIP3   OH260306   4.463   3.795   3.255  0.2920  0.3580  0.3679
12964TIP3    H160307   4.536   3.815   3.314  0.5313  3.0848 -0.7111
12964TIP3    H260308   4.399   3.863   3.272 -1.2409 -0.9438  0.0070
12965TIP3   OH260309   2.597   1.625  15.125  0.1529 -0.6785  0.1575
12965TIP3    H160310   2.632   1.672  15.200  1.6346  1.8758 -1.9307
12965TIP3    H260311   2.505   1.653  15.119  0.0894 -0.7318  0.8793
12966TIP3   OH260312   4.524   3.192  13.201 -0.0956 -0.6820  0.2441
12966TIP3    H160313   4.592   3.151  13.256 -0.6014  0.1266  1.5272
12966TIP3    H260314   4.447   3.195  13.258 -0.8576 -0.4815 -0.7852
12967TIP3   OH260315   0.377   1.246  12.643 -0.0197  1.0838  0.0001
12967TIP3    H160316   0.337   1.256  12.557 -0.3782  0.1390  0.0469
12967TIP3    H260317   0.471   1.235  12.625 -0.2516 -0.5965 -0.4119
12968TIP3   OH260318   6.125   6.034  16.177  0.6727  0.1608  0.5015
12968TIP3    H160319   6.052   6.036  16.238  0.5039 -0.1391  0.3076
12968TIP3    H260320   6.195   5.989  16.225  0.4090 -0.4411  0.3308
12969TIP3   OH260321   5.228   1.635  11.289 -0.1390 -0.0234 -0.0398
12969TIP3    H160322   5.247   1.542  11.303  0.6117  0.1697  0.3055
12969TIP3    H260323   5.205   1.642  11.197  1.2445 -0.3444 -0.4322
12970TIP3   OH260324   5.692   4.177   4.062  0.0270  0.3130  0.1333
12970TIP3    H160325   5.611   4.152   4.019  1.2050 -1.0374 -1.4451
12970TIP3    H260326   5.737   4.232   3.998  0.6147  0.5268  0.7203
12971TIP3   OH260327   0.104   4.939   5.057  0.0665  0.2327  0.2278
12971TIP3    H160328   0.050   4.984   5.122  0.4019 -0.2288  0.8326
12971TIP3    H260329   0.143   5.010   5.005  0.1687  0.6218  0.8293
12972TIP3   OH260330   1.632   5.742   3.611 -0.3460 -0.1364 -0.3665
12972TIP3    H160331   1.615   5.805   3.541 -0.1862  1.1799  0.7328
12972TIP3    H260332   1.660   5.796   3.685  0.8027 -1.5914  0.3102
12973TIP3   OH260333   3.978   4.755   1.412 -0.1480 -0.1938  0.4938
12973TIP3    H160334   4.024   4.836   1.434 -0.0253  0.4835 -1.9767
12973TIP3    H260335   4.038   4.685   1.438  0.2054  0.5034  1.6455
12974TIP3   OH260336   2.563   4.202  15.745  0.2230 -0.4110 -0.4782
12974TIP3    H160337   2.497   4.197  15.814  0.3255 -1.2041 -0.4330
12974TIP3    H260338   2.632   4.258  15.782  1.4192 -2.7299  1.0583
12975TIP3   OH260339   1.995   0.968  12.134  0.3518  0.0185  0.1587
12975TIP3    H160340   2.005   1.064  12.135  1.7453 -0.0911 -0.1287
12975TIP3    H260341   1.995   0.946  12.041  0.3103 -0.2851  0.2320
12976TIP3   OH260342   5.690   1.952   3.775 -0.4710  1.0368 -0.2738
12976TIP3    H160343   5.674   1.868   3.819  0.0576  0.5198 -1.0418
12976TIP3    H260344   5.759   1.994   3.826 -1.3260  1.3962  0.6100
12977TIP3   OH260345   5.881   0.816   5.066 -0.2482  0.2892 -0.2161
12977TIP3    H160346   5.827   0.832   5.144 -0.2017  1.7676 -0.4769
12977TIP3    H260347   5.867   0.723   5.047 -0.9010  0.1023  1.0705
12978TIP3   OH260348   2.076   4.688  14.122  0.0352  0.0685  0.0291
12978TIP3    H160349   2.081   4.778  14.154 -1.0928  0.2233 -0.1894
12978TIP3    H260350   2.089   4.634  14.200 -0.3258  0.4275  0.3365
12979TIP3   OH260351   2.165   0.853   5.072  0.1365  0.4549  0.7195
12979TIP3    H160352   2.255   0.885   5.081 -0.0139  1.3847 -0.7596
12979TIP3    H260353   2.174   0.771   5.023  0.1728  0.7881  0.1478
12980TIP3   OH260354   3.900   6.401   3.985 -0.6165  0.3588 -0.4831
12980TIP3    H160355   3.828   6.402   4.048 -1.3368 -1.6432 -1.1750
12980TIP3    H260356   3.942   6.316   3.999  1.6701  1.4883 -0.0863
12981TIP3   OH260357   2.556   4.456   2.491 -0.7980  0.4352 -0.0734
12981TIP3    H160358   2.606   4.537   2.494  1.6782 -0.8763 -2.1225
12981TIP3    H260359   2.552   4.427   2.583  0.6889  1.4822  0.3521
12982TIP3   OH260360   0.094   0.049  13.964 -0.2401 -0.0004 -0.5012
12982TIP3    H160361   0.116  -0.034  13.923  0.6348  0.7048 -1.5394
12982TIP3    H260362   0.152   0.113  13.921  0.8781  0.7684  1.9757
12983TIP3   OH260363   4.215   4.000  14.012 -0.2050  0.0302  0.0036
12983TIP3    H160364   4.308   3.983  13.995 -0.3637  0.2094 -1.1757
12983TIP3    H260365   4.191   3.938  14.081  0.1515 -1.9548 -1.5507
12984TIP3   OH260366   1.747   4.178  14.429  0.0165 -0.0616  0.5789
12984TIP3    H160367   1.841   4.170  14.414 -0.1032  1.5944 -1.4828
12984TIP3    H260368   1.713   4.090  14.416  1.2884 -0.7932  1.8366
12985TIP3   OH260369   6.492   6.352  16.600 -0.2661  0.1111 -0.2084
12985TIP3    H160370   6.527   6.293  16.668 -0.6573 -0.8479 -0.8179
12985TIP3    H260371   6.406   6.316  16.580 -0.2730  0.5629 -1.0092
12986TIP3   OH260372   3.436   4.787   4.538 -0.2815 -0.7613  0.3057
12986TIP3    H160373   3.503   4.750   4.479 -0.5092 -1.1229  0.2759
12986TIP3    H260374   3.364   4.810   4.480 -0.2910 -0.6211  0.3744
12987TIP3   OH260375   1.320   0.867  15.899 -0.2327  0.0126  0.1693
12987TIP3    H160376   1.225   0.851  15.900 -0.1845 -0.2308  1.1499
12987TIP3    H260377   1.331   0.949  15.947 -0.0255  0.5901 -0.8225
12988TIP3   OH260378   3.425   5.917  16.661 -0.0053 -0.6773  0.3808
12988TIP3    H160379   3.332   5.896  16.657  0.2863 -2.0047  0.0961
12988TIP3    H260380   3.465   5.863  16.593  1.0634 -0.6541  0.9606
12989TIP3   OH260381   4.676   1.196   0.775 -0.3754 -0.1031 -0.5098
12989TIP3    H160382   4.655   1.239   0.691  1.2621 -0.8279 -1.3406
12989TIP3    H260383   4.762   1.233   0.799 -0.0513 -1.1511 -0.0214
12990TIP3   OH260384   2.370   3.970   6.552  0.1882 -0.2027  0.1576
12990TIP3    H160385   2.377   3.889   6.601  0.4745 -0.1123  0.2684
12990TIP3    H260386   2.418   4.034   6.605 -1.6264  0.4916  1.0274
12991TIP3   OH260387   2.924   4.059  16.690 -0.7473 -0.3515  0.1938
12991TIP3    H160388   2.911   4.151  16.712  0.7006  0.2658 -1.3477
12991TIP3    H260389   2.917   4.013  16.774  0.1606  1.3518  1.2584
12992TIP3   OH260390   4.965   5.219   0.289 -0.1029  0.5921 -0.4332
12992TIP3    H160391   4.946   5.210   0.382  0.2622  0.4412 -0.3744
12992TIP3    H260392   4.879   5.222   0.248 -0.2688  0.9206 -0.0673
12993TIP3   OH260393   5.637   2.620  16.655 -0.6890  0.4271  0.2750
12993TIP3    H160394   5.615   2.689  16.717 -0.5614  0.3979  0.3544
12993TIP3    H260395   5.575   2.631  16.583 -0.2678  1.0191 -0.0077
12994TIP3   OH260396   1.077   1.785   3.598 -0.0124 -0.0005  1.0975
12994TIP3    H160397   1.010   1.746   3.542 -0.0281  1.8478 -0.2914
12994TIP3    H260398   1.029   1.838   3.661  0.0838  0.7917  0.5256
12995TIP3   OH260399   5.821   2.146   0.679 -0.3210  0.6130  0.5657
12995TIP3    H160400   5.843   2.091   0.755 -0.2746  0.2093  0.2675
12995TIP3    H260401   5.839   2.090   0.604 -1.8564  0.4486  0.2858
12996TIP3   OH260402   3.092   0.908  14.285  0.1100  0.6066 -0.8130
12996TIP3    H160403   3.017   0.857  14.316  0.4706  1.1414  1.0747
12996TIP3    H260404   3.116   0.867  14.202 -1.0564 -0.8020 -0.5049
12997TIP3   OH260405   6.122   2.755  16.433  0.0864 -0.0612 -0.5646
12997TIP3    H160406   6.176   2.730  16.359 -0.7824  1.5264 -1.8102
12997TIP3    H260407   6.032   2.742  16.402 -0.3003  1.1075 -0.0096
12998TIP3   OH260408   5.429   3.011  14.563  0.2768  0.0660 -0.3281
12998TIP3    H160409   5.358   3.074  14.575  1.4446  1.2475  0.8332
12998TIP3    H260410   5.406   2.939  14.621  0.1256  0.5525  0.2349
12999TIP3   OH260411   5.063   2.491  13.813 -0.3983  0.0276 -0.3483
12999TIP3    H160412   5.151   2.515  13.843 -1.0122 -0.7141  2.3785
12999TIP3    H260413   5.019   2.574  13.798 -0.0321  0.4769  0.9543
13000TIP3   OH260414   3.901   2.461   3.338  0.1266 -0.0883 -0.3861
13000TIP3    H160415   3.935   2.512   3.412 -2.3160 -1.0670  1.5789
13000TIP3    H260416   3.902   2.371   3.368  0.6122 -0.7503 -2.2494
13001TIP3   OH260417   0.860   4.615  11.351 -0.2216 -0.0014 -0.0235
13001TIP3    H160418   0.895   4.676  11.416 -0.4730  0.5660 -0.4149
13001TIP3    H260419   0.884   4.654  11.267 -0.1304 -0.5946 -0.2761
13002TIP3   OH260420   6.094   0.185   0.641  0.9870 -0.1637  0.2811
13002TIP3    H160421   6.147   0.250   0.595  1.1234 -0.5085 -0.0453
13002TIP3    H260422   6.022   0.166   0.582 -0.1866  1.1772  1.1899
13003TIP3   OH260423   0.736   6.689  13.275 -0.8024  0.0222  0.2786
13003TIP3    H160424   0.703   6.618  13.329 -1.2763  0.2114  0.2415
13003TIP3    H260425   0.828   6.668  13.261 -0.0957  0.9860  2.8594
13004TIP3   OH260426   4.566   4.382  13.889 -0.4919  0.8619  0.4317
13004TIP3    H160427   4.594   4.474  13.891  1.3156  0.4910 -2.0150
13004TIP3    H260428   4.472   4.384  13.903 -0.7145  3.2742 -0.9030
13005TIP3   OH260429   6.099   5.315   1.804  0.4424 -0.3042 -0.3023
13005TIP3    H160430   6.169   5.268   1.759 -0.5370 -0.9467 -1.2193
13005TIP3    H260431   6.024   5.310   1.744 -0.8418 -0.9521  1.2587
13006TIP3   OH260432   3.461   5.710  17.405  0.5683  0.1709  0.1980
13006TIP3    H160433   3.395   5.761  17.359 -0.0242 -1.1314 -0.4402
13006TIP3    H260434   3.512   5.667  17.336  2.0624  1.0713  0.6759
13007TIP3   OH260435   6.061   0.653   0.194 -0.6106 -0.0660 -0.2197
13007TIP3    H160436   6.079   0.563   0.222 -0.2269  0.6269  1.9275
13007TIP3    H260437   6.087   0.654   0.101 -4.1836 -3.1066 -1.5015
13008TIP3   OH260438   4.057   5.249   3.902 -0.2133  0.2807  0.0345
13008TIP3    H160439   4.008   5.216   3.978  0.0684  1.3172  0.7003
13008TIP3    H260440   4.004   5.224   3.826  0.2743 -2.1461  0.4341
13009TIP3   OH260441   2.209   2.672  14.329 -0.3335 -0.1856 -0.3160
13009TIP3    H160442   2.132   2.633  14.287 -0.4537 -0.3007  0.0039
13009TIP3    H260443   2.176   2.751  14.371 -0.6225 -1.0283  1.1374
13010TIP3   OH260444   6.400   4.531   3.487  0.2754  0.3889  0.6396
13010TIP3    H160445   6.323   4.501   3.440  0.5726  1.0704 -0.3232
13010TIP3    H260446   6.382   4.511   3.579 -0.3543 -0.8866  0.2520
13011TIP3   OH260447   1.107   1.820   1.454  0.0420  0.4808  0.2730
13011TIP3    H160448   1.135   1.776   1.373 -1.0125 -1.7703  1.0502
13011TIP3    H260449   1.178   1.803   1.516 -0.2905 -0.0214  0.5244
13012TIP3   OH260450   6.257   2.716  11.943  0.2915  0.6904  0.0251
13012TIP3    H160451   6.247   2.727  11.849 -1.7546 -0.4017  0.0442
13012TIP3    H260452   6.319   2.783  11.969  0.7110  1.1813 -2.0562
13013TIP3   OH260453   0.112   5.491  11.278  0.3099  0.3369  0.0945
13013TIP3    H160454   0.189   5.487  11.222  0.1071  0.2222 -0.1777
13013TIP3    H260455   0.050   5.429  11.239 -0.6742  1.8200 -0.8441
13014TIP3   OH260456   2.180   0.622  13.126 -0.2243  0.3924 -0.3088
13014TIP3    H160457   2.244   0.633  13.056 -0.8046  1.9895 -0.6332
13014TIP3    H260458   2.107   0.680  13.102 -1.4798 -0.8133  0.4231
13015TIP3   OH260459   0.605   4.770   1.582 -0.3836 -0.1235 -0.8022
13015TIP3    H160460   0.539   4.732   1.524 -0.8184  0.1833 -0.5096
13015TIP3    H260461   0.669   4.809   1.522  0.2813 -1.6376 -1.1165
13016TIP3   OH260462   3.715   2.748   3.801  0.7035 -0.1308 -0.0885
13016TIP3    H160463   3.784   2.811   3.783  0.4749 -0.0221 -0.5981
13016TIP3    H260464   3.706   2.698   3.720  1.3275 -1.2523  0.5177
13017TIP3   OH260465   1.698   0.105   4.561 -0.5571  0.1575 -0.1559
13017TIP3    H160466   1.626   0.167   4.563 -2.7295 -2.1610  1.6911
13017TIP3    H260467   1.711   0.080   4.653  0.0251 -2.2077 -0.7867
13018TIP3   OH260468   5.805   6.291   0.980  0.2238  0.3907  0.6897
13018TIP3    H160469   5.892   6.330   0.985  0.2115  0.4163  0.7036
13018TIP3    H260470   5.788   6.283   0.886  1.0200 -1.3518  0.6637
13019TIP3   OH260471   5.215   1.165  12.454 -0.1953 -0.1484  0.2347
13019TIP3    H160472   5.180   1.253  12.437  0.1871 -0.3161 -1.6070
13019TIP3    H260473   5.281   1.179  12.522 -0.3460  0.9546  0.1729
13020TIP3   OH260474   5.527   3.697   3.290 -0.1586  0.2787 -0.4902
13020TIP3    H160475   5.547   3.779   3.336 -3.2486  1.0465 -0.2916
13020TIP3    H260476   5.551   3.714   3.199 -1.5227  1.7615 -0.6071
13021TIP3   OH260477   4.062   6.285  15.154 -0.0443  0.3308 -0.6375
13021TIP3    H160478   4.055   6.378  15.176  0.5494  0.4068 -0.7532
13021TIP3    H260479   3.987   6.268  15.097 -0.9354  0.4103  0.4549
13022TIP3   OH260480   0.983   1.614   1.909  0.0870 -0.5473  0.0569
13022TIP3    H160481   1.036   1.624   1.988 -0.7952  0.8650  0.5067
13022TIP3    H260482   1.045   1.589   1.841  1.4447  1.4631  0.4690
13023TIP3   OH260483   5.844   1.047   4.900  0.7374 -0.2205 -0.4668
13023TIP3    H160484   5.873   1.125   4.949  1.3326 -0.6190 -0.1786
13023TIP3    H260485   5.848   0.976   4.964 -4.5713  0.2403  0.8890
13024TIP3   OH260486   5.076   2.958   3.820  0.2022  0.7391  0.3209
13024TIP3    H160487   5.133   3.028   3.854 -0.2275  0.7270  1.1071
13024TIP3    H260488   5.010   2.946   3.889 -0.0615 -0.0547 -0.0605
13025TIP3   OH260489   5.604   4.986  15.002  0.4389  0.2278 -0.1879
13025TIP3    H160490   5.647   5.068  14.977  3.6325 -0.3895  2.6075
13025TIP3    H260491   5.592   4.993  15.097 -2.1295 -1.3518 -0.2946
13026TIP3   OH260492   0.849   4.456   0.172  0.2102  0.0788  0.2597
13026TIP3    H160493   0.903   4.525   0.133 -0.4611  1.8845  2.2858
13026TIP3    H260494   0.759   4.483   0.155 -0.0682 -0.5504  0.6892
13027TIP3   OH260495   5.847   2.967  11.613 -0.1245  0.1610  0.3285
13027TIP3    H160496   5.821   3.059  11.615 -0.0874  0.1593  1.5148
13027TIP3    H260497   5.789   2.924  11.676 -0.8437 -0.8430 -0.9588
13028TIP3   OH260498   3.547   6.152  16.064 -0.1998 -0.3291 -0.2311
13028TIP3    H160499   3.468   6.137  16.013  0.8708  0.1531 -2.1230
13028TIP3    H260500   3.524   6.225  16.122 -2.0922 -2.2091  1.5994
13029TIP3   OH260501   0.330   6.565   3.474 -0.2996  0.4186 -0.2240
13029TIP3    H160502   0.300   6.477   3.454  0.3416  0.2233 -0.3327
13029TIP3    H260503   0.286   6.621   3.409 -0.0819  0.0846 -0.6593
13030TIP3   OH260504   5.325   2.467  16.257 -0.1517  0.7302  0.4489
13030TIP3    H160505   5.252   2.526  16.271 -0.5786 -0.2100  2.6604
13030TIP3    H260506   5.288   2.379  16.266  1.1797  0.2245  1.5129
13031TIP3   OH260507   0.627   6.189   5.417  0.5385  0.1935 -0.1591
13031TIP3    H160508   0.581   6.196   5.333 -1.5298  0.3903  0.9361
13031TIP3    H260509   0.577   6.243   5.477  1.6367 -0.4022  1.3657
13032TIP3   OH260510   3.710   2.194  14.308 -0.3055 -0.1379  0.1879
13032TIP3    H160511   3.784   2.139  14.282 -0.3321  0.3151 -0.9099
13032TIP3    H260512   3.646   2.182  14.238 -0.0819  1.6909 -0.4041
13033TIP3   OH260513   0.649   1.917   1.606  0.0511  0.1521 -0.0527
13033TIP3    H160514   0.605   1.990   1.562 -0.2244  0.2901  0.4495
13033TIP3    H260515   0.740   1.945   1.614 -0.3178  1.0433  1.3797
13034TIP3   OH260516   3.466   6.208  16.931 -0.1306  0.4526  0.5413
13034TIP3    H160517   3.399   6.277  16.933  0.9562  1.5373  2.2097
13034TIP3    H260518   3.416   6.127  16.927 -1.5077  1.2704  0.2415
13035TIP3   OH260519   4.534   3.725   4.728 -0.1164 -0.6021  0.1940
13035TIP3    H160520   4.455   3.779   4.721 -0.8477 -1.8829 -2.7268
13035TIP3    H260521   4.565   3.741   4.817 -0.4270  4.3259 -0.3147
13036TIP3   OH260522   5.379   2.371  11.448  0.2941 -0.1532 -0.4715
13036TIP3    H160523   5.412   2.286  11.419  0.5990  0.0680 -0.8008
13036TIP3    H260524   5.428   2.390  11.528 -0.7926 -0.9187  0.4008
13037TIP3   OH260525   4.083   0.769   0.405 -0.3564 -0.4441 -0.1600
13037TIP3    H160526   4.164   0.735   0.365  1.7788  0.6332  2.8850
13037TIP3    H260527   4.058   0.843   0.350  0.5661 -0.9513 -1.3074
13038TIP3   OH260528   1.399   4.532   0.468  0.0086  0.9789 -0.1895
13038TIP3    H160529   1.427   4.617   0.433  0.2446  0.7296 -0.6103
13038TIP3    H260530   1.421   4.469   0.399  0.0504  0.5442  0.2190
13039TIP3   OH260531   6.034   5.944   2.755  0.2199  0.0915  0.1409
13039TIP3    H160532   6.128   5.959   2.766  0.1881 -0.3333  1.0667
13039TIP3    H260533   6.029   5.868   2.697  0.4329  0.3049 -0.1663
13040TIP3   OH260534   5.088   4.720  16.039  0.6336 -0.5929 -0.0592
13040TIP3    H160535   5.131   4.806  16.041 -0.0433 -0.2603  0.8491
13040TIP3    H260536   5.158   4.659  16.017  0.8861  0.3226 -1.9906
13041TIP3   OH260537   3.077   6.076  15.345 -0.6467  0.0617 -0.3522
13041TIP3    H160538   3.047   6.164  15.325 -0.0017  0.5298  0.6605
13041TIP3    H260539   3.023   6.019  15.290  0.5748  1.2085 -2.8685
13042TIP3   OH260540   6.646   2.596  14.841 -0.0682 -0.0372 -0.0860
13042TIP3    H160541   6.637   2.550  14.757 -1.8311  0.0718  0.0041
13042TIP3    H260542   6.614   2.684  14.823 -0.7301 -0.0915  0.7429
13043TIP3   OH260543   4.344   6.704  16.347 -0.0657  0.3040 -0.0525
13043TIP3    H160544   4.404   6.689  16.274  0.9988 -0.5394  0.9588
13043TIP3    H260545   4.267   6.649  16.325  1.1202 -1.6600  0.4402
13044TIP3   OH260546   6.452   3.951  14.567 -0.0472  0.3235 -0.2533
13044TIP3    H160547   6.429   3.860  14.546 -0.1666  1.0071 -3.8360
13044TIP3    H260548   6.382   3.980  14.625 -0.8666 -1.4275 -0.2722
13045TIP3   OH260549   5.761   2.450  16.386 -0.0033  0.3112  0.4551
13045TIP3    H160550   5.690   2.412  16.438 -2.0688 -0.7949 -2.8694
13045TIP3    H260551   5.840   2.407  16.417 -1.3824 -1.6059  1.4760
13046TIP3   OH260552   6.163   1.010   5.723  0.2893 -0.0081  0.1595
13046TIP3    H160553   6.250   1.050   5.720 -0.0422  0.8810  1.5637
13046TIP3    H260554   6.130   1.032   5.810 -1.0720 -0.9182 -0.1064
13047TIP3   OH260555   5.190   5.556   3.706 -0.0023 -0.0824 -0.5878
13047TIP3    H160556   5.197   5.495   3.632 -1.7148  0.6896 -1.4398
13047TIP3    H260557   5.272   5.545   3.754  0.8104 -1.1953 -2.1481
13048TIP3   OH260558   6.521   5.410   4.072  0.3256 -0.3121 -0.0231
13048TIP3    H160559   6.468   5.337   4.105 -0.2924 -0.5663 -1.4984
13048TIP3    H260560   6.609   5.392   4.104  0.3785 -2.2400 -1.1168
13049TIP3   OH260561   5.638   4.949   1.558 -0.0519  0.0728  0.7495
13049TIP3    H160562   5.547   4.923   1.572  0.1789 -1.1333  0.0954
13049TIP3    H260563   5.682   4.927   1.640 -0.5354  1.6246  1.4551
13050TIP3   OH260564   0.686   2.585  12.677  0.2526 -0.2294 -0.1237
13050TIP3    H160565   0.749   2.610  12.609  1.3731 -0.7697  0.6944
13050TIP3    H260566   0.702   2.492  12.691  0.6780  0.0820  1.5525
13051TIP3   OH260567   5.572   2.692  17.243 -0.4879  0.0618  0.4104
13051TIP3    H160568   5.484   2.655  17.237 -0.4533  0.1659 -0.8134
13051TIP3    H260569   5.561   2.769  17.298 -1.2013  0.1908  0.1008
13052TIP3   OH260570   1.152   3.838   1.993  0.3456  0.4977 -0.1764
13052TIP3    H160571   1.114   3.901   2.054  0.8436  0.6909 -0.0630
13052TIP3    H260572   1.090   3.835   1.920 -0.1446  0.4222  0.2370
13053TIP3   OH260573   4.997   3.831  17.046  0.4309 -0.0191 -0.2149
13053TIP3    H160574   5.073   3.789  17.007  0.3128 -1.5649  1.0939
13053TIP3    H260575   5.033   3.904  17.096  1.0145 -0.5060  0.0870
13054TIP3   OH260576   4.240   2.480   1.850 -0.1984 -0.7269 -0.2084
13054TIP3    H160577   4.332   2.476   1.824  0.1082 -0.3760  0.7888
13054TIP3    H260578   4.239   2.449   1.940 -0.7720  0.9842  0.4085
13055TIP3   OH260579   4.226   1.288   0.346  0.0683 -0.4152  0.2648
13055TIP3    H160580   4.131   1.298   0.358  0.0993  2.0995 -1.0781
13055TIP3    H260581   4.262   1.372   0.372  1.8841 -1.0627 -0.0369
13056TIP3   OH260582   5.926   2.049   1.769 -0.5366  0.4527  0.1777
13056TIP3    H160583   5.992   2.013   1.829 -0.5022  1.1707  0.5815
13056TIP3    H260584   5.859   1.981   1.764  0.2366 -0.3033 -0.2579
13057TIP3   OH260585   4.885   2.067   2.735 -0.5628  0.2694 -0.8503
13057TIP3    H160586   4.791   2.052   2.722 -0.5902 -0.1884 -0.1971
13057TIP3    H260587   4.899   2.048   2.828  0.3231 -0.4814 -1.1235
13058TIP3   OH260588   1.465   3.404  13.303  0.5787  0.2713  0.1021
13058TIP3    H160589   1.520   3.429  13.378  0.2740 -0.9913  0.7677
13058TIP3    H260590   1.438   3.487  13.265 -1.4238  1.0606  2.9617
13059TIP3   OH260591   2.718   2.923   3.920 -0.2667 -0.4461 -0.0638
13059TIP3    H160592   2.728   3.010   3.959  0.9535  0.6859 -2.6566
13059TIP3    H260593   2.772   2.866   3.975  1.0157  0.9705  0.2292
13060TIP3   OH260594   3.539   0.624  16.129 -0.0156 -0.2886 -0.3957
13060TIP3    H160595   3.534   0.672  16.212 -2.6830 -0.9254 -0.0858
13060TIP3    H260596   3.461   0.570  16.129 -0.8467  0.6791 -3.9281
13061TIP3   OH260597   4.187   5.003  12.704 -0.0255 -0.0272  0.1906
13061TIP3    H160598   4.148   5.038  12.624 -1.1781 -0.3626  0.5777
13061TIP3    H260599   4.279   4.988  12.682  0.0851  1.4934 -0.5403
13062TIP3   OH260600   4.998   1.768  11.895 -0.2132 -0.5416  0.0510
13062TIP3    H160601   5.047   1.839  11.936 -0.0244 -0.9185  0.4877
13062TIP3    H260602   4.961   1.718  11.968 -0.9997 -0.4453 -0.2638
13063TIP3   OH260603   6.314   0.683  14.365 -0.2437 -0.2773 -0.8990
13063TIP3    H160604   6.335   0.739  14.290  1.6453  2.5067  1.4901
13063TIP3    H260605   6.258   0.737  14.420  0.5596 -1.2302  0.9304
13064TIP3   OH260606   3.747   4.159  11.890 -0.0432  0.2792 -0.2523
13064TIP3    H160607   3.698   4.229  11.845  0.0176  1.0712  0.8664
13064TIP3    H260608   3.688   4.084  11.887 -0.0831  0.3306 -1.5480
13065TIP3   OH260609   2.441   3.999   4.060  0.1230  0.8170  0.3329
13065TIP3    H160610   2.345   4.002   4.063  0.0474  1.3427 -1.3325
13065TIP3    H260611   2.462   3.905   4.059 -0.3409  0.6954  1.0678
13066TIP3   OH260612   2.182   0.199   5.285 -0.4917  0.0405  0.2645
13066TIP3    H160613   2.140   0.113   5.295 -0.5495  0.1108  0.6673
13066TIP3    H260614   2.259   0.193   5.342  1.2170 -0.8204 -2.0107
13067TIP3   OH260615   5.435   4.996  16.913 -0.2994  0.5534 -0.8240
13067TIP3    H160616   5.465   5.086  16.900 -1.7707  0.9784 -1.4274
13067TIP3    H260617   5.406   4.994  17.004  4.2065 -0.7241  0.8923
13068TIP3   OH260618   4.833   5.391  13.106 -0.4817 -0.5466  0.4470
13068TIP3    H160619   4.857   5.299  13.089 -0.1531 -0.8476  2.3516
13068TIP3    H260620   4.777   5.387  13.184  0.1964  0.9463  1.0447
13069TIP3   OH260621   3.401   4.889  16.310 -0.9717 -0.2660 -0.1616
13069TIP3    H160622   3.360   4.924  16.389  1.3055  0.9623  0.5705
13069TIP3    H260623   3.465   4.956  16.285  0.3525 -1.9124 -1.3837
13070TIP3   OH260624   1.673   2.243   5.455 -0.4208 -0.7115  0.2787
13070TIP3    H160625   1.741   2.242   5.387 -2.4442 -0.0590 -1.8745
13070TIP3    H260626   1.699   2.314   5.514  0.0301  0.5163 -1.3272
13071TIP3   OH260627   5.290   3.773  15.923  0.3781  0.2696 -0.2110
13071TIP3    H160628   5.368   3.828  15.915 -1.3046  2.8540 -0.0232
13071TIP3    H260629   5.245   3.804  16.001  0.1264 -2.5895  0.9187
13072TIP3   OH260630   0.302   0.804   2.350 -0.0305 -0.0096  1.3354
13072TIP3    H160631   0.330   0.894   2.368  0.1282 -0.0810  1.4434
13072TIP3    H260632   0.221   0.794   2.400 -0.8245  0.5408  0.2056
13073TIP3   OH260633   3.657   4.082  16.270 -0.1920  0.1883  0.6093
13073TIP3    H160634   3.701   4.096  16.353 -0.0600  0.2105  0.5345
13073TIP3    H260635   3.714   4.121  16.204 -1.1439  1.7731  0.6822
13074TIP3   OH260636   4.520   3.016   1.372  0.0410  0.0735 -0.4765
13074TIP3    H160637   4.424   3.019   1.378  0.0796  1.5100  0.0185
13074TIP3    H260638   4.539   2.938   1.321 -1.3391 -1.0296  0.6215
13075TIP3   OH260639   3.379   0.866  14.317  0.1733 -1.0649  0.2086
13075TIP3    H160640   3.332   0.793  14.278 -0.3671 -1.2474  1.1771
13075TIP3    H260641   3.424   0.829  14.393  0.6634 -0.5801  0.1679
13076TIP3   OH260642   1.948   2.258   4.840  0.4952  0.6280 -0.6497
13076TIP3    H160643   1.970   2.245   4.932  0.7289  0.7784 -0.6863
13076TIP3    H260644   1.911   2.346   4.836 -2.2605 -0.4023 -0.1781
13077TIP3   OH260645   4.448   5.103   2.005 -0.3640 -0.3212  0.0059
13077TIP3    H160646   4.353   5.114   2.014 -0.0892  1.4579  1.3684
13077TIP3    H260647   4.482   5.193   2.003  1.3888 -0.9203  1.0115
13078TIP3   OH260648   1.343   4.366  14.210 -0.2953 -0.5494 -0.0700
13078TIP3    H160649   1.290   4.317  14.148 -0.4014  0.5611 -0.8756
13078TIP3    H260650   1.350   4.454  14.172  2.2431 -0.6923 -0.0866
13079TIP3   OH260651   1.516   1.549  15.807  0.6200 -0.2998 -0.1332
13079TIP3    H160652   1.533   1.456  15.797 -0.4081 -0.5813  0.5425
13079TIP3    H260653   1.426   1.554  15.841 -0.0221  1.0044 -1.8814
13080TIP3   OH260654   0.280   3.014   1.772  0.2596 -0.3711 -0.6983
13080TIP3    H160655   0.356   3.005   1.714  0.0559 -0.6750 -0.9175
13080TIP3    H260656   0.246   3.101   1.753  0.2634 -0.4253 -0.9488
13081TIP3   OH260657   1.567   6.661   6.297 -0.2726  0.3346 -0.5688
13081TIP3    H160658   1.545   6.596   6.364 -0.0131  0.6336 -0.1909
13081TIP3    H260659   1.632   6.618   6.242  0.6678  0.6309  0.2859
13082TIP3   OH260660   0.534   2.397   2.199 -0.0153  0.1998  0.2389
13082TIP3    H160661   0.439   2.411   2.195  0.1947  1.4491 -1.0724
13082TIP3    H260662   0.570   2.480   2.227  0.9633  1.3278 -3.6998
13083TIP3   OH260663   3.711   5.850  13.896 -0.1567  0.3130 -0.3216
13083TIP3    H160664   3.773   5.921  13.913  0.9758 -0.9888  1.3556
13083TIP3    H260665   3.625   5.893  13.894  0.3535  1.5967  1.8798
13084TIP3   OH260666   2.484   1.557   4.864  0.4081  0.6950  0.2035
13084TIP3    H160667   2.544   1.565   4.938  0.0716 -0.6662  0.6702
13084TIP3    H260668   2.410   1.612   4.887 -1.2960 -2.2850  2.6417
13085TIP3   OH260669   4.099   3.786  14.173 -0.4572 -0.0690 -0.3700
13085TIP3    H160670   4.153   3.713  14.203  1.2556  1.5261  0.6530
13085TIP3    H260671   4.060   3.755  14.091  1.4062 -1.5960 -0.7508
13086TIP3   OH260672   2.870   0.712  15.145  0.1201 -0.4006  0.0205
13086TIP3    H160673   2.842   0.793  15.104  0.4362 -0.0023  0.5746
13086TIP3    H260674   2.907   0.739  15.229 -0.0898 -1.1464  0.3699
13087TIP3   OH260675   3.153   3.715  10.223 -0.1378 -0.5108  0.4954
13087TIP3    H160676   3.104   3.754  10.150  1.5211  0.9678  0.1070
13087TIP3    H260677   3.085   3.680  10.281 -1.5240 -2.4892 -2.1020
13088TIP3   OH260678   5.665   1.637   1.155  0.1501  0.4561 -0.3644
13088TIP3    H160679   5.609   1.712   1.134 -0.6334  0.0923  0.3501
13088TIP3    H260680   5.620   1.562   1.115  0.7474  0.3109 -0.7792
13089TIP3   OH260681   3.058   5.747   0.043  0.3485  0.4503  0.5707
13089TIP3    H160682   3.118   5.810   0.004  2.0459 -0.0291  2.2629
13089TIP3    H260683   3.036   5.785   0.128  0.2754 -0.5853  1.0238
13090TIP3   OH260684   3.117   3.439  10.914 -0.4870  0.0344  0.1758
13090TIP3    H160685   3.029   3.417  10.883 -0.3271 -1.4493  0.6599
13090TIP3    H260686   3.168   3.453  10.834 -1.0462  0.4319 -0.1188
13091TIP3   OH260687   0.322   1.402   2.631  0.8535  0.3952 -0.0978
13091TIP3    H160688   0.302   1.390   2.538  0.7242  1.0577 -0.1591
13091TIP3    H260689   0.411   1.440   2.632  1.8123 -1.7128  0.1410
13092TIP3   OH260690   3.820   3.019   4.562 -0.6210  0.1433  0.1326
13092TIP3    H160691   3.843   2.955   4.629 -0.5811  0.8858  0.8426
13092TIP3    H260692   3.890   3.012   4.497 -1.1387 -1.2230 -0.3054
13093TIP3   OH260693   4.271   4.779   6.236  0.8099  0.1485  0.5134
13093TIP3    H160694   4.272   4.868   6.273  0.4483  0.1558  0.5165
13093TIP3    H260695   4.181   4.749   6.251  0.0526  0.8506 -2.0315
13094TIP3   OH260696   5.520   0.580   3.088  0.1045 -0.4643 -0.1327
13094TIP3    H160697   5.575   0.534   3.151 -0.0499  0.0739  0.4122
13094TIP3    H260698   5.472   0.511   3.042 -0.9124 -0.8197  1.3926
13095TIP3   OH260699   1.838   0.469   0.403 -0.4377 -0.7365 -0.6098
13095TIP3    H160700   1.802   0.444   0.318  1.1168  0.7109 -1.7581
13095TIP3    H260701   1.863   0.385   0.443 -1.0613 -1.4359 -1.6109
13096TIP3   OH260702   4.710   0.827  11.544  0.4157 -0.2376 -0.6559
13096TIP3    H160703   4.771   0.853  11.612  1.6370  1.3327 -2.2718
13096TIP3    H260704   4.736   0.877  11.467 -1.2270 -1.5530 -2.1654
13097TIP3   OH260705   6.633   4.582   2.197  0.5038  0.4843  0.3482
13097TIP3    H160706   6.711   4.532   2.221  0.3776  0.8344  1.5511
13097TIP3    H260707   6.560   4.523   2.216  0.4540 -0.0974 -1.3972
13098TIP3   OH260708   1.993   0.857  11.423 -0.0652 -0.3542 -0.1657
13098TIP3    H160709   2.034   0.853  11.336  0.5446  1.2524  0.0071
13098TIP3    H260710   2.042   0.794  11.475  0.4209 -0.4088 -0.6745
13099TIP3   OH260711   2.482   5.519   1.010  0.1735 -0.0778  0.2129
13099TIP3    H160712   2.389   5.541   1.003 -0.0835 -0.8947  0.8461
13099TIP3    H260713   2.506   5.544   1.099  1.0573  1.8458 -0.5235
13100TIP3   OH260714   3.684   5.692  14.141 -0.4652 -0.4261  0.3305
13100TIP3    H160715   3.759   5.640  14.113  0.0124 -0.3192  1.3693
13100TIP3    H260716   3.671   5.756  14.070 -0.6199 -1.4844 -0.6232
13101TIP3   OH260717   6.541   6.054  15.223  0.4339  0.2227 -0.2362
13101TIP3    H160718   6.563   6.145  15.239 -1.1689  0.8756 -1.4814
13101TIP3    H260719   6.446   6.049  15.235  0.2263 -0.8632 -1.8977
13102TIP3   OH260720   3.705   4.672   0.688  1.1050  0.0044 -0.3231
13102TIP3    H160721   3.635   4.657   0.752 -0.1793 -0.0606 -1.6731
13102TIP3    H260722   3.775   4.714   0.738  0.4899 -0.7900  1.2825
13103TIP3   OH260723   0.791   0.291  17.379 -0.1508  0.0022  0.4972
13103TIP3    H160724   0.760   0.253  17.296 -2.4301 -0.4611  1.4790
13103TIP3    H260725   0.849   0.362  17.352  0.4291 -1.1209 -1.4555
13104TIP3   OH260726   1.216   5.727  15.868  0.2472 -0.5650  0.1959
13104TIP3    H160727   1.289   5.725  15.806  0.3068 -0.3111  0.2569
13104TIP3    H260728   1.157   5.657  15.838 -1.2872  1.5152 -2.0804
13105TIP3   OH260729   1.314   4.271   2.653  0.4059 -0.0768 -0.4527
13105TIP3    H160730   1.261   4.296   2.577 -0.5744 -0.2577  0.1619
13105TIP3    H260731   1.282   4.326   2.724  1.2048 -0.0311 -0.1124
13106TIP3   OH260732   5.809   4.315   5.320 -0.3404 -0.2196  0.5291
13106TIP3    H160733   5.770   4.241   5.275  0.5809 -0.5103  0.1915
13106TIP3    H260734   5.894   4.328   5.277 -0.7397  1.4168  0.1609
13107TIP3   OH260735   1.803   4.358   2.764  0.6646 -0.1835 -0.0732
13107TIP3    H160736   1.790   4.263   2.771  0.0640  0.0413  3.9908
13107TIP3    H260737   1.894   4.372   2.791  0.5257  0.4819  0.0563
13108TIP3   OH260738   1.228   6.443   2.115  0.3347  0.3483 -0.3060
13108TIP3    H160739   1.212   6.457   2.022  0.8396  0.6526 -0.3509
13108TIP3    H260740   1.228   6.348   2.126 -1.1681  0.3242 -0.3548
13109TIP3   OH260741   5.279   5.791   1.514 -0.3946  0.4815  0.2704
13109TIP3    H160742   5.210   5.810   1.451  1.0036  1.6919 -0.9673
13109TIP3    H260743   5.281   5.695   1.519  0.2214  0.2747 -2.4493
13110TIP3   OH260744   0.737   2.064   6.094 -0.3643 -0.1239 -0.3237
13110TIP3    H160745   0.691   2.144   6.117 -0.8562  0.0614 -1.8762
13110TIP3    H260746   0.752   2.020   6.178  1.6585  2.4663  0.8163
13111TIP3   OH260747   4.114   2.079  16.114 -0.1991  0.1931  0.0730
13111TIP3    H160748   4.051   2.102  16.047  1.9992 -0.6189 -2.4684
13111TIP3    H260749   4.062   2.069  16.194 -3.2556 -0.5899 -1.8476
13112TIP3   OH260750   6.250   0.497   5.361 -0.0122  0.4806 -0.2645
13112TIP3    H160751   6.163   0.530   5.382 -0.2341 -0.0466 -0.3318
13112TIP3    H260752   6.306   0.531   5.430 -0.7878 -1.5666  1.4898
13113TIP3   OH260753   6.545   1.224   3.173  0.4253 -0.0087 -0.0936
13113TIP3    H160754   6.597   1.198   3.097  0.0162 -1.0304 -0.0331
13113TIP3    H260755   6.461   1.179   3.162 -0.0988  0.8336  0.3200
13114TIP3   OH260756   6.445   3.317   5.791  0.1088 -0.4604 -0.5527
13114TIP3    H160757   6.510   3.306   5.861 -0.6811 -2.0051 -0.0126
13114TIP3    H260758   6.426   3.411   5.790 -0.6089 -0.5193  2.0181
13115TIP3   OH260759   1.411   2.390  15.080 -0.7938  0.0676  0.0675
13115TIP3    H160760   1.371   2.470  15.115  1.2027 -0.0247  2.8764
13115TIP3    H260761   1.503   2.396  15.106 -0.3298 -2.6153 -0.6991
13116TIP3   OH260762   0.296   0.554  11.239  0.7866  0.0904 -0.6933
13116TIP3    H160763   0.373   0.606  11.262 -0.0135  1.2496 -0.5070
13116TIP3    H260764   0.310   0.528  11.148  1.3802  0.3353 -0.6737
13117TIP3   OH260765   1.797   1.244  14.118  0.0962 -0.5400  0.1961
13117TIP3    H160766   1.847   1.323  14.098  0.8042 -0.6319  1.4420
13117TIP3    H260767   1.717   1.251  14.067  1.4510 -0.4734 -2.0560
13118TIP3   OH260768   5.845   1.976  15.121  0.1125 -0.1893 -0.1360
13118TIP3    H160769   5.820   1.980  15.214 -0.8705  0.2224 -0.4046
13118TIP3    H260770   5.844   1.882  15.101  2.2856 -0.4692  0.7481
13119TIP3   OH260771   0.339   0.913   2.650 -0.6431 -0.3931  0.0719
13119TIP3    H160772   0.408   0.975   2.671  0.3422 -1.9858  1.9187
13119TIP3    H260773   0.381   0.845   2.598 -0.9640 -1.0177  0.6052
13120TIP3   OH260774   4.691   5.730  16.543  0.9364  0.3142 -0.1020
13120TIP3    H160775   4.673   5.639  16.565  2.0096  0.2623  0.6654
13120TIP3    H260776   4.610   5.762  16.502  0.5640 -0.9805 -0.4173
13121TIP3   OH260777   4.678   6.182  14.072  0.0922 -0.0485 -0.5056
13121TIP3    H160778   4.730   6.230  14.008  1.7114  1.0665  1.5228
13121TIP3    H260779   4.707   6.091  14.064  0.0758  0.0212 -1.5013
13122TIP3   OH260780   2.822   6.687   2.743 -0.1104 -0.4408  0.5762
13122TIP3    H160781   2.755   6.619   2.742 -0.3662 -0.1927  0.6327
13122TIP3    H260782   2.791   6.750   2.808 -0.9593  0.8105 -0.9658
13123TIP3   OH260783   0.036   2.239  14.523  0.3881  0.3029  0.6859
13123TIP3    H160784   0.043   2.312  14.462  0.1526 -0.1655  0.0905
13123TIP3    H260785  -0.058   2.225  14.533  0.4153  0.7041  1.5575
13124TIP3   OH260786   6.517   1.971  12.707  0.1905 -0.7979  0.0842
13124TIP3    H160787   6.598   1.926  12.729  2.2539  2.3363 -0.4554
13124TIP3    H260788   6.517   1.977  12.612  0.0594  0.4001  0.1436
13125TIP3   OH260789   5.971   3.692   6.058  0.6884  0.0189  0.4156
13125TIP3    H160790   6.020   3.734   6.129 -0.0693 -0.2966  1.1546
13125TIP3    H260791   5.957   3.603   6.089 -3.0058  0.8685  1.7209
13126TIP3   OH260792   4.920   2.101  13.123 -0.1447 -0.2401  0.0838
13126TIP3    H160793   4.958   2.074  13.039  1.9697  0.3254  0.8014
13126TIP3    H260794   4.990   2.148  13.167 -0.9512 -1.1629  2.5084
13127TIP3   OH260795   4.721   5.927   2.445  0.1335 -0.1580 -0.1036
13127TIP3    H160796   4.724   6.012   2.400 -0.6374  0.4141  0.8965
13127TIP3    H260797   4.793   5.930   2.508 -0.7461  0.3363  0.9075
13128TIP3   OH260798   2.378   1.457  15.632  0.4951 -0.2508  0.6181
13128TIP3    H160799   2.454   1.515  15.636  1.2106 -1.0648 -0.5136
13128TIP3    H260800   2.353   1.456  15.540  0.6564 -1.8844  0.5547
13129TIP3   OH260801   5.298   4.463   1.314 -0.6262 -0.4616 -0.5265
13129TIP3    H160802   5.381   4.495   1.278  0.3634 -1.7313  0.5337
13129TIP3    H260803   5.293   4.501   1.401 -0.6668 -1.1804 -0.2090
13130TIP3   OH260804   4.484   4.798   3.554 -0.1717 -0.1121  0.5806
13130TIP3    H160805   4.562   4.833   3.511  0.3407  0.1642  1.7113
13130TIP3    H260806   4.513   4.774   3.642 -0.7288 -2.4691  0.2082
13131TIP3   OH260807   4.516   1.895  16.641 -0.0090  0.4231  0.6032
13131TIP3    H160808   4.527   1.800  16.636  0.6183  0.5412 -0.7938
13131TIP3    H260809   4.593   1.930  16.597  1.8296  1.7264  4.3913
13132TIP3   OH260810   5.860   2.295   1.439  0.0197 -0.0346  0.0774
13132TIP3    H160811   5.928   2.359   1.418 -0.6786 -0.2415 -3.3782
13132TIP3    H260812   5.909   2.217   1.465  0.9754  0.7660  0.7655
13133TIP3   OH260813   2.803   1.926  16.468 -0.2631  0.5848 -0.2175
13133TIP3    H160814   2.732   1.861  16.458  1.9905 -2.1308  0.2444
13133TIP3    H260815   2.799   1.978  16.387 -2.2442  0.0003 -0.5610
13134TIP3   OH260816   3.737   1.086  16.039  0.1297  0.4787 -0.1658
13134TIP3    H160817   3.749   1.027  16.113 -0.3512 -0.5159 -0.8530
13134TIP3    H260818   3.822   1.128  16.028 -0.0441  1.3412  1.5084
13135TIP3   OH260819   2.589   1.602   2.397 -0.6526 -0.3778 -0.2521
13135TIP3    H160820   2.650   1.649   2.339 -0.6572 -1.0189 -0.7856
13135TIP3    H260821   2.511   1.658   2.400 -0.0782  0.4249  0.3879
13136TIP3   OH260822   2.629   2.324  12.175 -0.1090 -0.1186  0.2067
13136TIP3    H160823   2.621   2.416  12.202 -1.0462 -0.0487 -0.2598
13136TIP3    H260824   2.539   2.292  12.172  0.1932 -0.9955  0.1283
13137TIP3   OH260825   6.389   0.983  12.838 -0.5261 -0.0131 -0.1280
13137TIP3    H160826   6.341   0.919  12.784 -0.7745 -0.4263  0.5671
13137TIP3    H260827   6.338   0.988  12.919 -0.2011  0.6620  0.0354
13138TIP3   OH260828   5.976   3.796   3.401  0.3209  0.3128 -0.3365
13138TIP3    H160829   6.059   3.837   3.424  0.2849  0.6091 -0.7246
13138TIP3    H260830   5.911   3.866   3.414  0.2545  0.3770 -0.9712
13139TIP3   OH260831   0.260   3.656   4.652  0.4178  0.5063 -0.1046
13139TIP3    H160832   0.205   3.610   4.588  0.2138 -0.8784  1.0207
13139TIP3    H260833   0.349   3.627   4.631  0.2931 -0.4223  0.5815
13140TIP3   OH260834   6.030   2.029   4.531  0.3454 -0.2386 -0.0128
13140TIP3    H160835   6.044   1.968   4.459 -0.4123 -1.9640  1.2349
13140TIP3    H260836   6.115   2.032   4.577  0.1611 -1.0611  0.4098
13141TIP3   OH260837   6.615   4.445  10.585 -0.3949  0.0610 -0.1163
13141TIP3    H160838   6.575   4.529  10.608 -0.8298 -0.4846  1.2342
13141TIP3    H260839   6.541   4.385  10.576 -0.1014 -0.1425 -1.2971
13142TIP3   OH260840   2.329   0.850  14.160  0.1386 -0.4305  0.1449
13142TIP3    H160841   2.409   0.869  14.110  0.1810 -0.8106  0.0627
13142TIP3    H260842   2.300   0.935  14.193 -0.1647 -0.0944 -0.9366
13143TIP3   OH260843   6.266   2.347   3.779 -0.4213 -0.0749 -0.5011
13143TIP3    H160844   6.349   2.303   3.763  1.4430  1.8539  2.7934
13143TIP3    H260845   6.270   2.427   3.726  1.0557  1.2219  1.4379
13144TIP3   OH260846   1.347   0.239   3.386  0.2424 -0.1644 -0.5617
13144TIP3    H160847   1.442   0.235   3.384  0.3277  1.1992 -0.3628
13144TIP3    H260848   1.323   0.280   3.303 -0.2637 -1.5420 -1.1226
13145TIP3   OH260849   1.075   0.763  12.581  0.1147  0.6728 -0.2695
13145TIP3    H160850   0.994   0.789  12.536 -0.1041  1.1456  0.3659
13145TIP3    H260851   1.093   0.837  12.640  0.5989  0.2389  0.1291
13146TIP3   OH260852   3.496   5.372   2.086 -0.2319 -0.0193  0.3947
13146TIP3    H160853   3.557   5.418   2.144 -0.4707  0.2612  0.4287
13146TIP3    H260854   3.539   5.373   2.000 -0.0209 -0.1526  0.4991
13147TIP3   OH260855   1.699   4.595   3.114 -0.2122  0.2556  0.0876
13147TIP3    H160856   1.698   4.514   3.064 -0.0785  0.4351 -0.2096
13147TIP3    H260857   1.784   4.634   3.094  0.0726  0.0554  0.8945
13148TIP3   OH260858   0.456   1.001   0.700  0.2475 -0.4552 -0.0536
13148TIP3    H160859   0.453   0.906   0.684  0.1331 -0.3542 -0.6482
13148TIP3    H260860   0.410   1.039   0.625  1.3657  0.1397 -0.4626
13149TIP3   OH260861   1.138   2.998   3.423 -0.5221  0.2856  0.1774
13149TIP3    H160862   1.047   2.978   3.398 -0.9820  1.7060  0.6311
13149TIP3    H260863   1.132   3.026   3.514  0.5223 -0.5271  0.5146
13150TIP3   OH260864   4.737   5.952  15.355  0.0387 -0.1845  0.0554
13150TIP3    H160865   4.741   6.007  15.433  0.4384 -1.1702  0.7531
13150TIP3    H260866   4.828   5.941  15.328 -0.1374  0.7849 -1.0428
13151TIP3   OH260867   2.217   3.805   6.252 -0.4055 -0.2524  0.3501
13151TIP3    H160868   2.273   3.732   6.279  3.8122  0.7656 -4.2698
13151TIP3    H260869   2.233   3.872   6.319  1.5494 -1.1012  0.8245
13152TIP3   OH260870   6.234   0.121  16.712  0.0690  0.0277 -0.1766
13152TIP3    H160871   6.221   0.058  16.642  1.6044 -2.4056  1.5574
13152TIP3    H260872   6.198   0.078  16.790  2.2725  0.6882  1.3123
13153TIP3   OH260873   1.041   0.248  15.430 -0.3036 -0.2144  0.4752
13153TIP3    H160874   1.063   0.171  15.482 -0.1721 -0.2412  0.3784
13153TIP3    H260875   1.111   0.311  15.449 -0.3666 -0.1485  0.4910
13154TIP3   OH260876   5.171   0.723  12.967  0.5717  0.3025 -0.2118
13154TIP3    H160877   5.254   0.699  13.008  1.6424  0.0266 -2.4060
13154TIP3    H260878   5.195   0.789  12.902 -0.9938  0.5327 -0.5819
13155TIP3   OH260879   5.434   2.826  16.545  0.3269 -0.0738 -0.7510
13155TIP3    H160880   5.450   2.771  16.468  2.1449  0.7478 -0.9929
13155TIP3    H260881   5.510   2.883  16.551 -0.5010  0.9456  0.7743
13156TIP3   OH260882   5.568   4.985  14.399 -0.3809 -0.2685 -0.2148
13156TIP3    H160883   5.641   4.975  14.338  0.4117 -1.4567  0.8748
13156TIP3    H260884   5.602   5.042  14.468 -1.0513  0.5276 -0.5287
13157TIP3   OH260885   1.818   3.256   1.715  0.4788 -0.1174 -0.3481
13157TIP3    H160886   1.895   3.210   1.750  0.3218  0.9662  1.5553
13157TIP3    H260887   1.762   3.187   1.681  1.8230 -1.0159 -0.8218
13158TIP3   OH260888   5.030   2.350  15.996  0.4498  0.5339  0.3498
13158TIP3    H160889   5.035   2.370  16.090  1.2747  0.2105  0.3764
13158TIP3    H260890   4.989   2.264  15.993 -3.4934  2.1934  0.2199
13159TIP3   OH260891   4.633   1.919  14.664 -0.4105 -0.3617  0.3205
13159TIP3    H160892   4.704   1.928  14.601 -0.0769  3.5458  1.0262
13159TIP3    H260893   4.676   1.898  14.747 -0.2950 -0.2087  0.2998
13160TIP3   OH260894   1.234   1.965   2.114 -0.3267  0.2228 -0.0692
13160TIP3    H160895   1.229   2.034   2.049 -1.9066 -0.1561 -0.3925
13160TIP3    H260896   1.314   1.917   2.092  0.8193  1.9195  0.1889
13161TIP3   OH260897   0.485   5.900  16.367  0.2197  0.1823 -0.2365
13161TIP3    H160898   0.562   5.945  16.332  0.0850  1.3390  0.8703
13161TIP3    H260899   0.430   5.884  16.291  1.8537 -1.3636 -1.1820
13162TIP3   OH260900   6.225   4.376  16.085 -0.7157 -0.5934  0.8628
13162TIP3    H160901   6.226   4.470  16.067 -0.2793 -0.4849  1.4145
13162TIP3    H260902   6.290   4.339  16.026 -0.4153 -0.4571  1.1070
13163TIP3   OH260903   3.551   3.908  15.645  0.8607 -0.1904  0.0733
13163TIP3    H160904   3.586   3.922  15.733  1.9717 -2.0937 -0.0126
13163TIP3    H260905   3.569   3.990  15.599  0.7571  0.6345  1.4450
13164TIP3   OH260906   4.813   3.046   5.602 -0.4584 -0.3845 -0.0878
13164TIP3    H160907   4.731   3.095   5.604  0.0055  0.3975  0.4549
13164TIP3    H260908   4.857   3.076   5.522  0.8559  1.8732  1.3954
13165TIP3   OH260909   2.832   1.914  15.964 -0.0339 -0.3125  0.6627
13165TIP3    H160910   2.821   1.842  16.026 -0.0473 -1.7155 -0.9128
13165TIP3    H260911   2.914   1.895  15.920  0.6875  1.4279  1.1759
13166TIP3   OH260912   4.077   2.778   5.786  0.0813  0.8219 -0.2035
13166TIP3    H160913   4.118   2.711   5.730 -0.4873  1.1496 -1.0373
13166TIP3    H260914   3.996   2.737   5.815 -0.1802  1.0706 -0.5686
13167TIP3   OH260915   1.110   2.955   2.722  0.3271 -0.1845  0.3102
13167TIP3    H160916   1.112   2.889   2.653  0.1086  1.5338 -1.4607
13167TIP3    H260917   1.198   2.954   2.759 -0.2253 -2.7942  1.7640
13168TIP3   OH260918   1.329   0.866   1.514 -0.1943  0.1860  0.0428
13168TIP3    H160919   1.264   0.936   1.514  1.2289  1.5884 -0.7816
13168TIP3    H260920   1.278   0.786   1.510 -1.8919  1.2490 -2.1287
13169TIP3   OH260921   3.509   0.043   5.619  0.1539  0.0791 -0.2115
13169TIP3    H160922   3.424   0.012   5.589 -0.1832  0.0791  0.7205
13169TIP3    H260923   3.489   0.115   5.678  0.7837 -0.1228  0.2610
13170TIP3   OH260924   5.615   1.247  14.503 -0.6533  0.2117 -0.2960
13170TIP3    H160925   5.689   1.187  14.494 -0.6634  0.0458  0.5928
13170TIP3    H260926   5.601   1.282  14.415  0.4879  0.2588 -0.4736
13171TIP3   OH260927   3.590   4.466   3.358 -0.0671 -0.2687  0.4730
13171TIP3    H160928   3.603   4.371   3.360  0.9479 -0.2241 -1.6818
13171TIP3    H260929   3.673   4.500   3.325 -0.4824  1.3813  1.0609
13172TIP3   OH260930   6.542   3.951   4.251 -0.3907 -0.4134 -0.0550
13172TIP3    H160931   6.598   3.874   4.254  1.4106  0.8241 -0.5449
13172TIP3    H260932   6.539   3.982   4.342 -0.5834 -0.6865  0.0319
13173TIP3   OH260933   2.257   4.309   5.283  0.0810  0.2172  0.0318
13173TIP3    H160934   2.274   4.395   5.243 -1.0397  0.4869  0.0952
13173TIP3    H260935   2.312   4.308   5.361 -0.0990  1.0003  0.1762
13174TIP3   OH260936   6.748   1.810   0.660 -0.0408  0.2348  0.2699
13174TIP3    H160937   6.791   1.808   0.745 -1.1906  1.1316  0.8858
13174TIP3    H260938   6.761   1.899   0.628 -0.1945  0.0944 -0.2019
13175TIP3   OH260939   0.596   5.257   1.928 -0.5840  0.2360 -0.0619
13175TIP3    H160940   0.514   5.302   1.950 -0.2636  0.3380  0.9817
13175TIP3    H260941   0.568   5.169   1.902 -0.9781 -0.0070  1.1167
13176TIP3   OH260942   2.997   1.147  11.779 -0.1418  0.7425  0.0284
13176TIP3    H160943   3.055   1.081  11.818 -0.2825  0.4264 -0.2909
13176TIP3    H260944   2.933   1.166  11.848  0.2408  0.9663  0.3216
13177TIP3   OH260945   4.884   6.136   6.483 -0.8102 -0.2912  0.0187
13177TIP3    H160946   4.864   6.139   6.389 -0.9882  0.2750  0.0687
13177TIP3    H260947   4.899   6.228   6.506  0.1723 -0.5256  0.3436
13178TIP3   OH260948   1.639   4.807  12.593  0.2477 -0.3240  0.4687
13178TIP3    H160949   1.673   4.813  12.682 -0.0664 -0.3027  0.5888
13178TIP3    H260950   1.612   4.896  12.572  0.2824 -0.3378  0.3678
13179TIP3   OH260951   2.111   1.912   5.224  0.6506  0.3348  0.3724
13179TIP3    H160952   2.128   1.991   5.274  0.6699  0.3293  0.3750
13179TIP3    H260953   2.097   1.943   5.134 -2.7527  0.7015  0.9109
13180TIP3   OH260954   4.817   3.141  17.125 -0.1211 -0.1909  0.2164
13180TIP3    H160955   4.873   3.126  17.202 -0.6485  0.0055  0.6480
13180TIP3    H260956   4.731   3.108  17.152 -0.1004 -0.9523 -0.6172
13181TIP3   OH260957   2.234   3.527   5.676 -0.2531  0.3091  0.1998
13181TIP3    H160958   2.326   3.518   5.701 -0.2126  0.9643  0.2872
13181TIP3    H260959   2.195   3.580   5.745 -0.9804 -0.9635  0.8078
13182TIP3   OH260960   1.329   1.710   0.808 -0.5630 -0.2809  0.2011
13182TIP3    H160961   1.276   1.789   0.812 -0.3460 -0.1457  0.4349
13182TIP3    H260962   1.414   1.736   0.843 -0.1376 -0.3374 -0.7459
13183TIP3   OH260963   1.514   2.941   5.050  0.2297  0.1565  0.5029
13183TIP3    H160964   1.561   2.994   5.114  0.6473  4.0144 -2.6197
13183TIP3    H260965   1.578   2.925   4.981 -1.2721 -0.1608 -0.8743
13184TIP3   OH260966   4.810   2.526  15.927  0.5414 -0.0051 -0.0963
13184TIP3    H160967   4.902   2.510  15.947 -0.2513 -2.0272  2.4670
13184TIP3    H260968   4.762   2.478  15.995 -2.4478 -0.5043 -2.3724
13185TIP3   OH260969   0.644   4.339  14.618 -0.2366  0.2581 -0.3667
13185TIP3    H160970   0.621   4.397  14.546  0.7132 -0.0745 -0.9476
13185TIP3    H260971   0.739   4.351  14.630 -0.0754 -0.9619 -0.3133
13186TIP3   OH260972   1.711   5.025  14.710 -0.1289 -0.1429 -0.1627
13186TIP3    H160973   1.797   5.066  14.723 -0.6899  0.6379  1.3249
13186TIP3    H260974   1.661   5.050  14.788 -1.1856 -1.9379 -0.2285
13187TIP3   OH260975   5.595   4.633  11.540 -0.3234  0.7705 -0.1830
13187TIP3    H160976   5.552   4.621  11.624  0.2316  2.6541  0.4321
13187TIP3    H260977   5.522   4.637  11.477 -0.7929  0.1519  0.3053
13188TIP3   OH260978   5.664   4.359  11.745  0.0947  0.0647 -0.4733
13188TIP3    H160979   5.626   4.335  11.829  1.0266  2.3867  0.6989
13188TIP3    H260980   5.661   4.278  11.694  0.6398 -1.7841  2.1906
13189TIP3   OH260981   4.741   3.726  10.490  0.3940 -0.0083  0.2258
13189TIP3    H160982   4.728   3.656  10.426  2.5112 -0.6100  0.3825
13189TIP3    H260983   4.742   3.806  10.439 -0.7290 -0.1837 -0.1126
13190TIP3   OH260984   4.839   4.112  14.620  1.1347  0.6224 -0.4138
13190TIP3    H160985   4.838   4.102  14.525  0.6899 -0.7724 -0.2773
13190TIP3    H260986   4.749   4.095  14.647  1.2173  1.1922  0.2438
13191TIP3   OH260987   6.186   4.452   3.355 -0.0899 -0.5500  0.0204
13191TIP3    H160988   6.150   4.364   3.369 -1.0009 -0.2432 -0.3412
13191TIP3    H260989   6.113   4.511   3.373  0.9275  0.2420  1.8291
13192TIP3   OH260990   5.274   0.532  15.750 -0.3208 -0.0258  0.0941
13192TIP3    H160991   5.267   0.625  15.730 -1.7649 -0.0317  0.4763
13192TIP3    H260992   5.196   0.512  15.801  0.6190 -1.1692  1.1555
13193TIP3   OH260993   5.200   3.829  11.369 -0.0299  0.7999  0.2403
13193TIP3    H160994   5.274   3.874  11.329  0.0621  0.0128 -0.5229
13193TIP3    H260995   5.236   3.745  11.399 -0.5995  0.4075 -0.1392
13194TIP3   OH260996   3.146   0.986   4.865 -0.5718 -0.2393 -1.0247
13194TIP3    H160997   3.207   1.059   4.865 -0.5310 -0.2750 -0.3761
13194TIP3    H260998   3.197   0.912   4.897 -0.0662 -1.0276 -3.4378
13195TIP3   OH260999   4.963   5.001  15.516  0.2351 -0.4856 -0.1409
13195TIP3    H161000   5.028   4.932  15.531 -0.1386 -0.8936 -0.3791
13195TIP3    H261001   4.891   4.956  15.472 -0.7451 -0.3010  1.2206
13196TIP3   OH261002   1.627   4.671   1.090 -0.2357  0.3377 -0.0529
13196TIP3    H161003   1.720   4.679   1.069  0.0019 -3.0071 -0.8561
13196TIP3    H261004   1.582   4.723   1.024  1.0191  1.0318 -0.3732
13197TIP3   OH261005   2.762   2.482  17.225 -0.3217  0.1433 -0.3859
13197TIP3    H161006   2.822   2.421  17.268  0.1244 -0.3206 -1.6189
13197TIP3    H261007   2.779   2.471  17.132 -2.1020  0.2552 -0.7571
13198TIP3   OH261008   0.669   1.243   6.551 -0.4286  0.0809 -0.1645
13198TIP3    H161009   0.720   1.303   6.606 -0.8077 -1.5477  2.0941
13198TIP3    H261010   0.600   1.299   6.513  0.1136  1.3617  0.6584
13199TIP3   OH261011   0.211   4.786  12.225 -0.5696 -0.5056  0.2169
13199TIP3    H161012   0.288   4.760  12.174 -1.3393 -0.2017 -1.1381
13199TIP3    H261013   0.223   4.880  12.240 -1.2442 -0.2082 -1.0314
13200TIP3   OH261014   5.264   2.147   1.595  0.4027  0.0857 -0.3580
13200TIP3    H161015   5.220   2.083   1.539 -0.2034  0.4495 -0.3070
13200TIP3    H261016   5.248   2.116   1.684  2.8847 -1.5020 -0.3644
13201TIP3   OH261017   5.725   2.869   4.910 -0.8456 -0.0766 -0.1309
13201TIP3    H161018   5.754   2.860   5.001 -0.8466  0.3740 -0.0833
13201TIP3    H261019   5.630   2.854   4.914 -0.9396  0.5438  0.0367
13202TIP3   OH261020   2.278   1.791  16.053 -0.3797  0.2618  0.4015
13202TIP3    H161021   2.276   1.707  16.008  0.6925 -0.4828  1.6654
13202TIP3    H261022   2.337   1.845  16.000 -0.5363 -0.0093 -0.0510
13203TIP3   OH261023   4.929   5.256   3.864  0.0200 -0.3440 -0.3895
13203TIP3    H161024   4.877   5.225   3.938 -0.4656  0.6213 -0.3094
13203TIP3    H261025   4.864   5.287   3.801  0.4793  1.3459 -0.0827
13204TIP3   OH261026   0.386   5.410  16.087  0.0957 -0.2565  0.2461
13204TIP3    H161027   0.356   5.394  16.176 -0.7151 -0.8072 -0.1202
13204TIP3    H261028   0.371   5.503  16.073 -1.0553 -0.4376  0.2193
13205TIP3   OH261029   1.397   6.040  14.899 -0.4428  0.1642 -0.1136
13205TIP3    H161030   1.335   5.968  14.912  1.8552 -1.7510  1.2359
13205TIP3    H261031   1.404   6.081  14.985  0.8418 -0.3243  0.0454
13206TIP3   OH261032   2.877   0.248  11.041  0.3003 -0.5287  0.0790
13206TIP3    H161033   2.854   0.296  10.962 -2.2021  0.0296  1.0562
13206TIP3    H261034   2.958   0.290  11.071 -0.1806  1.0638 -0.7373
13207TIP3   OH261035   6.692   5.195  15.896 -0.6680  0.3408  0.0980
13207TIP3    H161036   6.726   5.284  15.888  2.0049 -0.7023 -1.5341
13207TIP3    H261037   6.764   5.145  15.934 -1.7439 -1.3485  0.0257
13208TIP3   OH261038   6.120   5.537  15.476 -0.1935 -0.0006  0.0807
13208TIP3    H161039   6.087   5.484  15.549 -0.5459 -0.6127 -0.5231
13208TIP3    H261040   6.042   5.561  15.427  0.1200 -0.1828 -0.5054
13209TIP3   OH261041   3.300   3.125  14.620 -0.1431 -0.1106  0.0129
13209TIP3    H161042   3.352   3.145  14.698 -1.2411  0.0471  0.7132
13209TIP3    H261043   3.225   3.183  14.625  0.4207  0.8649 -1.8805
13210TIP3   OH261044   2.742   5.233   1.787 -0.6725 -0.2753 -0.8309
13210TIP3    H161045   2.798   5.214   1.862 -1.5079 -0.0654 -0.1288
13210TIP3    H261046   2.653   5.229   1.822 -1.1192 -0.8849 -1.9822
13211TIP3   OH261047   4.253   2.245   0.493 -0.1629  0.0719  0.0974
13211TIP3    H161048   4.232   2.169   0.438 -1.1794  0.4958 -0.1288
13211TIP3    H261049   4.337   2.276   0.461 -1.0418  0.7342 -1.7393
13212TIP3   OH261050   0.069   6.099  17.362  0.3283  0.4184 -0.7048
13212TIP3    H161051   0.133   6.050  17.310 -0.1965  0.2701 -1.2196
13212TIP3    H261052   0.095   6.191  17.350  2.5242  0.2573  1.8463
13213TIP3   OH261053   6.277   4.565  12.630  0.0278  0.6173  0.0130
13213TIP3    H161054   6.214   4.529  12.567 -0.0385 -2.5407  1.6914
13213TIP3    H261055   6.318   4.638  12.584  0.1081 -1.5727 -3.8240
13214TIP3   OH261056   5.411   2.285  17.420  0.0809  0.3973  0.3462
13214TIP3    H161057   5.345   2.354  17.410 -0.6390 -0.4583 -1.1374
13214TIP3    H261058   5.382   2.216  17.361  2.5989  0.1954 -0.7641
13215TIP3   OH261059   4.349   5.864   2.914 -0.0922 -0.1503 -0.9777
13215TIP3    H161060   4.340   5.957   2.933 -0.8547 -0.3273 -0.4248
13215TIP3    H261061   4.293   5.850   2.837 -1.1827 -0.4187 -0.1658
13216TIP3   OH261062   1.899   1.765  16.309 -0.1132 -0.3773 -0.0317
13216TIP3    H161063   1.812   1.803  16.293 -0.5098 -0.1877  2.2129
13216TIP3    H261064   1.880   1.674  16.332  0.1808 -0.1217  1.2736
13217TIP3   OH261065   2.144   3.053  12.770  0.7083 -0.1560 -0.5439
13217TIP3    H161066   2.072   3.041  12.832  0.8963 -1.0415 -0.4763
13217TIP3    H261067   2.140   3.145  12.745 -1.1474 -0.4273 -1.3994
13218TIP3   OH261068   0.607   4.477   0.066 -0.4437  0.2228  0.0558
13218TIP3    H161069   0.533   4.522   0.026  0.0099 -0.7087 -1.9787
13218TIP3    H261070   0.587   4.384   0.055  1.4121 -0.0655 -1.4687
13219TIP3   OH261071   3.108   6.462  12.355 -0.2457  0.9505 -0.2202
13219TIP3    H161072   3.038   6.527  12.348 -0.7587  0.9713  3.1599
13219TIP3    H261073   3.096   6.424  12.442  3.8444  0.8557  0.4907
13220TIP3   OH261074   3.772   5.037   4.911 -0.2486  0.3286 -0.2520
13220TIP3    H161075   3.768   4.946   4.940 -3.1373  0.2489 -0.6781
13220TIP3    H261076   3.768   5.088   4.992 -0.3592  0.0984 -0.1134
13221TIP3   OH261077   2.631   3.798   4.443 -0.0628  0.3789 -0.5269
13221TIP3    H161078   2.663   3.818   4.356 -0.6886 -1.3191 -1.1784
13221TIP3    H261079   2.691   3.732   4.477  0.1893  1.0394  0.3514
13222TIP3   OH261080   2.768   3.468   2.113  0.3347  0.3567  0.2656
13222TIP3    H161081   2.853   3.429   2.089  0.0438 -1.2313  1.6100
13222TIP3    H261082   2.764   3.457   2.208 -2.4982 -2.1026  0.0030
13223TIP3   OH261083   2.778   2.984  10.778 -0.0185  0.0253 -0.6300
13223TIP3    H161084   2.817   2.918  10.722  0.3113  0.3934 -0.8361
13223TIP3    H261085   2.683   2.972  10.766  0.0328  0.9938 -2.3554
13224TIP3   OH261086   5.327   2.978  14.060 -0.7048 -0.5518  0.4568
13224TIP3    H161087   5.249   2.941  14.019 -0.3298 -1.2153  0.3293
13224TIP3    H261088   5.348   2.917  14.131 -0.3096 -0.3745  0.4972
13225TIP3   OH261089   5.308   0.515  15.482 -0.6393  0.3526 -0.2158
13225TIP3    H161090   5.302   0.511  15.577  1.7353 -2.2602 -0.0153
13225TIP3    H261091   5.323   0.424  15.456 -1.9434  0.8700 -3.2001
13226TIP3   OH261092   4.634   0.022   0.024  0.0932 -0.2351 -0.0447
13226TIP3    H161093   4.624   0.115   0.041  1.3294 -0.4644  2.3381
13226TIP3    H261094   4.564  -0.020   0.073 -0.0389 -0.6132 -0.5417
13227TIP3   OH261095   0.973   5.312  13.721 -0.0897  0.4381  0.5477
13227TIP3    H161096   0.909   5.380  13.741  0.1082  1.1628 -1.0647
13227TIP3    H261097   1.055   5.344  13.758  0.1245  1.3976 -0.6869
13228TIP3   OH261098   3.129   5.553  11.693  0.1008  0.5147 -0.2604
13228TIP3    H161099   3.221   5.575  11.703  0.1364  0.2105  0.1183
13228TIP3    H261100   3.116   5.544  11.599  1.2729 -2.7405 -0.2543
13229TIP3   OH261101   6.438   5.032   4.474  0.3843  0.1978  0.2888
13229TIP3    H161102   6.513   5.049   4.531  1.2859  0.5710 -0.9804
13229TIP3    H261103   6.419   4.939   4.487  0.7187  0.2208  1.0188
13230TIP3   OH261104   4.432   3.800  14.201  0.5645  0.0602  0.2545
13230TIP3    H161105   4.449   3.740  14.128  0.5903  1.1018 -0.6112
13230TIP3    H261106   4.446   3.887  14.165 -0.6593  0.6698  1.1594
13231TIP3   OH261107   4.731   3.928   2.587 -0.0541  0.3685  0.8598
13231TIP3    H161108   4.819   3.902   2.562 -0.3154  0.0341  0.2458
13231TIP3    H261109   4.685   3.845   2.603 -0.3694  0.5226  0.7693
13232TIP3   OH261110   4.468   5.621   6.077 -0.4806 -0.3658  0.0547
13232TIP3    H161111   4.402   5.631   6.009  1.7025  0.7117 -2.0517
13232TIP3    H261112   4.442   5.542   6.125 -3.7586  0.5598 -0.0084
13233TIP3   OH261113   1.040   5.038  16.089  0.4550 -0.3482 -0.4221
13233TIP3    H161114   1.050   4.973  16.020 -1.1135  0.2877 -1.3120
13233TIP3    H261115   1.045   5.122  16.043  1.0363  0.1321  0.4921
13234TIP3   OH261116   4.652   4.224  12.738 -0.3259  0.3238 -0.3554
13234TIP3    H161117   4.667   4.187  12.651 -0.4182  1.0660 -0.6954
13234TIP3    H261118   4.690   4.160  12.798  0.8104  0.3588 -1.0034
13235TIP3   OH261119   1.436   5.671  11.937 -0.1629 -0.0303 -0.0192
13235TIP3    H161120   1.467   5.584  11.914  0.9064  0.0239  1.1149
13235TIP3    H261121   1.367   5.656  12.001  0.2378 -0.0450  0.4149
13236TIP3   OH261122   1.126   5.816   0.996 -0.2585 -0.4884 -0.1477
13236TIP3    H161123   1.056   5.777   0.943 -2.7270  0.1179  2.3714
13236TIP3    H261124   1.086   5.895   1.032  2.4896  0.9940 -0.1522
13237TIP3   OH261125   5.431   2.390   1.610  0.4360 -0.0629 -0.0153
13237TIP3    H161126   5.398   2.305   1.582 -0.3348 -0.1077  0.9580
13237TIP3    H261127   5.410   2.394   1.704 -1.2821  1.9446 -0.3945
13238TIP3   OH261128   0.348   3.470   3.887 -0.0130 -0.3347 -0.4041
13238TIP3    H161129   0.340   3.564   3.873  1.5198 -0.1193  0.0431
13238TIP3    H261130   0.281   3.432   3.829  0.0970  0.9589 -1.4414
13239TIP3   OH261131   3.885   2.924   4.269  0.8900  0.5636  0.2116
13239TIP3    H161132   3.864   2.873   4.191  1.4364  0.0151  0.4170
13239TIP3    H261133   3.935   2.865   4.325 -1.4233  0.1503  2.0472
13240TIP3   OH261134   1.238   2.957  13.492 -0.6224  0.0927 -0.0422
13240TIP3    H161135   1.150   2.921  13.507 -0.8660  0.2871 -0.9036
13240TIP3    H261136   1.222   3.048  13.469 -0.1705  0.2059  0.1044
13241TIP3   OH261137   2.960   4.606  15.531  0.0018  0.0352 -0.4239
13241TIP3    H161138   2.988   4.677  15.473 -1.6083  1.2693  0.2237
13241TIP3    H261139   2.962   4.645  15.619 -0.7662 -0.7585 -0.0377
13242TIP3   OH261140   4.162   0.634  12.381  0.2653 -0.1178  0.9007
13242TIP3    H161141   4.240   0.687  12.364 -0.1138 -0.3788 -2.1422
13242TIP3    H261142   4.170   0.559  12.321 -3.5836  1.2534 -1.7196
13243TIP3   OH261143   3.363   5.653   4.672 -0.2954 -0.0149  0.5186
13243TIP3    H161144   3.321   5.582   4.719  0.2506 -0.6793  0.0242
13243TIP3    H261145   3.338   5.640   4.580  0.8605 -0.3538  0.2319
13244TIP3   OH261146   6.200   6.248  16.551 -0.0952 -0.2257  0.1592
13244TIP3    H161147   6.189   6.320  16.613 -2.0339  0.4072 -0.8456
13244TIP3    H261148   6.147   6.177  16.586 -0.5910 -0.1240 -0.3688
13245TIP3   OH261149   1.946   2.409   1.934 -0.2702  0.5035  0.4968
13245TIP3    H161150   2.019   2.440   1.987 -0.2812  1.4981 -0.0311
13245TIP3    H261151   1.968   2.436   1.844 -0.6363 -0.4075  0.1170
13246TIP3   OH261152   2.491   1.994   4.237 -0.1234  0.2682  0.1104
13246TIP3    H161153   2.410   2.045   4.237 -0.4969 -0.3146 -0.3193
13246TIP3    H261154   2.465   1.907   4.209  0.3012 -0.5077  1.9789
13247TIP3   OH261155   3.983   1.192  17.402 -0.7400  0.3092 -0.2396
13247TIP3    H161156   3.971   1.106  17.362 -1.3186  1.5461 -2.9293
13247TIP3    H261157   4.075   1.194  17.427 -0.1024 -0.2633 -2.3335
13248TIP3   OH261158   0.755   4.726  13.977 -0.2457  0.5795 -0.0411
13248TIP3    H161159   0.807   4.699  13.901 -1.6401 -2.1342 -0.1455
13248TIP3    H261160   0.668   4.744  13.940 -0.5179  0.8020  0.6991
13249TIP3   OH261161   6.081   1.382   4.800 -0.3884 -0.0058  0.0532
13249TIP3    H161162   6.014   1.360   4.865  0.1581  1.9925  1.3680
13249TIP3    H261163   6.031   1.399   4.720 -1.2503 -0.6493  0.4346
13250TIP3   OH261164   3.960   3.607  15.061  0.2183 -0.4480 -0.2587
13250TIP3    H161165   3.981   3.521  15.098  0.9109  0.1612  0.8049
13250TIP3    H261166   3.882   3.592  15.008 -0.3794 -1.5013  0.8808
13251TIP3   OH261167   2.649   0.519   0.067  0.0684 -0.0276  0.0714
13251TIP3    H161168   2.640   0.502   0.161 -1.6688 -1.1570 -0.2438
13251TIP3    H261169   2.719   0.460   0.039  0.3866  0.0924  0.6025
13252TIP3   OH261170   5.671   2.360   0.808  0.4030  0.2939 -0.1973
13252TIP3    H161171   5.727   2.301   0.758  0.8229 -0.4351  1.0931
13252TIP3    H261172   5.682   2.333   0.899 -1.1494  0.9016  0.2112
13253TIP3   OH261173   1.049   6.243   6.343 -0.3112 -0.1338 -0.0097
13253TIP3    H161174   1.020   6.184   6.273 -0.2805 -1.2797  0.9146
13253TIP3    H261175   0.993   6.222   6.417  0.2409  0.4497  0.5861
13254TIP3   OH261176   0.198   0.689  16.069  0.0032 -0.5482  0.1773
13254TIP3    H161177   0.247   0.771  16.080  1.2053 -1.1576 -0.3756
13254TIP3    H261178   0.125   0.713  16.012  0.9865 -0.0607 -0.9377
13255TIP3   OH261179   3.282   2.190  12.840 -0.0420  0.2096 -0.4022
13255TIP3    H161180   3.263   2.282  12.858  0.6185  0.3553 -0.4037
13255TIP3    H261181   3.270   2.146  12.924 -2.4220 -0.0881 -0.8350
13256TIP3   OH261182   3.389   2.977   3.787 -0.4258  0.4595  0.6557
13256TIP3    H161183   3.415   2.900   3.838 -1.8906 -0.8505 -0.4538
13256TIP3    H261184   3.322   2.943   3.727 -1.6453  2.7538  0.6207
13257TIP3   OH261185   4.060   2.395  15.796  0.2698  0.6191 -0.3152
13257TIP3    H161186   4.088   2.336  15.726  1.8758 -1.0451  1.6100
13257TIP3    H261187   4.006   2.341  15.853  0.1996  1.5346  0.5024
13258TIP3   OH261188   3.586   5.838  11.643  0.2558  0.4192 -0.0239
13258TIP3    H161189   3.625   5.882  11.719  1.7062  1.3859 -1.2498
13258TIP3    H261190   3.661   5.801  11.597 -0.6924 -0.9331 -0.5191
13259TIP3   OH261191   2.364   4.005  14.661  0.1914 -0.2836  0.4547
13259TIP3    H161192   2.415   4.068  14.711 -0.5245  0.0592  0.7720
13259TIP3    H261193   2.406   3.921  14.677 -1.0763 -0.4910  3.1517
13260TIP3   OH261194   3.071   0.646   2.711  0.1239  0.6169 -0.2605
13260TIP3    H161195   3.082   0.673   2.802 -0.0389  0.5315 -0.2144
13260TIP3    H261196   3.053   0.727   2.664  0.0506  0.6419 -0.1901
13261TIP3   OH261197   5.814   1.363   0.858 -0.3107 -0.1830  0.0428
13261TIP3    H161198   5.802   1.429   0.789  1.4782 -0.0655 -0.1934
13261TIP3    H261199   5.839   1.284   0.810 -0.5497 -0.5143  0.4644
13262TIP3   OH261200   1.382   1.102  12.170 -0.4104 -0.0948  0.3617
13262TIP3    H161201   1.405   1.043  12.243 -0.0001 -0.3186  0.0586
13262TIP3    H261202   1.467   1.135  12.140 -0.2091 -2.5000 -2.1002
13263TIP3   OH261203   3.889   2.045  12.533  0.1762 -0.8433 -0.4808
13263TIP3    H161204   3.894   2.030  12.439 -0.4114 -3.1637 -0.1878
13263TIP3    H261205   3.979   2.031  12.564  0.2266 -0.7890 -0.6028
13264TIP3   OH261206   3.390   5.309   2.655  1.0168 -0.2797 -0.3893
13264TIP3    H161207   3.386   5.222   2.616 -0.0548 -0.1571 -0.6063
13264TIP3    H261208   3.298   5.333   2.668  1.2686  1.0968 -0.9670
13265TIP3   OH261209   3.658   0.354  12.821  0.3905  0.3757  0.1861
13265TIP3    H161210   3.690   0.329  12.908  1.8957 -0.8775 -0.6652
13265TIP3    H261211   3.568   0.322  12.819 -0.1024  1.5355  1.6904
13266TIP3   OH261212   0.219   3.509  16.301 -0.4440  0.5000 -0.3505
13266TIP3    H161213   0.135   3.553  16.318 -0.4350 -0.1328  1.5247
13266TIP3    H261214   0.285   3.570  16.334  0.0137  1.5939 -2.9996
13267TIP3   OH261215   2.340   4.940   1.456 -0.4765 -0.2738  0.3528
13267TIP3    H161216   2.390   4.938   1.538  0.4690  1.5008 -0.1316
13267TIP3    H261217   2.406   4.954   1.388 -1.3521 -0.7770 -0.6290
13268TIP3   OH261218   4.732   4.428   2.683 -0.2405  0.3928  0.4744
13268TIP3    H161219   4.729   4.513   2.639  0.9557 -0.0949 -0.6072
13268TIP3    H261220   4.763   4.448   2.771 -0.2303  1.1155  0.3171
13269TIP3   OH261221   5.562   3.416  14.048 -0.2443  0.2876 -0.2531
13269TIP3    H161222   5.637   3.408  14.106  0.4369  0.7302 -1.0469
13269TIP3    H261223   5.506   3.483  14.088 -0.1453  0.0558  0.2684
13270TIP3   OH261224   6.212   3.585  14.268  0.1637 -0.0996 -0.4701
13270TIP3    H161225   6.205   3.680  14.273  0.1726 -0.1626  1.0807
13270TIP3    H261226   6.192   3.554  14.356  0.6607 -1.5061 -0.8161
13271TIP3   OH261227   1.027   0.456  17.330 -0.4449  0.9043  0.5074
13271TIP3    H161228   1.091   0.390  17.303 -1.5097  0.3980 -0.9385
13271TIP3    H261229   1.051   0.479  17.419  0.8382 -0.3610  0.5113
13272TIP3   OH261230   4.388   1.476  15.751 -0.4310 -0.2663  0.2924
13272TIP3    H161231   4.388   1.398  15.697 -0.1915  0.5796 -0.9842
13272TIP3    H261232   4.328   1.536  15.707  2.0434  1.5731 -0.8131
13273TIP3   OH261233   5.433   4.751   2.743 -0.0789  0.0169  0.2217
13273TIP3    H161234   5.510   4.791   2.703 -0.5710 -0.2538 -1.0527
13273TIP3    H261235   5.365   4.818   2.734 -0.2399 -0.1156  0.4601
13274TIP3   OH261236   5.607   5.359   2.248 -0.1572 -0.2037 -0.0978
13274TIP3    H161237   5.689   5.389   2.286  0.3394 -1.2782 -0.2853
13274TIP3    H261238   5.560   5.317   2.320 -0.1260 -0.4114 -0.1963
13275TIP3   OH261239   1.391   2.349   1.975 -0.1047  0.0271 -0.3207
13275TIP3    H161240   1.365   2.436   1.944  1.4536  0.8464  0.6153
13275TIP3    H261241   1.485   2.345   1.960  0.0296 -1.0646  0.7131
13276TIP3   OH261242   5.541   0.718   0.698 -0.2192  0.7403  0.0537
13276TIP3    H161243   5.456   0.761   0.682 -0.8547 -0.2958  0.5696
13276TIP3    H261244   5.583   0.716   0.612 -1.4800 -0.3225 -0.5657
13277TIP3   OH261245   5.095   5.759   2.499  0.3079 -0.3164  0.6781
13277TIP3    H161246   5.142   5.767   2.416  0.7918 -1.3266  0.8390
13277TIP3    H261247   5.050   5.843   2.510 -2.2244 -1.1797 -2.0626
13278TIP3   OH261248   6.112   3.906  14.993 -0.6834  0.1317  0.6167
13278TIP3    H161249   6.088   3.982  15.045 -0.0002  0.6298  0.2177
13278TIP3    H261250   6.029   3.870  14.963 -1.0226  0.5670  1.0184
13279TIP3   OH261251   1.552   2.745  11.444  0.2493  0.2998 -0.0390
13279TIP3    H161252   1.481   2.778  11.499  0.8525 -0.4569  1.2292
13279TIP3    H261253   1.591   2.824  11.405 -1.8818  0.6849 -1.6043
13280TIP3   OH261254   4.385   4.619   5.257 -0.2058  0.0101  0.3424
13280TIP3    H161255   4.413   4.572   5.336 -1.2698  0.3404  0.9326
13280TIP3    H261256   4.373   4.710   5.287 -3.1315 -0.3312  0.4602
13281TIP3   OH261257   5.780   4.202  11.201 -0.2428 -0.5865 -0.7783
13281TIP3    H161258   5.763   4.197  11.107 -1.3338  0.2496 -0.6409
13281TIP3    H261259   5.711   4.149  11.241 -0.5974  0.1456 -0.3898
13282TIP3   OH261260   3.195   2.264  11.295 -0.1143  0.6558  0.0668
13282TIP3    H161261   3.118   2.269  11.238 -0.6267  0.9744  0.7661
13282TIP3    H261262   3.162   2.223  11.375  0.8271 -0.7396 -0.2355
13283TIP3   OH261263   4.516   2.707  16.189  0.0697  0.0481 -0.0273
13283TIP3    H161264   4.425   2.695  16.216 -0.2046  1.9438  0.0691
13283TIP3    H261265   4.567   2.658  16.253 -0.7100  2.2153  2.4414
13284TIP3   OH261266   2.263   5.626  15.225 -0.1977  0.5535  0.1772
13284TIP3    H161267   2.189   5.658  15.174 -0.5099  0.9234  0.8376
13284TIP3    H261268   2.255   5.531  15.222  0.3266  0.5441 -1.2191
13285TIP3   OH261269   4.378   0.744   2.967  0.1970  0.8533  0.6825
13285TIP3    H161270   4.466   0.716   2.941 -0.3827 -1.0779  0.6252
13285TIP3    H261271   4.342   0.668   3.014 -0.4697  2.5655  3.1305
13286TIP3   OH261272   0.453   5.344  16.743  0.0737  0.6300 -0.0947
13286TIP3    H161273   0.362   5.363  16.720  0.0403  0.2110 -0.3428
13286TIP3    H261274   0.500   5.424  16.723 -0.0471  0.4526 -1.1611
13287TIP3   OH261275   1.376   5.181  12.853 -0.5174  0.5954 -0.1655
13287TIP3    H161276   1.453   5.207  12.803 -0.5498  0.7808 -0.1171
13287TIP3    H261277   1.391   5.088  12.873  0.3053  0.9524  0.9609
13288TIP3   OH261278   4.547   2.640  15.935 -0.2269  0.0055 -0.0234
13288TIP3    H161279   4.628   2.590  15.924 -1.2572 -1.8848  0.4520
13288TIP3    H261280   4.545   2.661  16.028 -0.3374 -0.0536 -0.0130
13289TIP3   OH261281   2.809   0.133   3.069  0.4345 -0.1912 -0.5513
13289TIP3    H161282   2.751   0.060   3.093  1.5702 -1.5676 -1.7547
13289TIP3    H261283   2.780   0.158   2.981  0.4804  0.3470 -0.4109
13290TIP3   OH261284   1.686   0.909  13.158  0.2205  0.6997 -0.3793
13290TIP3    H161285   1.667   0.817  13.176  0.8219  0.4065 -1.1907
13290TIP3    H261286   1.752   0.907  13.089  1.2054  1.7279  0.4991
13291TIP3   OH261287   4.023   4.023  14.679 -0.3092 -0.1937  0.4928
13291TIP3    H161288   3.954   4.070  14.726 -2.3669 -1.4635 -1.0457
13291TIP3    H261289   4.095   4.017  14.741 -0.6861  3.1622  1.4325
13292TIP3   OH261290   5.171   4.099  15.756  0.3915 -0.5366 -0.1373
13292TIP3    H161291   5.211   4.044  15.689  1.0077  0.5900 -0.7251
13292TIP3    H261292   5.110   4.041  15.802 -1.6336 -0.8911 -2.9983
13293TIP3   OH261293   2.990   2.509  14.499 -0.0389 -0.3544 -0.4965
13293TIP3    H161294   3.011   2.583  14.556 -0.3502  0.1661 -1.0425
13293TIP3    H261295   2.990   2.545  14.411  0.0847 -1.0730 -0.8003
13294TIP3   OH261296   3.168   6.690  12.181  0.0697 -0.9010  0.4937
13294TIP3    H161297   3.111   6.728  12.114 -0.2146 -0.7890  0.7962
13294TIP3    H261298   3.134   6.601  12.193  0.2863 -1.0106  0.3005
13295TIP3   OH261299   0.196   0.028  15.736  0.1012  0.1063  0.6410
13295TIP3    H161300   0.130  -0.042  15.738  0.3054 -0.1352 -0.4491
13295TIP3    H261301   0.168   0.085  15.665  0.7538  0.3183  0.5522
13296TIP3   OH261302   6.686   1.662  16.518 -0.6090  0.6502  0.7863
13296TIP3    H161303   6.637   1.694  16.442  1.4487  1.4195 -0.3012
13296TIP3    H261304   6.619   1.634  16.580 -2.3871  0.6485 -1.0246
13297TIP3   OH261305   2.035   0.562  13.732 -0.0310  0.5404  0.7512
13297TIP3    H161306   1.980   0.486  13.749  3.0881 -2.2564 -0.5120
13297TIP3    H261307   2.039   0.567  13.637  3.5440 -0.9304  0.6647
13298TIP3   OH261308   3.017   0.772  14.778  0.3893  0.0833 -0.4269
13298TIP3    H161309   3.065   0.789  14.697 -2.1118  0.6014 -1.9022
13298TIP3    H261310   2.951   0.708  14.753  0.6355 -1.0799  1.6810
13299TIP3   OH261311   5.629   1.248  17.272 -0.0157 -0.0907  0.5740
13299TIP3    H161312   5.716   1.207  17.273  0.9055  1.7494  1.6924
13299TIP3    H261313   5.612   1.264  17.179  1.4147  0.6188  0.3987
13300TIP3   OH261314   3.622   2.368  15.818 -0.4426  0.6672  0.0111
13300TIP3    H161315   3.706   2.390  15.858 -0.6394  0.6036  0.4700
13300TIP3    H261316   3.591   2.450  15.780  0.2081  0.5063 -0.8759
13301TIP3   OH261317   0.910   2.388  13.522  0.4471  0.2233  0.1233
13301TIP3    H161318   0.898   2.331  13.598  0.0218  0.0595 -0.0657
13301TIP3    H261319   0.838   2.366  13.464  1.6652 -0.8439 -1.0711
13302TIP3   OH261320   4.462   6.110   1.767 -0.0472  0.5163  0.5286
13302TIP3    H161321   4.496   6.181   1.822 -1.8959  1.5467  0.4488
13302TIP3    H261322   4.444   6.039   1.828 -0.4709  1.0324  1.0292
13303TIP3   OH261323   6.236   5.199   3.578  0.3683 -0.0687 -0.7957
13303TIP3    H161324   6.262   5.202   3.670 -0.1993  1.8039 -0.6648
13303TIP3    H261325   6.152   5.245   3.575  0.6184  0.3286 -2.3303
13304TIP3   OH261326   4.774   3.415   2.203  1.0038  0.1309  0.2294
13304TIP3    H161327   4.741   3.426   2.114 -0.7570  0.2578  0.8576
13304TIP3    H261328   4.795   3.504   2.232 -0.4048  0.3585  0.6320
13305TIP3   OH261329   6.483   3.478  11.544  0.1596  0.2650  0.3223
13305TIP3    H161330   6.499   3.402  11.601 -1.1814  0.7777  1.4497
13305TIP3    H261331   6.417   3.448  11.482  0.0769  0.3182  0.3834
13306TIP3   OH261332   5.798   6.091  13.775 -0.1698 -0.0023 -0.4465
13306TIP3    H161333   5.828   6.172  13.733  2.5579 -0.5683  0.2718
13306TIP3    H261334   5.806   6.108  13.869  0.8804 -1.2490 -0.2973
13307TIP3   OH261335   4.516   3.830  14.823  0.4154 -0.5893  0.2897
13307TIP3    H161336   4.484   3.852  14.910  0.0875  1.4169 -0.2782
13307TIP3    H261337   4.603   3.870  14.819 -0.0987  0.5099 -0.7172
13308TIP3   OH261338   6.264   6.487  15.836 -0.0494 -0.7881 -0.0466
13308TIP3    H161339   6.241   6.456  15.924  0.3134 -0.4344  0.1740
13308TIP3    H261340   6.353   6.456  15.822  1.1636  1.8888  1.0316
13309TIP3   OH261341   1.816   3.581   3.560 -0.1434 -0.1012  0.1027
13309TIP3    H161342   1.811   3.610   3.651  0.6555  1.3914 -0.2911
13309TIP3    H261343   1.800   3.661   3.509  1.0901 -0.5586 -1.0591
13310TIP3   OH261344   3.711   6.733   4.246 -0.1980 -0.8124 -0.3769
13310TIP3    H161345   3.671   6.820   4.239 -1.9401 -1.4984  0.4199
13310TIP3    H261346   3.760   6.723   4.164  0.2483  0.9948 -0.3810
13311TIP3   OH261347   6.613   1.916  13.820 -0.4729  0.2883  0.0177
13311TIP3    H161348   6.551   1.892  13.889  0.7233 -1.5999  0.5032
13311TIP3    H261349   6.614   2.012  13.821 -2.4279  0.3340  0.8312
13312TIP3   OH261350   5.446   5.690   5.496 -0.5736  0.1003  0.0316
13312TIP3    H161351   5.401   5.608   5.472 -0.4368 -0.0970  0.4357
13312TIP3    H261352   5.382   5.759   5.477  0.3753  0.2332 -3.3356
13313TIP3   OH261353   0.804   2.241   2.027  0.5383 -0.0345 -0.0528
13313TIP3    H161354   0.722   2.202   2.058 -0.4914  1.0927 -1.2360
13313TIP3    H261355   0.872   2.193   2.074 -0.8008 -0.6703  1.3478
13314TIP3   OH261356   5.508   6.408  13.042 -0.0853 -0.4319 -0.0849
13314TIP3    H161357   5.502   6.349  13.117 -2.1638 -0.5300 -0.2750
13314TIP3    H261358   5.529   6.493  13.081 -2.8147 -0.1120  0.8775
13315TIP3   OH261359   5.358   5.241  15.829 -0.9257 -0.0423  0.3549
13315TIP3    H161360   5.370   5.202  15.742 -0.0496  0.4528  0.2365
13315TIP3    H261361   5.345   5.167  15.888  1.5420 -0.6279  0.2773
13316TIP3   OH261362   0.445   2.879   1.586  0.5476 -0.4564  0.3427
13316TIP3    H161363   0.504   2.900   1.514  1.6663 -0.3154  1.2847
13316TIP3    H261364   0.358   2.875   1.545  1.0213  0.6250 -0.8291
13317TIP3   OH261365   0.803   0.370   2.612  0.1611  0.2366 -0.0084
13317TIP3    H161366   0.782   0.454   2.654 -1.1134 -0.5294  0.9703
13317TIP3    H261367   0.718   0.328   2.598  0.8050 -1.2492  0.3078
13318TIP3   OH261368   2.682   2.758  15.222 -0.4166  0.2440  0.3940
13318TIP3    H161369   2.764   2.749  15.175 -0.9785  0.4076 -0.6595
13318TIP3    H261370   2.707   2.785  15.310  0.6680 -0.1654  0.2233
13319TIP3   OH261371   4.357   3.221   1.860  0.4191  0.2754 -0.5365
13319TIP3    H161372   4.263   3.202   1.866  0.1411  1.4194 -1.0249
13319TIP3    H261373   4.369   3.300   1.913  1.4671 -0.8993  1.0990
13320TIP3   OH261374   0.544   0.749   5.384  0.2937  0.0143 -0.1462
13320TIP3    H161375   0.583   0.746   5.297 -0.5825 -0.0167 -0.5532
13320TIP3    H261376   0.450   0.760   5.367  0.0807 -0.3042  0.7865
13321TIP3   OH261377   0.090   0.174   0.247 -0.2938 -0.2542 -0.0242
13321TIP3    H161378   0.123   0.263   0.236 -1.5261  0.1440 -0.8417
13321TIP3    H261379   0.165   0.123   0.277  0.9420  0.6539 -1.4421
13322TIP3   OH261380   1.743   5.571   0.404 -0.3217 -0.0100 -0.3179
13322TIP3    H161381   1.684   5.626   0.352 -1.6484  0.5210  1.6257
13322TIP3    H261382   1.796   5.633   0.454  0.2959 -0.5090 -0.3399
13323TIP3   OH261383   6.717   3.051   0.689  0.0894 -0.3958  0.0268
13323TIP3    H161384   6.758   3.074   0.773  1.8450 -0.9124 -0.6565
13323TIP3    H261385   6.781   3.077   0.623 -1.4528  0.4039 -1.2098
13324TIP3   OH261386   2.883   1.060   3.590  0.2878 -0.0287  0.2365
13324TIP3    H161387   2.951   0.994   3.578  0.3210  0.1708 -0.7935
13324TIP3    H261388   2.831   1.055   3.510 -1.7480 -1.1014  1.5400
13325TIP3   OH261389   0.604   2.299   4.597  1.1458 -0.0602 -0.1155
13325TIP3    H161390   0.617   2.262   4.684 -1.6612 -0.9610  0.0254
13325TIP3    H261391   0.550   2.235   4.551  0.4651  1.5361 -1.6599
13326TIP3   OH261392   4.403   0.616  14.276 -0.0389 -0.2044  0.0345
13326TIP3    H161393   4.368   0.570  14.200  1.3136  0.3141 -0.9349
13326TIP3    H261394   4.443   0.695  14.240 -1.8743  1.5475  1.5987
13327TIP3   OH261395   1.731   1.043   1.780 -0.0402 -0.4938 -0.1345
13327TIP3    H161396   1.698   0.975   1.721 -1.1583 -0.0090 -0.0913
13327TIP3    H261397   1.739   0.999   1.865  3.2063 -1.6724 -0.9013
13328TIP3   OH261398   5.828   3.784  15.971 -0.6050  0.7867  0.2546
13328TIP3    H161399   5.817   3.758  16.063  0.8735  1.5041  0.6596
13328TIP3    H261400   5.739   3.805  15.942 -1.2193 -0.3285  1.2430
13329TIP3   OH261401   1.997   2.494  13.286 -0.2394  0.0749  0.0287
13329TIP3    H161402   2.016   2.565  13.225 -0.1633  1.0119  1.1097
13329TIP3    H261403   2.079   2.479  13.332 -0.1778 -0.9257 -0.3869
13330TIP3   OH261404   5.123   2.001  14.617  0.4945  0.2198  0.3889
13330TIP3    H161405   5.117   2.096  14.608  0.5131  0.2363  0.5573
13330TIP3    H261406   5.143   1.970  14.528  2.2460  0.5132  0.6457
13331TIP3   OH261407   3.957   0.828   4.505 -0.2867 -0.1246 -0.0011
13331TIP3    H161408   3.916   0.741   4.502 -0.7192  0.0798 -0.0776
13331TIP3    H261409   3.884   0.889   4.500  0.0922  0.2568 -1.0353
13332TIP3   OH261410   5.351   3.833  14.574  0.4099 -0.0111 -0.2374
13332TIP3    H161411   5.415   3.902  14.556  0.3034  1.0194  2.7787
13332TIP3    H261412   5.272   3.860  14.528  0.5908  1.5182  0.3219
13333TIP3   OH261413   0.734   1.437   0.102 -0.0377 -0.5812  0.1871
13333TIP3    H161414   0.784   1.367   0.144  0.6713 -0.4291 -0.3785
13333TIP3    H261415   0.800   1.501   0.077 -0.7794  0.8051  1.6399
13334TIP3   OH261416   6.258   5.842  16.527 -0.2599 -0.6142 -0.0483
13334TIP3    H161417   6.166   5.860  16.508 -0.4125  1.3705  2.1020
13334TIP3    H261418   6.307   5.903  16.472 -0.5067  1.6877  2.1085
13335TIP3   OH261419   4.893   3.822  14.624  0.5222  0.1273 -0.2656
13335TIP3    H161420   4.843   3.885  14.572 -3.1024  0.3749  3.0699
13335TIP3    H261421   4.937   3.875  14.691  0.4852 -0.5905  0.3405
13336TIP3   OH261422   5.684   5.789  16.784 -0.3410  0.6386 -0.3181
13336TIP3    H161423   5.777   5.791  16.804 -0.4418  0.1307  0.2364
13336TIP3    H261424   5.641   5.816  16.865 -0.7369 -0.9691  0.0428
13337TIP3   OH261425   4.837   3.352   4.254  1.1760 -0.3974 -0.2951
13337TIP3    H161426   4.892   3.274   4.256  1.3889 -0.2496  1.9461
13337TIP3    H261427   4.753   3.323   4.291  0.9559  0.2130 -0.3071
13338TIP3   OH261428   0.670   6.520  11.844 -0.0483 -0.0460 -0.6725
13338TIP3    H161429   0.648   6.559  11.929  2.0832 -0.3304  0.0515
13338TIP3    H261430   0.605   6.558  11.784 -0.0567  2.1551  0.5908
13339TIP3   OH261431   0.567   0.873  12.154  0.1462 -0.2074  0.2937
13339TIP3    H161432   0.624   0.932  12.106  0.2567  0.3063  1.0431
13339TIP3    H261433   0.489   0.863  12.098  1.1480 -1.3201 -0.9732
13340TIP3   OH261434   2.237   3.834  11.513  0.2525 -0.4775 -0.3015
13340TIP3    H161435   2.251   3.898  11.444 -2.1029 -0.7961 -1.1730
13340TIP3    H261436   2.143   3.813  11.508  0.1381 -1.0639  2.5116
13341TIP3   OH261437   1.012   4.280   0.325  0.2358 -0.1144 -0.5872
13341TIP3    H161438   1.032   4.345   0.392 -0.3863 -1.5212  1.0342
13341TIP3    H261439   0.941   4.320   0.274 -1.9319 -0.4068  1.9354
13342TIP3   OH261440   5.900   3.221  14.477  0.8067  0.2696  0.0254
13342TIP3    H161441   5.945   3.179  14.403  1.4909 -0.3662  0.7846
13342TIP3    H261442   5.809   3.194  14.468  0.9338 -0.0146 -0.4461
13343TIP3   OH261443   0.294   2.372  14.535 -0.1854  0.2049  0.0386
13343TIP3    H161444   0.230   2.306  14.563 -0.7534  0.4211 -0.7248
13343TIP3    H261445   0.250   2.420  14.465  0.7471  0.4860 -0.3685
13344TIP3   OH261446   0.252   0.003   0.018 -0.2769  0.2188  0.4239
13344TIP3    H161447   0.259  -0.020   0.111 -0.2959  1.5043  0.7583
13344TIP3    H261448   0.232   0.096   0.017  1.4199  0.6175 -0.8974
13345TIP3   OH261449   6.570   0.800   2.957 -0.1439 -0.1868 -0.3093
13345TIP3    H161450   6.497   0.859   2.941  0.0146  0.6941  1.8195
13345TIP3    H261451   6.553   0.764   3.044 -0.1408 -3.2196 -1.4563
13346TIP3   OH261452   0.681   5.440  13.841  0.1529  0.6012  0.1228
13346TIP3    H161453   0.671   5.452  13.935 -0.3352  0.5301  0.0799
13346TIP3    H261454   0.717   5.523  13.810  0.9303  0.4011  0.4623
13347TIP3   OH261455   5.532   3.259  15.399 -0.1476  0.1183  0.1850
13347TIP3    H161456   5.475   3.184  15.418  0.4309 -0.2402  0.5081
13347TIP3    H261457   5.549   3.298  15.484 -0.4141  0.5968  0.0214
13348TIP3   OH261458   2.194   5.930   5.559 -0.3672  0.2807 -0.0918
13348TIP3    H161459   2.216   5.965   5.472  0.1558  0.3888  0.0794
13348TIP3    H261460   2.100   5.915   5.556 -0.0834 -1.6916 -1.4288
13349TIP3   OH261461   2.855   4.147  13.911  0.4972 -0.1612 -0.2967
13349TIP3    H161462   2.933   4.113  13.955 -0.5372 -0.3812  1.4575
13349TIP3    H261463   2.826   4.220  13.967 -0.5369 -0.0641 -0.9370
13350TIP3   OH261464   6.129   4.952  13.444 -0.2799  0.3172  0.6469
13350TIP3    H161465   6.098   5.030  13.398 -1.0392  0.5216  1.4726
13350TIP3    H261466   6.065   4.938  13.514  0.2809 -0.5844  1.0040
13351TIP3   OH261467   4.176   3.208  11.809 -0.0375  0.4769 -0.0696
13351TIP3    H161468   4.207   3.198  11.719  0.9518  1.7491  0.0945
13351TIP3    H261469   4.163   3.302  11.819 -3.4009  0.0997  0.1068
13352TIP3   OH261470   0.643   5.941   5.574 -0.4489  0.7998  0.4125
13352TIP3    H161471   0.646   5.953   5.669  1.0047  0.9108  0.3715
13352TIP3    H261472   0.621   6.028   5.539  0.0696  1.0099  0.6025
13353TIP3   OH261473   2.143   3.071  13.904  0.0664 -0.5513  0.0079
13353TIP3    H161474   2.074   3.137  13.892 -0.8944 -1.2263  1.4856
13353TIP3    H261475   2.224   3.120  13.893 -0.5259  1.5093  3.1707
13354TIP3   OH261476   1.034   2.127  15.966  0.5639  0.0702  0.3959
13354TIP3    H161477   1.069   2.202  16.013  1.4373  1.1865 -1.8825
13354TIP3    H261478   1.062   2.051  16.017  1.4775  1.1992  1.6250
13355TIP3   OH261479   3.607   3.972   0.759 -1.0414  0.2639 -0.1463
13355TIP3    H161480   3.597   3.968   0.664 -0.7433  0.2648 -0.1800
13355TIP3    H261481   3.702   3.963   0.773 -1.1255 -0.1585  0.1702
13356TIP3   OH261482   1.501   5.178  11.120  0.5287  0.0392  0.2859
13356TIP3    H161483   1.420   5.153  11.076  0.1267 -1.6788  1.8728
13356TIP3    H261484   1.477   5.256  11.170  0.1317  0.1332 -0.0437
13357TIP3   OH261485   1.887   0.026  11.309  0.4138  0.0211  0.1566
13357TIP3    H161486   1.868   0.093  11.243 -0.5636  0.2495  0.6490
13357TIP3    H261487   1.974  -0.006  11.286  1.0147  1.6302  0.0677
13358TIP3   OH261488   4.596   2.004  12.985  0.3973 -0.0890 -0.2207
13358TIP3    H161489   4.573   1.924  13.033 -1.5629  1.0903  0.9761
13358TIP3    H261490   4.674   2.037  13.029  0.0886 -0.3520  0.5516
13359TIP3   OH261491   5.721   1.334   4.482  0.1776  0.0703  0.1535
13359TIP3    H161492   5.729   1.314   4.389  2.2337  1.4995 -0.0466
13359TIP3    H261493   5.627   1.328   4.500 -0.2872 -0.0074 -2.0508
13360TIP3   OH261494   1.332   6.619  17.284  0.2007  0.6301 -0.0148
13360TIP3    H161495   1.278   6.674  17.341 -1.4843  0.3910 -1.3235
13360TIP3    H261496   1.317   6.653  17.196  1.2665 -0.2179 -0.5531
13361TIP3   OH261497   2.365   4.026  12.272 -0.3781 -0.0496 -0.1004
13361TIP3    H161498   2.358   4.108  12.322  1.9973 -0.6983  1.5028
13361TIP3    H261499   2.399   3.963  12.336  0.0620 -1.6901 -1.8839
13362TIP3   OH261500   3.308   3.604   6.118 -0.5765 -0.0740  0.1401
13362TIP3    H161501   3.230   3.559   6.088 -1.1935  0.7463  0.4908
13362TIP3    H261502   3.286   3.697   6.113  0.6364  0.2090 -0.4781
13363TIP3   OH261503   2.396   5.255  15.995  0.6320  0.0826  0.0223
13363TIP3    H161504   2.408   5.218  15.908  2.6178 -0.4270  0.4509
13363TIP3    H261505   2.330   5.323  15.984 -1.0109 -1.6440 -1.3492
13364TIP3   OH261506   0.953   2.942  15.928 -0.0780 -0.1940 -0.1362
13364TIP3    H161507   0.916   2.988  15.852  3.6739  2.0232 -0.8924
13364TIP3    H261508   0.940   3.002  16.001 -0.4999 -0.7176  0.2275
13365TIP3   OH261509   3.518   0.038  17.213 -0.1591  0.0174  0.0193
13365TIP3    H161510   3.588   0.096  17.181 -0.0219  0.5449  1.2284
13365TIP3    H261511   3.562  -0.021  17.274 -0.4678 -0.8199 -0.5482
13366TIP3   OH261512   6.609   5.960   1.775  0.0223 -0.1171  0.0473
13366TIP3    H161513   6.639   5.882   1.729 -0.2052 -0.2604  0.1415
13366TIP3    H261514   6.683   5.984   1.832  1.0079  1.0883 -1.6416
13367TIP3   OH261515   1.439   6.539  13.590 -0.1156  0.3109  0.9564
13367TIP3    H161516   1.424   6.630  13.615 -0.5950  0.2336  0.9545
13367TIP3    H261517   1.529   6.521  13.618 -0.3093  0.5245  1.7352
13368TIP3   OH261518   4.054   0.863  12.462 -0.3394 -0.3319 -0.1740
13368TIP3    H161519   4.106   0.784  12.449  0.8318  0.4466 -0.3422
13368TIP3    H261520   3.964   0.832  12.465  0.2331 -2.1183  3.2054
13369TIP3   OH261521   4.109   0.015   1.657  0.7895  0.1174  0.0117
13369TIP3    H161522   4.175   0.075   1.690  1.5581 -0.8762  0.3153
13369TIP3    H261523   4.054  -0.006   1.732 -0.1680  1.2763 -0.3304
13370TIP3   OH261524   4.029   0.457   0.675 -0.0355 -0.0660 -0.6404
13370TIP3    H161525   4.007   0.541   0.715  1.7054  1.3411 -2.4314
13370TIP3    H261526   4.124   0.460   0.664  0.3677 -3.1577  1.0119
13371TIP3   OH261527   3.863   3.699   5.985  0.1282 -0.2179  0.2858
13371TIP3    H161528   3.877   3.695   5.891  0.9802 -1.0360  0.4380
13371TIP3    H261529   3.847   3.792   6.003 -0.7168 -0.1430 -0.7423
13372TIP3   OH261530   1.817   2.646  14.961 -0.4021  0.1173 -0.0761
13372TIP3    H161531   1.845   2.571  15.013 -0.9172  0.7274  1.1294
13372TIP3    H261532   1.771   2.608  14.886 -0.7475 -0.7695  0.5733
13373TIP3   OH261533   4.334   3.920   4.681  0.2788 -0.9303  0.4960
13373TIP3    H161534   4.309   3.923   4.588  0.5046 -2.6163  0.3386
13373TIP3    H261535   4.252   3.930   4.728  0.2727  0.9182  0.1659
13374TIP3   OH261536   3.241   3.026  17.036  0.6703 -0.0398 -0.1491
13374TIP3    H161537   3.159   3.075  17.051  1.2354  1.1095 -0.6720
13374TIP3    H261538   3.310   3.086  17.064  1.4781  0.1394 -2.2973
13375TIP3   OH261539   0.800   0.542  12.113  0.1590  0.2878 -0.6232
13375TIP3    H161540   0.742   0.505  12.047  0.5418  1.6039 -1.7325
13375TIP3    H261541   0.870   0.477  12.123 -1.5872 -1.5081  1.0107
13376TIP3   OH261542   0.683   2.071  12.357  0.0256  0.1362  0.3915
13376TIP3    H161543   0.591   2.097  12.357  0.8059  3.3243  0.0007
13376TIP3    H261544   0.730   2.149  12.327  2.7301 -1.9790 -1.3160
13377TIP3   OH261545   3.315   5.806  13.715 -0.1734 -0.1001  0.1860
13377TIP3    H161546   3.346   5.792  13.626 -2.3101 -2.5896 -0.2752
13377TIP3    H261547   3.319   5.901  13.727  1.5473  0.1774 -1.9912
13378TIP3   OH261548   6.433   1.362  16.213 -0.3059 -0.4700 -0.1950
13378TIP3    H161549   6.435   1.451  16.249 -0.1565 -1.0420  1.2670
13378TIP3    H261550   6.348   1.356  16.169  0.1955  0.7900 -1.4259
13379TIP3   OH261551   1.953   2.274  10.498 -0.2389  0.1227  0.0485
13379TIP3    H161552   1.944   2.345  10.434 -1.3501  0.5438  0.6238
13379TIP3    H261553   1.936   2.194  10.449 -1.3525  0.4648 -0.1527
13380TIP3   OH261554   3.313   0.491  16.179  0.0969  0.4827  0.0835
13380TIP3    H161555   3.282   0.400  16.174 -0.2123  0.6165 -0.5802
13380TIP3    H261556   3.305   0.524  16.090  3.6274  0.0844 -0.5279
13381TIP3   OH261557   3.692   4.551  14.983 -0.5051  0.5854 -0.2717
13381TIP3    H161558   3.710   4.511  14.898 -1.4322 -2.4928  0.8242
13381TIP3    H261559   3.601   4.578  14.979 -0.4259  0.8357 -0.3919
13382TIP3   OH261560   1.400   0.331   6.166 -0.5459 -0.1470  0.3430
13382TIP3    H161561   1.478   0.377   6.196 -0.7518  0.4440 -0.0236
13382TIP3    H261562   1.328   0.370   6.214 -0.8589  0.6896 -0.7615
13383TIP3   OH261563   2.092   0.925   4.079 -0.0255  0.5064 -0.5056
13383TIP3    H161564   2.024   0.868   4.114  1.1839 -1.6912 -1.5682
13383TIP3    H261565   2.050   0.970   4.005 -1.0190  1.1684  0.4241
13384TIP3   OH261566   2.821   1.791  12.038  0.3421 -0.2258  0.2465
13384TIP3    H161567   2.866   1.823  12.117  1.0432  0.2935 -0.3449
13384TIP3    H261568   2.730   1.819  12.049  0.1933 -1.0644  1.3430
13385TIP3   OH261569   3.737   0.241  11.305  0.3257  0.5873 -0.4138
13385TIP3    H161570   3.719   0.148  11.295  1.4818  0.4238 -1.1938
13385TIP3    H261571   3.778   0.266  11.222 -0.2589  1.8715 -0.3417
13386TIP3   OH261572   0.017   3.532  12.002  0.2164  0.3546  0.1352
13386TIP3    H161573  -0.071   3.493  12.001  0.3644 -0.2125  2.6650
13386TIP3    H261574   0.077   3.458  11.995  0.5103  0.6382 -0.4278
13387TIP3   OH261575   4.507   2.507   1.449 -0.2543  0.3416  0.3259
13387TIP3    H161576   4.489   2.414   1.462  0.2873  0.4205  1.6860
13387TIP3    H261577   4.538   2.513   1.358 -0.7396 -0.7197  0.0747
13388TIP3   OH261578   3.987   2.212  14.479 -0.2253 -0.5634  0.0964
13388TIP3    H161579   3.928   2.252  14.542 -1.0028  0.7955 -1.3975
13388TIP3    H261580   3.939   2.137  14.445 -0.5729 -0.2253 -0.1720
13389TIP3   OH261581   3.136   4.831  13.332  0.2837  0.0780 -0.2257
13389TIP3    H161582   3.080   4.814  13.256  1.6064  1.3706 -1.5768
13389TIP3    H261583   3.182   4.912  13.310  1.5873 -0.1463  1.4573
13390TIP3   OH261584   0.940   2.284   0.388  0.2496  0.3167  0.0391
13390TIP3    H161585   1.013   2.245   0.437 -1.0601 -2.8373 -0.2504
13390TIP3    H261586   0.863   2.235   0.418 -1.8078  3.3818  0.1988
13391TIP3   OH261587   5.076   4.613   1.768 -0.3577  0.8991  0.5048
13391TIP3    H161588   5.028   4.531   1.779  0.7526  0.1358 -0.1655
13391TIP3    H261589   5.158   4.588   1.724  0.1741  2.3107  0.6297
13392TIP3   OH261590   6.653   1.310  14.189 -0.1214  0.1815 -0.2834
13392TIP3    H161591   6.675   1.361  14.111 -2.2090 -2.7850 -3.0534
13392TIP3    H261592   6.572   1.349  14.221 -0.8381 -0.3284 -1.4136
13393TIP3   OH261593   3.377   3.120   6.253  0.3258 -0.5547  0.1362
13393TIP3    H161594   3.410   3.201   6.290  2.2486  0.7476 -3.8664
13393TIP3    H261595   3.309   3.147   6.190 -0.8524 -2.3202  0.5511
13394TIP3   OH261596   3.722   4.136  12.967  0.0975 -0.0623 -0.4811
13394TIP3    H161597   3.796   4.127  12.907 -0.2512 -2.0582 -0.6618
13394TIP3    H261598   3.651   4.089  12.925 -0.0809 -1.7863  1.5935
13395TIP3   OH261599   2.387   3.700  15.396  0.0162 -0.4470 -0.2107
13395TIP3    H161600   2.299   3.663  15.385  0.2374 -0.8864 -0.5238
13395TIP3    H261601   2.430   3.640  15.457 -0.0703  0.0553  0.3422
13396TIP3   OH261602   1.495   5.632  16.986 -0.2615 -0.4785 -0.2397
13396TIP3    H161603   1.466   5.697  17.050  0.1089 -1.2634  0.7625
13396TIP3    H261604   1.498   5.550  17.036 -0.1935 -1.1570 -1.3338
13397TIP3   OH261605   4.712   2.962   2.026  0.4039  0.5179  0.3554
13397TIP3    H161606   4.726   3.030   1.960  1.3560  1.2848  1.3100
13397TIP3    H261607   4.617   2.947   2.025  0.3717  0.6645 -1.0182
13398TIP3   OH261608   4.306   2.925   1.671 -0.5082 -0.0973  0.0970
13398TIP3    H161609   4.261   2.981   1.609 -0.7961 -0.3459  0.0826
13398TIP3    H261610   4.371   2.878   1.619  0.4028  0.9132  0.2589
13399TIP3   OH261611   6.453   5.270  15.260 -0.1354 -0.4379  0.0858
13399TIP3    H161612   6.398   5.239  15.331 -0.7217  0.6582  0.1312
13399TIP3    H261613   6.398   5.264  15.182 -0.2351  0.3460  0.0792
13400TIP3   OH261614   2.772   5.019  16.580 -0.0353 -0.2950  0.0232
13400TIP3    H161615   2.811   4.998  16.495 -0.1801  1.3991 -0.4971
13400TIP3    H261616   2.695   5.071  16.558  0.2878  0.7191  1.1937
13401TIP3   OH261617   4.510   5.927  14.390  0.2516 -0.1324  0.2177
13401TIP3    H161618   4.486   5.945  14.481  0.3630  2.5459 -0.2030
13401TIP3    H261619   4.578   5.860  14.395  1.3340  1.0488  2.2141
13402TIP3   OH261620   4.646   1.015  13.216  0.0689  0.5699  0.0961
13402TIP3    H161621   4.553   1.039  13.212 -0.2941 -0.7757 -0.1272
13402TIP3    H261622   4.689   1.091  13.254 -1.2205  0.9949  0.7611
13403TIP3   OH261623   3.261   4.240  14.790 -0.1812 -0.2366  0.0727
13403TIP3    H161624   3.231   4.321  14.832  0.0269 -0.0048 -0.2221
13403TIP3    H261625   3.187   4.212  14.737  0.5799  1.1431 -1.8509
13404TIP3   OH261626   0.898   3.184   5.965  0.0930 -0.0390 -0.7422
13404TIP3    H161627   0.803   3.179   5.965  0.1263 -0.9206 -0.3005
13404TIP3    H261628   0.919   3.261   6.019 -0.3757  0.8649 -1.8135
13405TIP3   OH261629   0.180   2.594   1.358 -0.5824  0.1055 -0.3404
13405TIP3    H161630   0.176   2.681   1.396  1.7694 -0.5203  1.5764
13405TIP3    H261631   0.098   2.552   1.385 -1.2901  1.3704 -0.4526
13406TIP3   OH261632   2.011   1.399   2.456 -0.0059  0.1555 -0.6401
13406TIP3    H161633   1.989   1.306   2.458 -1.1755  0.4396  0.7241
13406TIP3    H261634   2.025   1.417   2.363 -0.4981 -1.2132 -1.0133
13407TIP3   OH261635   3.235   1.629  11.096 -0.2267  0.0213  0.7505
13407TIP3    H161636   3.295   1.611  11.024 -0.4966 -1.8037  0.9231
13407TIP3    H261637   3.172   1.691  11.060  0.1995 -0.1217 -0.2744
13408TIP3   OH261638   5.345   5.665  13.060  0.2613 -0.3972 -0.2535
13408TIP3    H161639   5.259   5.672  13.018  0.4827 -3.9341 -1.6376
13408TIP3    H261640   5.330   5.613  13.138  1.1612 -1.3896 -0.7140
13409TIP3   OH261641   6.628   4.104  17.264  0.1560 -0.3584 -0.2871
13409TIP3    H161642   6.705   4.101  17.208 -0.4722 -0.7071 -1.1507
13409TIP3    H261643   6.663   4.110  17.353  1.1934 -1.4553 -0.6002
13410TIP3   OH261644   0.651   0.158   4.953 -0.1456 -0.1025  0.3309
13410TIP3    H161645   0.639   0.165   5.047  0.6778  0.6463  0.4000
13410TIP3    H261646   0.682   0.245   4.926  1.9242 -0.9462 -0.2499
13411TIP3   OH261647   4.668   0.481   2.403  0.2894 -0.1687  0.1256
13411TIP3    H161648   4.663   0.561   2.350  0.4043 -0.3710 -0.1973
13411TIP3    H261649   4.672   0.512   2.493  3.6669  0.3643 -0.0719
13412TIP3   OH261650   0.102   2.991  16.633  0.2660 -0.3839 -0.3593
13412TIP3    H161651   0.070   2.901  16.628 -0.1049 -0.2862  0.2167
13412TIP3    H261652   0.051   3.038  16.568 -0.7349 -0.2397  0.5138
13413TIP3   OH261653   0.233   5.086  12.227  0.2387 -0.0396 -0.0489
13413TIP3    H161654   0.153   5.101  12.278  1.9437  2.8790  2.0820
13413TIP3    H261655   0.217   5.129  12.143 -1.3285 -1.8439 -0.7404
13414TIP3   OH261656   3.735   6.720   5.470 -0.0949  0.1547 -0.3327
13414TIP3    H161657   3.655   6.715   5.523 -0.9865 -0.6767 -1.7143
13414TIP3    H261658   3.768   6.808   5.486 -1.5096  0.6589 -0.0338
13415TIP3   OH261659   1.530   2.231   0.417 -0.0560  0.1561  0.2047
13415TIP3    H161660   1.541   2.284   0.338  0.2553  0.8786  0.7254
13415TIP3    H261661   1.466   2.280   0.469 -0.4447 -0.4438  0.2948
13416TIP3   OH261662   1.988   6.213   1.219  0.4531 -0.1331  0.2203
13416TIP3    H161663   1.911   6.227   1.274  0.0753 -2.6367  0.4658
13416TIP3    H261664   2.035   6.297   1.221 -1.1033  0.7680  1.8959
13417TIP3   OH261665   4.475   4.952   4.783  0.1517 -0.2326  0.4075
13417TIP3    H161666   4.556   4.905   4.803 -0.7198 -1.8856  0.1601
13417TIP3    H261667   4.459   5.006   4.861  2.3589  1.4748 -0.2080
13418TIP3   OH261668   1.609   0.672  12.989 -0.4713  0.1925  0.2346
13418TIP3    H161669   1.595   0.758  12.950 -1.6542  0.3984  1.0789
13418TIP3    H261670   1.614   0.613  12.914 -0.9434  0.8211 -0.3039
13419TIP3   OH261671   6.414   2.562  15.026  0.0557 -0.5936  0.3060
13419TIP3    H161672   6.410   2.585  14.934  0.5410  1.5944  0.7783
13419TIP3    H261673   6.413   2.466  15.027 -1.5889 -0.6691 -1.8535
13420TIP3   OH261674   1.007   4.277   5.955 -0.3926  0.0083  0.1500
13420TIP3    H161675   0.999   4.357   5.903  0.8970  0.0924  0.0623
13420TIP3    H261676   1.092   4.241   5.932 -1.9776 -2.8874 -1.8645
13421TIP3   OH261677   3.440   1.699   6.504  0.6407 -0.3501 -0.0872
13421TIP3    H161678   3.514   1.711   6.563  1.1759  0.0473 -0.8188
13421TIP3    H261679   3.480   1.667   6.423  0.2737  1.7137 -1.1535
13422TIP3   OH261680   5.905   6.220   2.532 -0.2938  0.1988 -0.5058
13422TIP3    H161681   5.945   6.134   2.529  1.7796  1.0012  1.1677
13422TIP3    H261682   5.974   6.280   2.505 -1.2627  1.4482 -0.3254
13423TIP3   OH261683   2.694   0.832  17.045  0.3328  0.3078 -0.4510
13423TIP3    H161684   2.645   0.796  17.118  2.2393 -0.7501  0.3658
13423TIP3    H261685   2.769   0.773  17.034  1.4787  1.8789 -1.5814
13424TIP3   OH261686   1.521   6.673   0.615  0.1540 -0.1833  0.0130
13424TIP3    H161687   1.524   6.729   0.693  1.1458 -0.5668  0.2736
13424TIP3    H261688   1.569   6.594   0.641 -0.3654 -0.7370 -0.6687
13425TIP3   OH261689   5.483   6.315  14.680 -0.1294 -0.0653  0.4183
13425TIP3    H161690   5.519   6.403  14.674  0.7721 -0.4831 -0.8771
13425TIP3    H261691   5.497   6.289  14.771  1.5304  0.3712  0.3223
13426TIP3   OH261692   1.878   4.139  14.855  0.0629 -0.3849  0.4263
13426TIP3    H161693   1.802   4.087  14.882 -0.7935  1.0176  0.8360
13426TIP3    H261694   1.907   4.181  14.936 -1.0628  2.0152 -0.3462
13427TIP3   OH261695   2.593   1.863  15.691 -0.2856  0.0286  0.5493
13427TIP3    H161696   2.620   1.773  15.708 -0.4233  0.3403  2.6757
13427TIP3    H261697   2.616   1.911  15.771 -0.0685  1.9379 -0.5818
13428TIP3   OH261698   6.083   6.045  11.205  0.1932 -0.8169 -0.0903
13428TIP3    H161699   6.042   6.117  11.253 -0.9400 -0.5597 -1.3861
13428TIP3    H261700   6.083   6.074  11.114  2.1027 -1.3834 -0.3288
13429TIP3   OH261701   3.541   1.730  11.953  0.6353 -0.8954 -0.4512
13429TIP3    H161702   3.551   1.710  12.047  0.4442 -1.8418 -0.6233
13429TIP3    H261703   3.475   1.668  11.922 -0.7175  0.6835 -0.8235
13430TIP3   OH261704   2.063   4.309   5.985 -0.3478  0.5297 -0.0948
13430TIP3    H161705   2.142   4.348   6.022  0.0332  0.7006 -1.0545
13430TIP3    H261706   2.083   4.300   5.892 -1.6502  1.0494 -0.4437
13431TIP3   OH261707   0.128   1.713   5.514 -0.1848  0.5599  0.1972
13431TIP3    H161708   0.155   1.805   5.508 -0.0488  0.4803 -0.4962
13431TIP3    H261709   0.198   1.665   5.470 -0.2801  0.1261  0.5169
13432TIP3   OH261710   2.844   3.292   4.522  0.2023 -0.0084 -0.4447
13432TIP3    H161711   2.764   3.261   4.480 -0.2847  0.3375  0.2272
13432TIP3    H261712   2.826   3.286   4.616  1.8341 -2.3110 -0.1798
13433TIP3   OH261713   5.508   3.328   5.339 -0.2835 -0.5129 -0.3156
13433TIP3    H161714   5.596   3.328   5.300 -0.3822  1.4436 -0.6366
13433TIP3    H261715   5.449   3.343   5.266 -0.4367  3.7446  0.4615
13434TIP3   OH261716   0.807   2.527   2.071 -0.0177 -0.3493 -0.0456
13434TIP3    H161717   0.814   2.436   2.041  0.1878 -0.2308 -0.3587
13434TIP3    H261718   0.760   2.521   2.154 -0.8765 -0.6453 -0.5452
13435TIP3   OH261719   4.072   5.310  11.831 -0.2082 -0.4378  0.3888
13435TIP3    H161720   4.100   5.400  11.847  0.3796 -0.4635 -0.4247
13435TIP3    H261721   4.042   5.310  11.740  1.4090 -1.4237 -0.1916
13436TIP3   OH261722   4.716   1.250  12.800 -0.4154  0.1109 -0.4239
13436TIP3    H161723   4.747   1.178  12.854  1.1677  0.0669 -1.3473
13436TIP3    H261724   4.671   1.308  12.861 -0.1112 -0.7453  0.6383
13437TIP3   OH261725   5.984   5.151   0.768  0.0915 -0.6222  0.7715
13437TIP3    H161726   5.941   5.228   0.806  0.5190 -0.6969  1.4305
13437TIP3    H261727   5.945   5.076   0.812  0.1559 -0.7467  0.6200
13438TIP3   OH261728   0.128   5.532   2.523 -0.2824 -0.3100  0.3453
13438TIP3    H161729   0.049   5.514   2.574 -0.6004  0.2478  0.0545
13438TIP3    H261730   0.115   5.620   2.488 -0.2670 -0.8345 -1.0576
13439TIP3   OH261731   5.620   6.569  17.435  0.6765  0.1589 -0.6096
13439TIP3    H161732   5.675   6.596  17.362  2.8941 -0.4799  0.6907
13439TIP3    H261733   5.530   6.577  17.403  1.5395  0.2140 -3.2408
13440TIP3   OH261734   3.469   2.282  16.038  0.2734  0.5754  0.0993
13440TIP3    H161735   3.507   2.326  15.963  1.4687 -0.0723  0.2967
13440TIP3    H261736   3.515   2.319  16.114  0.4722 -0.1727  0.3527
13441TIP3   OH261737   4.886   4.241   2.156 -0.6122  0.2239 -0.4179
13441TIP3    H161738   4.817   4.258   2.220 -0.0253  0.3650  0.1882
13441TIP3    H261739   4.959   4.296   2.185 -0.7127  1.1558 -1.8503
13442TIP3   OH261740   6.167   4.599   3.912  0.0162 -0.1563  0.2300
13442TIP3    H161741   6.169   4.608   4.008 -0.8768  0.6316  0.1964
13442TIP3    H261742   6.089   4.546   3.896 -1.5484  2.0878 -0.1607
13443TIP3   OH261743   3.703   5.421  14.670 -0.0679 -0.5566 -0.1505
13443TIP3    H161744   3.783   5.473  14.677 -0.7089  0.6102 -1.3269
13443TIP3    H261745   3.651   5.446  14.746 -0.8140  1.3449 -1.2315
13444TIP3   OH261746   4.877   0.302  16.266 -0.3562  0.1489 -0.0454
13444TIP3    H161747   4.851   0.221  16.309  0.4410 -0.3756 -0.5237
13444TIP3    H261748   4.818   0.309  16.191 -0.4474  0.0219  0.0141
13445TIP3   OH261749   0.009   2.071  11.058 -0.3134  0.1552 -0.1836
13445TIP3    H161750  -0.066   2.017  11.033  1.2592 -1.4746 -1.7059
13445TIP3    H261751   0.044   2.104  10.975  0.5860  0.9619  0.4912
13446TIP3   OH261752   0.099   3.611   1.404 -0.9324  0.5832  0.1685
13446TIP3    H161753   0.189   3.638   1.385 -0.6190 -0.9990 -0.7826
13446TIP3    H261754   0.106   3.554   1.481 -0.8298 -0.9683 -0.9360
13447TIP3   OH261755   0.279   1.607   0.474 -0.7214  0.7474  0.0212
13447TIP3    H161756   0.312   1.522   0.503  0.0334  0.0870 -2.5381
13447TIP3    H261757   0.322   1.671   0.532  1.0149 -0.4364  0.1118
13448TIP3   OH261758   3.125   2.290  13.277  0.2103 -0.3088 -0.0386
13448TIP3    H161759   3.123   2.201  13.241 -0.0196 -0.5281  0.4889
13448TIP3    H261760   3.099   2.346  13.205  3.1032 -0.3587 -1.2212
13449TIP3   OH261761   6.244   5.236   4.105  0.1821 -0.0195  0.3089
13449TIP3    H161762   6.228   5.210   4.196  0.8245  0.2732  0.5058
13449TIP3    H261763   6.156   5.252   4.070 -0.1798 -1.4266  0.4780
13450TIP3   OH261764   1.997   4.780  15.232 -0.0364  0.1241 -0.7217
13450TIP3    H161765   2.086   4.765  15.264 -0.1411  1.2336  0.1801
13450TIP3    H261766   2.009   4.820  15.146  0.3914  1.2732 -0.1524
13451TIP3   OH261767   4.862   4.517  11.903  0.3119 -0.1825  0.0590
13451TIP3    H161768   4.807   4.566  11.842 -1.5581  0.6352  2.2760
13451TIP3    H261769   4.837   4.425  11.890  1.4830 -0.2950 -1.8172
13452TIP3   OH261770   4.704   1.998   3.183  0.3148  0.0310  0.6428
13452TIP3    H161771   4.625   2.017   3.133 -0.6068 -2.8460  0.8211
13452TIP3    H261772   4.692   2.044   3.266  1.4026  4.0108 -1.1736
13453TIP3   OH261773   2.371   4.030   1.183 -0.2695 -0.0348 -0.2282
13453TIP3    H161774   2.325   4.098   1.134  1.4318  0.5835 -1.0187
13453TIP3    H261775   2.360   3.951   1.129  1.1042  0.5149 -1.3626
13454TIP3   OH261776   3.696   0.332   3.647 -0.3566 -0.2430 -0.8199
13454TIP3    H161777   3.694   0.238   3.664  1.4531 -0.6435 -2.4885
13454TIP3    H261778   3.606   0.354   3.624 -0.9506 -1.4048  0.2737
13455TIP3   OH261779   5.371   5.130  15.459  0.4084  0.5410  0.0368
13455TIP3    H161780   5.314   5.174  15.522 -1.7820  0.5357 -1.8081
13455TIP3    H261781   5.438   5.086  15.513 -1.7964 -0.1518  2.3961
13456TIP3   OH261782   1.409   3.541  15.731 -0.3358  0.0482 -0.2753
13456TIP3    H161783   1.330   3.574  15.689 -0.0844  1.2815  0.1901
13456TIP3    H261784   1.378   3.487  15.804 -0.7460 -0.0662 -0.5337
13457TIP3   OH261785   0.032   4.408  14.792 -0.0356  0.2387  0.1445
13457TIP3    H161786  -0.010   4.374  14.871 -0.6548 -1.6131 -0.9413
13457TIP3    H261787   0.010   4.346  14.723  0.9697  1.4950 -1.3972
13458TIP3   OH261788   6.265   0.653  11.457  0.1108 -0.1473  0.2530
13458TIP3    H161789   6.275   0.586  11.525 -1.5018  1.5177  2.2395
13458TIP3    H261790   6.259   0.603  11.375  2.8357 -2.1987  1.1335
13459TIP3   OH261791   1.341   4.760   1.576  0.1138 -0.0062 -0.2288
13459TIP3    H161792   1.362   4.741   1.485  1.2777  0.5451 -0.0955
13459TIP3    H261793   1.426   4.766   1.620 -0.4434 -2.2443  1.3474
13460TIP3   OH261794   3.859   5.437  16.075 -0.1006  0.9592 -0.2226
13460TIP3    H161795   3.896   5.356  16.041 -0.5358  0.3045  0.8258
13460TIP3    H261796   3.878   5.502  16.007 -0.7398 -0.2514 -1.6195
13461TIP3   OH261797   5.879   3.107  14.974 -0.5246 -0.1433  0.0670
13461TIP3    H161798   5.787   3.123  14.953 -0.6306  0.3069  0.8290
13461TIP3    H261799   5.928   3.157  14.908 -0.8451  0.7683  0.4961
13462TIP3   OH261800   0.893   1.139  14.415 -0.3470  0.8491  0.3602
13462TIP3    H161801   0.907   1.225  14.376 -1.7286  0.6421 -0.6913
13462TIP3    H261802   0.799   1.136  14.432 -0.2877 -0.3766  0.5439
13463TIP3   OH261803   2.518   1.934   4.969 -0.2746 -0.0496 -0.6372
13463TIP3    H161804   2.593   1.915   4.913 -0.1696 -1.8597  0.0746
13463TIP3    H261805   2.497   1.851   5.011 -0.1375  1.2569  2.2867
13464TIP3   OH261806   1.741   3.739  16.904  0.5916 -0.0592  0.2329
13464TIP3    H161807   1.817   3.797  16.904 -0.1095  0.9440 -1.4997
13464TIP3    H261808   1.671   3.791  16.863 -0.5674 -1.5330  0.2444
13465TIP3   OH261809   3.888   2.612  14.380 -0.2782 -0.3137  0.1577
13465TIP3    H161810   3.807   2.562  14.383 -1.0812  0.9580  0.1502
13465TIP3    H261811   3.888   2.664  14.461 -0.6904  1.4872 -0.9308
13466TIP3   OH261812   3.866   2.700   2.793  0.6949  0.0055 -0.3793
13466TIP3    H161813   3.923   2.769   2.760  1.8339 -1.3609 -1.4064
13466TIP3    H261814   3.846   2.647   2.716 -2.1055  0.4895 -0.0759
13467TIP3   OH261815   1.582   0.458  10.911  0.2661  0.2866 -0.0995
13467TIP3    H161816   1.550   0.549  10.912  0.3275  0.3146  1.2492
13467TIP3    H261817   1.675   0.465  10.935  0.3978 -0.1067 -0.4707
13468TIP3   OH261818   3.872   6.088   2.118 -0.0976 -0.4538 -0.0470
13468TIP3    H161819   3.802   6.044   2.070  0.1589 -0.8369 -0.0750
13468TIP3    H261820   3.953   6.052   2.081  0.1123 -0.2146  0.1703
13469TIP3   OH261821   0.298   1.719   2.672  0.4255  0.5981  0.0730
13469TIP3    H161822   0.359   1.678   2.610  0.2880 -0.5861  0.6960
13469TIP3    H261823   0.237   1.768   2.616  2.0209  1.9733 -0.5605
13470TIP3   OH261824   1.382   4.304   4.455  0.0029 -0.0813  0.6083
13470TIP3    H161825   1.439   4.374   4.488 -0.5575  1.1713 -0.9914
13470TIP3    H261826   1.293   4.333   4.476 -0.2848  0.1369 -0.8478
13471TIP3   OH261827   2.361   1.517  11.194 -0.3418  0.4139 -0.7942
13471TIP3    H161828   2.273   1.554  11.183 -0.4641  0.4506  0.2224
13471TIP3    H261829   2.348   1.444  11.255  0.1542 -0.3167 -1.5400
13472TIP3   OH261830   3.608   2.109  14.551 -0.4808 -0.4845 -0.5161
13472TIP3    H161831   3.682   2.144  14.600 -1.4791 -1.7008  2.0398
13472TIP3    H261832   3.638   2.106  14.460  1.3748  2.1268 -0.0754
13473TIP3   OH261833   3.400   1.951  14.269 -0.3289 -0.6486 -0.1001
13473TIP3    H161834   3.341   1.965  14.194 -0.9258 -1.2848  0.2400
13473TIP3    H261835   3.484   1.929  14.230 -0.2133  0.5644 -0.6062
13474TIP3   OH261836   2.864   2.524  14.244 -0.0329  0.3698 -0.8343
13474TIP3    H161837   2.885   2.431  14.254 -1.7578 -0.1002 -1.1791
13474TIP3    H261838   2.774   2.524  14.211 -0.6415  2.2013  0.6943
13475TIP3   OH261839   0.909   4.374  15.090 -0.0829 -0.4446 -0.3947
13475TIP3    H161840   0.869   4.333  15.013 -0.2432 -1.6364  0.2931
13475TIP3    H261841   0.839   4.423  15.131 -0.8796 -2.4267  0.7411
13476TIP3   OH261842   1.285   6.577  13.107 -0.0978 -0.3685  0.0842
13476TIP3    H161843   1.265   6.574  13.200 -1.9752  0.7555 -0.2369
13476TIP3    H261844   1.372   6.537  13.100 -0.4851 -1.6962  2.1234
13477TIP3   OH261845   6.101   4.998   3.244  0.2055  0.1141 -0.4035
13477TIP3    H161846   6.164   4.934   3.211 -1.2355 -0.7563 -1.5650
13477TIP3    H261847   6.057   4.953   3.317  0.8982  0.7352  0.4296
13478TIP3   OH261848   3.579   4.003   0.432  0.1487  0.1691  0.2070
13478TIP3    H161849   3.552   4.094   0.446  1.4451  0.4621  0.9026
13478TIP3    H261850   3.666   4.009   0.394  0.9138 -0.7753  1.7228
13479TIP3   OH261851   2.741   4.881   1.570  0.3234  0.5174 -0.3080
13479TIP3    H161852   2.750   4.976   1.585  0.1333  0.5847 -0.6055
13479TIP3    H261853   2.713   4.846   1.655  0.8233  0.6658 -0.0816
13480TIP3   OH261854   5.226   2.127  11.770 -0.4758 -0.4200 -0.0342
13480TIP3    H161855   5.233   2.072  11.692  0.9831  1.0782 -1.0256
13480TIP3    H261856   5.168   2.199  11.744  3.2334  2.4124 -1.3416
13481TIP3   OH261857   3.951   6.562   2.925 -0.0448  0.0750  0.4289
13481TIP3    H161858   3.973   6.651   2.898  0.3355  0.8509  2.9854
13481TIP3    H261859   3.888   6.532   2.860  1.1264  1.5176 -1.5070
13482TIP3   OH261860   5.938   2.496   2.206  0.3469  0.5845  0.4486
13482TIP3    H161861   6.033   2.504   2.198  0.6118 -1.7399  0.7104
13482TIP3    H261862   5.919   2.408   2.175 -1.7128  0.9147  0.6608
13483TIP3   OH261863   6.043   3.082  12.838  0.2676 -0.0453  0.3269
13483TIP3    H161864   5.985   3.069  12.912 -0.7386 -0.5979 -0.5355
13483TIP3    H261865   5.985   3.087  12.762  1.3666 -1.2826 -0.6440
13484TIP3   OH261866   5.916   0.286  16.051 -0.5766 -0.2236 -0.2197
13484TIP3    H161867   5.970   0.222  16.098 -0.8595  0.3256  0.8874
13484TIP3    H261868   5.909   0.250  15.963  1.0677 -0.6360 -0.2264
13485TIP3   OH261869   4.771   2.943  13.179  0.1776  0.5382 -0.5110
13485TIP3    H161870   4.710   2.882  13.137  1.0876 -0.6270 -0.2008
13485TIP3    H261871   4.728   2.967  13.261  0.6070 -1.1945  0.2658
13486TIP3   OH261872   5.807   0.038  12.370  0.2805 -0.1634 -0.0116
13486TIP3    H161873   5.809  -0.052  12.402 -0.7908  0.5407  2.2479
13486TIP3    H261874   5.891   0.075  12.396  0.1074 -0.0853  0.4416
13487TIP3   OH261875   1.726   3.635   2.694  0.2281 -0.0702  0.5844
13487TIP3    H161876   1.744   3.543   2.715  0.8338 -0.1181 -0.1145
13487TIP3    H261877   1.690   3.671   2.775 -0.2579 -0.9849  0.7909
13488TIP3   OH261878   3.666   0.949   4.646  0.4539  0.8383 -0.4817
13488TIP3    H161879   3.690   0.957   4.738  0.0523 -0.2686 -0.2612
13488TIP3    H261880   3.589   1.005   4.636 -0.9385 -0.8025  0.4510
13489TIP3   OH261881   3.666   3.585   0.176 -0.0821  0.4346  0.2180
13489TIP3    H161882   3.742   3.541   0.138 -0.4214 -0.1853  0.2496
13489TIP3    H261883   3.591   3.544   0.133 -0.3633  2.2645 -1.1434
13490TIP3   OH261884   5.166   0.822   0.002  0.2508 -0.3152 -0.4922
13490TIP3    H161885   5.090   0.850  -0.048 -1.6531 -1.4021  1.5980
13490TIP3    H261886   5.163   0.727  -0.001  1.6559 -0.3855 -0.4937
13491TIP3   OH261887   5.118   2.036   3.570  0.0355  0.6439 -0.3924
13491TIP3    H161888   5.123   1.970   3.639  0.5718 -0.2649 -1.2758
13491TIP3    H261889   5.199   2.085   3.576  1.3286 -1.1384 -1.9929
13492TIP3   OH261890   4.765   0.755  13.214 -0.2010  0.3394  0.6300
13492TIP3    H161891   4.702   0.825  13.199 -0.6658  0.1283  1.4820
13492TIP3    H261892   4.808   0.779  13.296 -0.1150 -0.1890  0.7438
13493TIP3   OH261893   5.996   4.709   4.333 -0.3323 -0.2434 -0.2730
13493TIP3    H161894   6.058   4.670   4.272 -0.2278  0.8933 -0.9219
13493TIP3    H261895   6.032   4.795   4.354 -2.0650  0.8337 -1.3667
13494TIP3   OH261896   4.785   2.241   1.231  0.0843  0.0061  0.1115
13494TIP3    H161897   4.839   2.165   1.253 -0.4008 -0.5582 -0.5779
13494TIP3    H261898   4.846   2.315   1.234  0.4767 -0.3468  1.1937
13495TIP3   OH261899   4.547   2.116  13.515  0.2454 -0.1933 -0.0746
13495TIP3    H161900   4.492   2.097  13.438 -0.4072  0.6456  0.1674
13495TIP3    H261901   4.635   2.091  13.488 -0.1965 -1.2503 -0.5967
13496TIP3   OH261902   5.101   5.769   0.050  0.0654  0.2547 -0.0501
13496TIP3    H161903   5.021   5.733   0.013 -0.5619  0.3690  1.1403
13496TIP3    H261904   5.119   5.848  -0.001  1.3862 -1.5890 -2.6151
13497TIP3   OH261905   0.098   4.576   0.229 -0.4347 -0.3940 -0.5203
13497TIP3    H161906   0.190   4.596   0.213  0.5611 -1.8314  2.7190
13497TIP3    H261907   0.076   4.510   0.163  0.8676 -0.1173 -1.2694
13498TIP3   OH261908   6.748   0.876   5.443 -0.2542  0.4229 -0.0898
13498TIP3    H161909   6.761   0.826   5.524 -0.8168 -0.7007 -0.6787
13498TIP3    H261910   6.698   0.953   5.471  0.9207  0.8577  0.8836
13499TIP3   OH261911   3.036   5.961   0.320  0.5994  0.1611 -0.2158
13499TIP3    H161912   3.020   6.023   0.390  0.8616 -0.4094  0.3617
13499TIP3    H261913   2.986   5.883   0.344  2.4484 -0.8609  0.5288
13500TIP3   OH261914   4.464   2.753  16.633  0.1015  0.5851  0.3174
13500TIP3    H161915   4.406   2.705  16.692  1.7395 -1.5498  0.3052
13500TIP3    H261916   4.526   2.687  16.601  0.2159  1.9364 -2.6357
13501TIP3   OH261917   2.662   1.410  16.400 -0.1954  0.1800 -0.8501
13501TIP3    H161918   2.661   1.465  16.322  1.8950  0.1278 -0.9893
13501TIP3    H261919   2.660   1.320  16.366  0.9419  0.1528 -0.9095
13502TIP3   OH261920   1.265   2.185  11.470 -0.1128 -0.1407 -0.3031
13502TIP3    H161921   1.315   2.106  11.453 -0.3756 -0.5756  0.8492
13502TIP3    H261922   1.256   2.188  11.565  0.3395  1.5562 -0.2839
13503TIP3   OH261923   3.301   5.789   2.696  0.3668  0.4842  0.7200
13503TIP3    H161924   3.352   5.730   2.641  1.9246  2.3101  0.1128
13503TIP3    H261925   3.365   5.832   2.752 -0.9198  0.3948  2.3555
13504TIP3   OH261926   3.471   2.117  15.350 -0.1220 -0.1453 -0.0481
13504TIP3    H161927   3.487   2.168  15.429 -0.7016 -0.6575  0.4062
13504TIP3    H261928   3.378   2.129  15.332 -0.2192 -0.8581 -0.0561
13505TIP3   OH261929   4.461   0.901   5.450 -0.1225  0.1903  0.2224
13505TIP3    H161930   4.499   0.983   5.482  1.1413  1.3682 -3.6966
13505TIP3    H261931   4.367   0.919   5.445 -0.2274  0.3198  2.0393
13506TIP3   OH261932   3.081   0.112  13.771 -0.0177  0.1741  0.1937
13506TIP3    H161933   3.041   0.170  13.836 -1.8818  0.3229 -1.0180
13506TIP3    H261934   3.106   0.169  13.699  0.7137 -0.1849  0.1498
13507TIP3   OH261935   5.904   1.155  15.897  0.0472  0.2659 -0.4223
13507TIP3    H161936   5.856   1.237  15.886  0.1736  0.2581 -1.0694
13507TIP3    H261937   5.954   1.146  15.816  0.8473  0.0810  0.0792
13508TIP3   OH261938   3.084   6.685  16.884  0.1256 -0.0084  0.0441
13508TIP3    H161939   3.055   6.774  16.865  1.3164  0.1137 -1.4066
13508TIP3    H261940   3.174   6.682  16.852  0.4483 -1.4484  0.9843
13509TIP3   OH261941   5.406   5.044  12.147  0.0393 -0.2809 -0.3222
13509TIP3    H161942   5.391   5.135  12.172  1.5344 -0.4124  1.1704
13509TIP3    H261943   5.372   5.039  12.057  0.8376  1.9854 -0.8227
13510TIP3   OH261944   0.736   4.920   3.246  0.0583  0.3106 -0.3868
13510TIP3    H161945   0.731   5.005   3.290  0.5360  0.3910 -0.4790
13510TIP3    H261946   0.659   4.919   3.188  0.2537  0.8459 -0.6714
13511TIP3   OH261947   4.271   5.538  15.903 -0.2046 -0.6148  0.6233
13511TIP3    H161948   4.291   5.624  15.866 -0.1037 -0.4816  0.9758
13511TIP3    H261949   4.347   5.484  15.883  0.4647 -0.1574  1.8124
13512TIP3   OH261950   0.950   6.327   0.272  0.0142  0.2598  0.3090
13512TIP3    H161951   0.875   6.355   0.220 -1.0958  2.1244  2.6923
13512TIP3    H261952   0.951   6.232   0.264 -3.3054  0.0366  0.9513
13513TIP3   OH261953   2.095   1.214  13.514 -0.5130  0.1170  0.4218
13513TIP3    H161954   2.127   1.210  13.604  1.8204  0.3664 -0.3124
13513TIP3    H261955   2.054   1.129  13.499 -0.1950 -0.2381  1.4798
13514TIP3   OH261956   3.996   3.746  16.727 -0.2534 -0.0444 -0.1805
13514TIP3    H161957   4.014   3.840  16.729 -0.2526 -0.0469 -0.0831
13514TIP3    H261958   4.018   3.719  16.638  0.5032 -0.1020  0.0237
13515TIP3   OH261959   2.879   1.976  14.458  0.1847  0.2276 -0.1669
13515TIP3    H161960   2.925   1.893  14.445  0.8359  0.9744 -3.5132
13515TIP3    H261961   2.786   1.953  14.452  0.2130 -0.5646  1.6400
13516TIP3   OH261962   0.158   3.630  14.973  0.1954 -0.0599 -0.3439
13516TIP3    H161963   0.063   3.639  14.976  0.1696 -0.5004  0.2557
13516TIP3    H261964   0.173   3.544  14.934  0.2621 -1.4975  2.5987
13517TIP3   OH261965   2.257   3.392   2.256 -0.3220 -0.0667  0.2095
13517TIP3    H161966   2.242   3.324   2.322  0.1030 -0.8962 -0.5316
13517TIP3    H261967   2.347   3.379   2.228 -1.1852 -1.4154 -2.3454
13518TIP3   OH261968   2.450   5.704  17.030 -0.0183  0.2771  0.1384
13518TIP3    H161969   2.385   5.771  17.008 -0.4247  0.1998  1.0676
13518TIP3    H261970   2.417   5.663  17.110  0.5301 -0.6297 -0.0755
13519TIP3   OH261971   5.528   4.131   2.774 -0.1636  0.7985  0.0607
13519TIP3    H161972   5.503   4.056   2.828  0.0049  1.0959  0.5568
13519TIP3    H261973   5.449   4.153   2.726  0.2642 -0.8678 -1.5215
13520TIP3   OH261974   6.491   4.856  15.421  0.3592  0.3636 -0.2969
13520TIP3    H161975   6.444   4.847  15.338  0.0557 -0.2508 -0.0690
13520TIP3    H261976   6.547   4.932  15.409 -1.1055  1.4798 -0.3998
13521TIP3   OH261977   6.179   6.416   6.049 -0.7793  0.9501  1.0227
13521TIP3    H161978   6.272   6.399   6.031 -1.5796  0.5586 -4.4170
13521TIP3    H261979   6.167   6.508   6.026 -2.2191  0.0879 -2.3183
13522TIP3   OH261980   2.493   3.346   3.602 -0.2282  0.5836 -0.2377
13522TIP3    H161981   2.547   3.366   3.525 -1.4435  0.2444 -1.2145
13522TIP3    H261982   2.409   3.317   3.566 -0.6847 -0.0238  1.2246
13523TIP3   OH261983   2.241   4.696  15.341 -0.4615  0.0680  0.0856
13523TIP3    H161984   2.305   4.723  15.276 -0.9628  0.6559 -0.1733
13523TIP3    H261985   2.270   4.609  15.369  1.1244  0.8088  0.8601
13524TIP3   OH261986   1.082   0.166  10.576  0.0139  0.7353 -0.3323
13524TIP3    H161987   1.084   0.166  10.480  0.9382 -0.6708 -0.3341
13524TIP3    H261988   1.151   0.226  10.602  0.0770  0.7552 -0.5482
13525TIP3   OH261989   2.300   3.153  15.000  0.3172 -0.0557  0.1880
13525TIP3    H161990   2.382   3.114  14.970  0.2177  0.2501 -0.4943
13525TIP3    H261991   2.248   3.164  14.920 -0.9120 -1.4303  0.7502
13526TIP3   OH261992   5.286   3.119  13.786  0.1533 -0.0140  0.1935
13526TIP3    H161993   5.256   3.031  13.810  1.2388 -0.5207 -0.2403
13526TIP3    H261994   5.381   3.112  13.787  0.2446  1.1650  0.1404
13527TIP3   OH261995   2.723   6.651  14.343 -0.2493  0.7115  0.5010
13527TIP3    H161996   2.800   6.594  14.345 -0.4812  0.3749 -0.0334
13527TIP3    H261997   2.672   6.625  14.419 -0.1073  0.5521  0.5408
13528TIP3   OH261998   5.341   6.120  12.188  0.5645 -0.2052 -0.4993
13528TIP3    H161999   5.332   6.197  12.243 -0.1296 -1.2347  0.8828
13528TIP3    H262000   5.429   6.088  12.205  0.9936  0.4714 -1.3662
13529TIP3   OH262001   1.032   5.397  14.105 -0.3120 -0.1492 -0.3118
13529TIP3    H162002   0.979   5.329  14.147  0.1564 -0.6910 -0.5955
13529TIP3    H262003   0.967   5.462  14.076 -0.6289  0.4535  1.5678
13530TIP3   OH262004   1.033   4.430   3.180  0.2594 -0.3557  0.1592
13530TIP3    H162005   1.084   4.511   3.177  2.0836 -1.4480 -2.0052
13530TIP3    H262006   0.970   4.439   3.108 -0.3107 -0.4069  0.6449
13531TIP3   OH262007   0.174   5.289  12.038  0.4915 -0.1417 -0.0776
13531TIP3    H162008   0.089   5.334  12.036  0.3486 -0.3507  0.7923
13531TIP3    H262009   0.238   5.358  12.026  0.2714  0.3213  1.2289
13532TIP3   OH262010   4.922   1.967   1.983  0.0661  0.2224  0.7019
13532TIP3    H162011   4.902   1.955   2.076 -1.1496  1.3544  0.6132
13532TIP3    H262012   4.938   2.060   1.973  0.2060  0.1113 -0.2224
13533TIP3   OH262013   5.535   1.727   3.254  0.0850  0.3049 -0.1369
13533TIP3    H162014   5.536   1.688   3.166  0.2076 -1.5943  0.6541
13533TIP3    H262015   5.443   1.720   3.281 -0.0622  1.4063 -0.3045
13534TIP3   OH262016   2.735   4.603  14.009 -0.1755  0.6257  0.0609
13534TIP3    H162017   2.714   4.692  13.983 -1.7186  0.3655  0.2832
13534TIP3    H262018   2.811   4.611  14.066 -0.3699  1.8119  0.1676
13535TIP3   OH262019   5.064   3.195   1.482  0.0902 -0.4931  0.0764
13535TIP3    H162020   5.032   3.133   1.417 -1.0422 -1.4076  1.4532
13535TIP3    H262021   5.159   3.186   1.480  0.0308 -0.9587 -1.0043
13536TIP3   OH262022   5.620   5.296   3.640  0.0846 -0.3290 -0.2274
13536TIP3    H162023   5.670   5.334   3.712  0.0743 -0.9972  0.1336
13536TIP3    H262024   5.549   5.248   3.682  1.0596 -2.1669 -0.5846
13537TIP3   OH262025   2.040   6.708   2.955 -0.4877 -0.6321  0.2922
13537TIP3    H162026   2.025   6.670   2.868  1.1355  0.4411 -0.5118
13537TIP3    H262027   2.133   6.693   2.972  0.6239  3.7419 -0.5934
13538TIP3   OH262028   1.357   5.092  10.470  0.4170  0.5306  0.1351
13538TIP3    H162029   1.369   5.081  10.565 -0.4821  2.0955  0.4741
13538TIP3    H262030   1.374   5.185  10.455 -0.5898  0.5458 -1.0558
13539TIP3   OH262031   1.465   4.527  13.000 -0.0521 -0.5961  0.9564
13539TIP3    H162032   1.543   4.495  12.955  0.5267  0.5494  1.1119
13539TIP3    H262033   1.412   4.568  12.931  0.4771  0.4781  1.1657
13540TIP3   OH262034   3.107   6.507  13.326  0.6087  0.2083 -0.1346
13540TIP3    H162035   3.105   6.451  13.404  1.0614  1.3695  0.7415
13540TIP3    H262036   3.142   6.451  13.257  2.1804 -0.2823  1.0015
13541TIP3   OH262037   4.896   1.420  13.977  0.1316 -0.3455  0.4233
13541TIP3    H162038   4.978   1.412  13.928 -0.4453 -1.2998 -0.4475
13541TIP3    H262039   4.923   1.427  14.069  1.1957 -0.3429  0.1206
13542TIP3   OH262040   1.042   3.078   5.566 -0.7913  0.2291  0.3422
13542TIP3    H162041   1.091   3.046   5.490 -0.3700 -0.4363  0.8800
13542TIP3    H262042   0.960   3.110   5.530  0.1556  1.7093 -0.6371
13543TIP3   OH262043   2.910   2.135  12.775 -0.0636  0.1593  0.4382
13543TIP3    H162044   2.833   2.142  12.719  0.0039 -0.8409  0.2047
13543TIP3    H262045   2.883   2.175  12.858 -0.2534  1.4033 -0.1956
13544TIP3   OH262046   6.524   3.243  13.354  0.2555  0.7263 -0.3804
13544TIP3    H162047   6.590   3.300  13.315  0.3377  0.8116 -0.1144
13544TIP3    H262048   6.572   3.188  13.415  0.2720 -0.0429 -1.0705
13545TIP3   OH262049   2.242   5.209  13.239  0.0293  0.5269 -0.3868
13545TIP3    H162050   2.328   5.191  13.276  0.3060 -0.1025 -1.3185
13545TIP3    H262051   2.257   5.276  13.172  0.3754 -1.7901 -2.8097
13546TIP3   OH262052   6.232   4.970  13.033 -0.2362  0.0087 -0.1922
13546TIP3    H162053   6.144   4.960  12.997 -0.2790 -0.7522  0.1033
13546TIP3    H262054   6.244   5.064  13.040 -1.0248  0.1254 -0.2484
13547TIP3   OH262055   6.424   6.547   4.903  0.0796 -0.0040  0.5405
13547TIP3    H162056   6.403   6.640   4.910 -1.0273 -0.2848  1.1544
13547TIP3    H262057   6.520   6.544   4.904  0.1385  1.1533  0.0538
13548TIP3   OH262058   1.852   1.592   2.634 -0.3829  0.2298 -0.6587
13548TIP3    H162059   1.800   1.520   2.600 -0.1395 -1.0272  1.4520
13548TIP3    H262060   1.917   1.608   2.566 -0.4518 -1.5509 -1.2078
13549TIP3   OH262061   5.668   4.797   0.893 -0.4999 -0.2064 -0.1263
13549TIP3    H162062   5.707   4.792   0.805  0.7656  0.5324  0.3641
13549TIP3    H262063   5.575   4.810   0.877 -0.3498 -0.4760 -1.3587
13550TIP3   OH262064   2.434   5.930  17.220  0.2133 -0.1383  0.0418
13550TIP3    H162065   2.390   5.861  17.271  2.0199 -1.0944  0.3818
13550TIP3    H262066   2.375   6.005  17.225 -0.3947 -0.6949  2.2640
13551TIP3   OH262067   4.399   5.159   2.634  0.4668 -0.1249 -0.1393
13551TIP3    H162068   4.494   5.155   2.646  0.7239 -1.7015 -2.1284
13551TIP3    H262069   4.387   5.214   2.557 -0.2204 -0.1266 -0.0377
13552TIP3   OH262070   6.148   4.883  15.068  0.4960  0.3303  0.3150
13552TIP3    H162071   6.062   4.862  15.030  1.1856 -0.9571 -0.6002
13552TIP3    H262072   6.150   4.978  15.071 -1.7806  0.4368  2.3031
13553TIP3   OH262073   6.195   1.017   4.571 -0.2325  0.1598  0.0295
13553TIP3    H162074   6.246   0.937   4.560 -1.7700 -0.9972  0.9424
13553TIP3    H262075   6.110   0.997   4.533 -0.5566  1.4752  0.0028
13554TIP3   OH262076   4.557   2.803   4.197  0.3824 -0.6524 -0.3042
13554TIP3    H162077   4.549   2.715   4.235  0.9157  0.0496  1.5168
13554TIP3    H262078   4.471   2.843   4.213  0.0401 -0.9137 -1.3972
13555TIP3   OH262079   0.933   1.360   0.541  0.2595  0.5352  0.2443
13555TIP3    H162080   1.008   1.305   0.563 -0.8006 -0.8749  0.5007
13555TIP3    H262081   0.960   1.408   0.463  1.4418  0.1012  0.3720
13556TIP3   OH262082   6.415   4.791   0.259 -0.5434 -0.7147  0.0878
13556TIP3    H162083   6.510   4.779   0.258 -0.5707 -1.1442 -1.8087
13556TIP3    H262084   6.399   4.853   0.330  1.4488  1.4697 -1.2190
13557TIP3   OH262085   1.512   1.014   0.895 -0.3638 -0.1936 -0.3376
13557TIP3    H162086   1.455   1.086   0.922 -0.7423 -0.2897 -0.8596
13557TIP3    H262087   1.512   0.954   0.970  1.3837  1.1668  0.8410
13558TIP3   OH262088   6.297   4.451   1.318  0.0497  0.2210  0.0771
13558TIP3    H162089   6.273   4.440   1.410  1.5026  0.0242  0.4490
13558TIP3    H262090   6.324   4.542   1.310 -2.0863  0.8422 -0.6661
13559TIP3   OH262091   0.046   0.372  15.087 -0.0329  0.4445  0.1728
13559TIP3    H162092   0.028   0.464  15.069  0.3430  0.4097 -0.3932
13559TIP3    H262093   0.140   0.362  15.072 -0.3658 -0.4263 -1.5478
13560TIP3   OH262094   2.084   0.141  16.197  0.1538  0.1090  0.0371
13560TIP3    H162095   2.096   0.061  16.145 -1.0495 -0.1341  0.1060
13560TIP3    H262096   1.990   0.159  16.193  0.4073  1.5530 -0.0035
13561TIP3   OH262097   5.886   0.085   1.147 -0.1184 -0.2223 -0.6565
13561TIP3    H162098   5.946   0.097   1.073  0.5118 -0.4083 -0.1856
13561TIP3    H262099   5.892  -0.008   1.168 -0.2060 -0.1509 -0.3053
13562TIP3   OH262100   3.762   0.231  17.193  0.6211 -0.0026 -0.2823
13562TIP3    H162101   3.709   0.244  17.114 -2.6016  2.6779  1.9993
13562TIP3    H262102   3.825   0.303  17.192  1.1824 -0.4875 -0.7726
13563TIP3   OH262103   1.682   1.247  12.338 -0.3086 -0.3216  0.1593
13563TIP3    H162104   1.656   1.203  12.257 -1.1308 -0.9431  0.7471
13563TIP3    H262105   1.645   1.335  12.331  0.9850  0.1792 -0.8338
13564TIP3   OH262106   1.282   4.490   1.346 -0.1074  0.5711  0.0903
13564TIP3    H162107   1.213   4.499   1.412  0.8159  1.9888  0.9023
13564TIP3    H262108   1.324   4.576   1.343  1.5530 -0.2230 -0.4670
13565TIP3   OH262109   6.089   3.321  10.947  0.2168 -0.8012  0.2980
13565TIP3    H162110   6.183   3.325  10.932  0.2270 -1.5212  0.1217
13565TIP3    H262111   6.069   3.399  10.999  0.3188  1.4425 -2.7530
13566TIP3   OH262112   0.425   6.348  13.958  0.1932  0.6228  0.0031
13566TIP3    H162113   0.469   6.278  14.006  1.0129  0.5970 -0.7630
13566TIP3    H262114   0.335   6.347  13.991 -0.5746 -2.4707 -1.8063
13567TIP3   OH262115   0.179   6.043  12.232 -0.4348  0.0880 -0.1033
13567TIP3    H162116   0.272   6.022  12.228 -0.7833 -1.4212 -1.0501
13567TIP3    H262117   0.146   6.026  12.144 -1.1511  3.1327 -0.5484
13568TIP3   OH262118   2.194   5.092   2.513  0.0876 -0.2773  0.1539
13568TIP3    H162119   2.226   5.107   2.602 -0.1110  0.1005  0.1650
13568TIP3    H262120   2.117   5.148   2.505  1.3314  1.3679 -0.9547
13569TIP3   OH262121   5.345   4.370  11.046 -0.0660  0.6268 -0.5115
13569TIP3    H162122   5.309   4.301  11.102 -0.5781 -0.0897 -1.6637
13569TIP3    H262123   5.324   4.451  11.091 -0.1390  0.0675  0.5050
13570TIP3   OH262124   3.193   5.025   3.522 -0.8187 -0.1418  0.0268
13570TIP3    H162125   3.178   4.938   3.559 -0.8411 -0.6151 -1.0705
13570TIP3    H262126   3.178   5.015   3.428 -1.6032  1.2396 -0.0157
13571TIP3   OH262127   5.034   6.085   2.279 -0.5510  0.3741  0.2045
13571TIP3    H162128   5.107   6.061   2.336 -2.8857 -0.6768  2.9915
13571TIP3    H262129   5.069   6.155   2.224  3.2354 -1.7324 -0.3921
13572TIP3   OH262130   6.320   4.125  12.864  0.2957 -0.3305 -0.5587
13572TIP3    H162131   6.299   4.185  12.792  0.6497 -0.4836 -0.7932
13572TIP3    H262132   6.412   4.143  12.884  0.1719 -0.2268 -0.0810
13573TIP3   OH262133   6.389   3.981  13.301  0.2849  0.4110 -0.1866
13573TIP3    H162134   6.331   4.052  13.328  0.3213  0.8039 -1.0966
13573TIP3    H262135   6.358   3.905  13.349 -0.1765  0.8986  0.3002
13574TIP3   OH262136   5.809   4.618   5.264  0.4844 -0.3965 -0.1030
13574TIP3    H162137   5.782   4.607   5.173 -0.3726 -2.1728  0.3180
13574TIP3    H262138   5.890   4.668   5.259 -0.3054  0.8030 -1.7335
13575TIP3   OH262139   6.656   2.134  16.432  0.7162  0.2231 -0.0645
13575TIP3    H162140   6.747   2.108  16.448  0.4076  0.5664  2.6744
13575TIP3    H262141   6.610   2.112  16.513 -1.6045  0.3632 -1.2591
13576TIP3   OH262142   5.076   0.938  12.391  0.1452 -0.6671 -0.3794
13576TIP3    H162143   5.009   0.980  12.337  0.2126 -0.3120 -0.1865
13576TIP3    H262144   5.139   1.007  12.409  1.3547 -1.3524 -1.8031
13577TIP3   OH262145   3.166   5.997  11.697 -0.6215 -0.1877 -0.5154
13577TIP3    H162146   3.180   5.935  11.626 -0.4308 -0.4243 -0.2712
13577TIP3    H262147   3.077   5.979  11.727 -1.6988  1.5928 -2.3419
13578TIP3   OH262148   6.648   6.109   2.924  0.3671 -0.1342 -0.2454
13578TIP3    H162149   6.593   6.035   2.898  0.6393 -0.5177  0.2438
13578TIP3    H262150   6.737   6.073   2.923  0.5781  0.4016 -0.7531
13579TIP3   OH262151   4.297   4.749   5.633 -0.2471  0.3245  0.4394
13579TIP3    H162152   4.325   4.666   5.671  0.9363  0.1278 -0.7909
13579TIP3    H262153   4.341   4.816   5.684  0.1750  0.1221  0.3431
13580TIP3   OH262154   0.652   3.159   5.716 -0.3660 -0.1798  0.1019
13580TIP3    H162155   0.656   3.069   5.686  0.3356 -0.3832  0.7798
13580TIP3    H262156   0.577   3.161   5.775 -1.9271  0.2870 -1.7812
13581TIP3   OH262157   5.286   1.174  14.121 -0.2834  0.5074  0.2387
13581TIP3    H162158   5.293   1.145  14.212  0.0626 -1.1177 -0.2617
13581TIP3    H262159   5.275   1.269  14.126 -1.9969  0.2662  2.0346
13582TIP3   OH262160   1.592   4.930   2.239  0.1185 -0.4780 -0.0682
13582TIP3    H162161   1.608   4.917   2.146  0.3993 -2.2567  0.1892
13582TIP3    H262162   1.498   4.916   2.249  0.2718 -1.5102  0.0656
13583TIP3   OH262163   3.800   1.577   4.398 -0.1778  0.8062  0.2346
13583TIP3    H162164   3.888   1.606   4.373 -0.4465  0.9707 -0.5742
13583TIP3    H262165   3.742   1.626   4.339 -0.7499 -0.0098  0.1068
13584TIP3   OH262166   0.172   0.570  14.067  0.0034  0.2454 -0.2121
13584TIP3    H162167   0.192   0.663  14.079  1.3012  0.0343 -0.6249
13584TIP3    H262168   0.084   0.569  14.029 -0.2767  1.2715  0.3645
13585TIP3   OH262169   0.564   5.968   0.478 -0.5647 -0.7887 -0.0805
13585TIP3    H162170   0.477   5.949   0.444 -0.1144 -1.5101 -0.8482
13585TIP3    H262171   0.622   5.910   0.430  0.0757 -2.1130  2.1619
13586TIP3   OH262172   0.895   4.578   1.320 -0.9061 -0.4944  0.2540
13586TIP3    H162173   0.931   4.632   1.391 -2.2712 -0.2876  0.8283
13586TIP3    H262174   0.802   4.601   1.318 -0.7886  0.0594 -2.1023
13587TIP3   OH262175   5.668   6.445  12.179  0.6664 -0.2409  0.2805
13587TIP3    H162176   5.708   6.454  12.093  0.2284  1.8583  0.2508
13587TIP3    H262177   5.583   6.404  12.162  0.4637  0.4077 -0.3501
13588TIP3   OH262178   5.961   3.586  13.014  0.3470 -0.1111 -0.0238
13588TIP3    H162179   5.889   3.533  13.049  1.5616 -1.8723 -0.0966
13588TIP3    H262180   6.008   3.527  12.955  0.5584  1.6774 -1.7493
13589TIP3   OH262181   4.548   5.406   5.700  0.0698 -0.3397 -0.4231
13589TIP3    H162182   4.456   5.415   5.674 -0.0369 -0.1496  0.0137
13589TIP3    H262183   4.558   5.313   5.718 -0.0998 -0.3215 -0.2362
13590TIP3   OH262184   1.291   3.299  15.485  0.1502  0.0377 -0.0621
13590TIP3    H162185   1.374   3.264  15.453  1.0686  1.3865  0.7683
13590TIP3    H262186   1.290   3.390  15.456 -1.9295 -0.4172 -1.6817
13591TIP3   OH262187   2.928   0.998   0.449  0.4960  0.3656 -0.1492
13591TIP3    H162188   2.922   0.925   0.388  2.0092  0.3273 -0.2952
13591TIP3    H262189   2.896   1.074   0.400 -0.2129 -0.0201 -0.2967
13592TIP3   OH262190   5.434   5.215  12.940 -0.0921  0.9059  0.4442
13592TIP3    H162191   5.390   5.167  13.010 -1.5623  0.2718 -0.8526
13592TIP3    H262192   5.383   5.296  12.930  1.8200  2.4046  1.9926
13593TIP3   OH262193   5.322   4.121   3.507 -0.2311  0.2579  0.1925
13593TIP3    H162194   5.308   4.141   3.600  1.0313 -1.3080  0.7800
13593TIP3    H262195   5.313   4.026   3.502 -0.2824  0.3268 -1.3092
13594TIP3   OH262196   5.039   3.029  15.702  0.1210 -0.0667 -0.1104
13594TIP3    H162197   5.099   3.059  15.770 -1.5235 -0.6993  1.7078
13594TIP3    H262198   4.952   3.039  15.741 -0.7757 -2.2633 -1.3741
13595TIP3   OH262199   6.479   4.295   5.994  0.0654  0.7346  0.2106
13595TIP3    H162200   6.433   4.362   6.045  0.0239  0.3344  0.6979
13595TIP3    H262201   6.545   4.261   6.054 -1.0105 -0.8605  0.5571
13596TIP3   OH262202   2.285   1.751  16.345  0.1515  0.3711  0.2555
13596TIP3    H162203   2.264   1.761  16.252 -0.3309  0.5006  0.3755
13596TIP3    H262204   2.374   1.786  16.354 -1.0998  3.7739  0.5119
13597TIP3   OH262205   0.812   2.337  12.713 -0.6467  0.1103 -0.1742
13597TIP3    H162206   0.807   2.250  12.753  1.9506 -0.6541 -1.2864
13597TIP3    H262207   0.900   2.368  12.733 -0.9910  1.8429 -1.1182
13598TIP3   OH262208   5.217   4.934  12.873 -0.0543 -0.4138  0.1826
13598TIP3    H162209   5.305   4.935  12.911 -0.5603  0.0790  1.4187
13598TIP3    H262210   5.227   4.891  12.788  1.4617  0.0966  0.0748
13599TIP3   OH262211   3.549   5.195  14.657 -0.5176 -0.0912 -0.1361
13599TIP3    H162212   3.600   5.276  14.659 -0.4961 -0.1192  1.4602
13599TIP3    H262213   3.590   5.143  14.588 -0.4020  1.1556 -1.0500
13600TIP3   OH262214   4.365   0.185   1.749  0.3539  0.3643  0.4183
13600TIP3    H162215   4.359   0.265   1.802 -1.7706 -0.3433  1.3355
13600TIP3    H262216   4.434   0.133   1.793  0.8536  1.1335  0.5642
13601TIP3   OH262217   5.173   6.467   5.059  0.2505  0.8020  0.6944
13601TIP3    H162218   5.210   6.552   5.033  1.6419 -0.0687 -0.2803
13601TIP3    H262219   5.080   6.485   5.071  0.1328  2.0693 -1.4809
13602TIP3   OH262220   5.301   3.932  13.054 -0.1499  0.3392  0.8197
13602TIP3    H162221   5.336   3.843  13.043 -1.2470 -0.0345  0.1889
13602TIP3    H262222   5.207   3.919  13.071 -0.2863  1.3724  0.9179
13603TIP3   OH262223   0.366   1.506  14.472 -0.4551  0.2284 -0.4921
13603TIP3    H162224   0.273   1.488  14.483 -1.1197  1.4984 -3.3231
13603TIP3    H262225   0.398   1.432  14.420  0.3059 -0.4772  0.9092
13604TIP3   OH262226   0.322   0.582  16.454  0.0817  0.1069  0.3817
13604TIP3    H162227   0.404   0.563  16.408 -0.3525 -0.1462 -0.3051
13604TIP3    H262228   0.340   0.663  16.501  0.6767  0.1437  0.1093
13605TIP3   OH262229   5.804   3.968  13.088 -0.1028 -0.4957 -0.2676
13605TIP3    H162230   5.773   3.984  13.177 -0.8654 -2.0817 -0.2193
13605TIP3    H262231   5.887   3.922  13.100 -0.2400 -0.7718 -0.3661
13606TIP3   OH262232   6.197   3.726  12.202  0.0627 -0.1342 -0.1011
13606TIP3    H162233   6.211   3.662  12.132  1.9513  1.8111 -1.6721
13606TIP3    H262234   6.277   3.779  12.201 -2.0425  3.3325 -0.1628
13607TIP3   OH262235   3.220   5.507   0.050  0.1660  0.1522  0.0712
13607TIP3    H162236   3.198   5.600   0.061  1.0650  0.2576  1.2800
13607TIP3    H262237   3.262   5.502  -0.036  0.8935  1.0528  0.3508
13608TIP3   OH262238   4.598   3.916   0.465 -0.6277 -0.4582 -0.5766
13608TIP3    H162239   4.524   3.975   0.471  1.5862  2.4527  3.7655
13608TIP3    H262240   4.583   3.852   0.535  1.6219  1.4694  1.8984
13609TIP3   OH262241   3.636   5.305  15.985 -0.1780  0.0550 -0.1701
13609TIP3    H162242   3.711   5.340  16.034  0.3584 -0.4026 -0.6551
13609TIP3    H262243   3.599   5.381  15.940 -1.1484  0.6342  1.5185
13610TIP3   OH262244   6.193   1.335   1.713  0.1542  0.2681  0.4928
13610TIP3    H162245   6.195   1.343   1.618  2.1150  1.8887  0.5856
13610TIP3    H262246   6.215   1.243   1.730  1.0826  0.2623 -0.6224
13611TIP3   OH262247   1.128   6.042   3.991  0.5281  0.2502  0.2087
13611TIP3    H162248   1.188   6.074   3.923  0.4447  1.4243  0.6707
13611TIP3    H262249   1.177   5.974   4.036  1.5818  1.2667  0.6547
13612TIP3   OH262250   2.493   6.036  12.558 -0.2365  0.1585 -0.5371
13612TIP3    H162251   2.432   5.970  12.592 -0.0110 -0.5096 -1.3725
13612TIP3    H262252   2.566   6.036  12.619  0.3668 -1.3318 -1.1902
13613TIP3   OH262253   0.193   1.392   2.087 -0.6013  0.6704  0.0750
13613TIP3    H162254   0.111   1.358   2.051 -0.0236  0.4163 -1.0775
13613TIP3    H262255   0.175   1.484   2.105 -0.7258  1.0405 -1.6919
13614TIP3   OH262256   2.823   6.737   0.625 -0.1163  0.7447  0.4036
13614TIP3    H162257   2.897   6.794   0.643  0.2935  0.0223  1.0773
13614TIP3    H262258   2.794   6.707   0.712 -0.2175 -0.1846  0.0640
13615TIP3   OH262259   0.461   4.735  12.558  0.1254 -0.2496 -0.0038
13615TIP3    H162260   0.442   4.708  12.648 -0.5437 -2.6402 -0.8048
13615TIP3    H262261   0.405   4.680  12.503  1.2669  0.4175 -1.9523
13616TIP3   OH262262   6.442   0.368  13.313  0.5388 -0.2628 -0.3396
13616TIP3    H162263   6.397   0.292  13.277 -1.3065  0.4819  0.2851
13616TIP3    H262264   6.435   0.434  13.244 -0.1746  0.1501  0.1186
13617TIP3   OH262265   3.612   2.579  16.252  0.0558  0.3907  0.1811
13617TIP3    H162266   3.665   2.645  16.207  2.1533 -0.4165  1.3042
13617TIP3    H262267   3.605   2.612  16.342 -0.5423  0.0036  0.2809
13618TIP3   OH262268   2.253   1.165   4.127 -0.0746  0.5165 -0.4012
13618TIP3    H162269   2.339   1.131   4.102 -0.3209 -0.8017  0.4376
13618TIP3    H262270   2.196   1.088   4.127 -1.3703  1.4332 -1.3486
13619TIP3   OH262271   3.031   4.701   6.069  0.2005  0.2098  0.1253
13619TIP3    H162272   3.006   4.774   6.125  0.5077  0.6351 -0.2952
13619TIP3    H262273   2.989   4.719   5.985 -0.5567 -0.6046  0.3047
13620TIP3   OH262274   3.500   2.371   0.476 -0.0062 -0.1141 -0.2774
13620TIP3    H162275   3.541   2.415   0.550  0.4779  2.9789 -2.2290
13620TIP3    H262276   3.573   2.336   0.425 -0.2714 -1.0845 -0.0228
13621TIP3   OH262277   4.166   0.322   3.088 -0.1630  0.5931  0.0201
13621TIP3    H162278   4.168   0.293   3.179 -0.5801  2.4698  0.6567
13621TIP3    H262279   4.074   0.311   3.062 -0.1302  0.4726 -0.0496
13622TIP3   OH262280   6.710   1.358  11.240 -0.8233  0.0835  0.6436
13622TIP3    H162281   6.720   1.350  11.145 -1.3142 -0.2704  0.6127
13622TIP3    H262282   6.693   1.268  11.269 -2.2064  0.3998  0.8702
13623TIP3   OH262283   3.802   0.909  17.013 -0.2821  0.4389  0.0205
13623TIP3    H162284   3.835   0.953  17.091  0.1367  1.6286 -0.8003
13623TIP3    H262285   3.707   0.919  17.018 -0.3409 -0.3692  0.8627
13624TIP3   OH262286   0.465   3.946  10.698 -0.0298  0.1966 -0.9554
13624TIP3    H162287   0.379   3.975  10.669 -0.6071  0.5333  1.0017
13624TIP3    H262288   0.475   3.860  10.658 -2.5183 -1.1125  0.9638
13625TIP3   OH262289   3.535   6.299  14.800 -0.6716  0.0965  0.0629
13625TIP3    H162290   3.597   6.273  14.868 -0.3823  0.5851 -0.0095
13625TIP3    H262291   3.506   6.216  14.762 -1.4354 -0.2236  1.2912
13626TIP3   OH262292   5.502   4.329  14.654  0.1884 -0.8905 -0.3218
13626TIP3    H162293   5.440   4.269  14.614 -0.5016 -0.8947  0.7096
13626TIP3    H262294   5.488   4.318  14.748 -2.0638  2.9289  0.0040
13627TIP3   OH262295   3.936   3.715  12.130 -0.3362  0.0743  0.3530
13627TIP3    H162296   3.870   3.656  12.094 -1.0094  1.4038 -0.7331
13627TIP3    H262297   3.900   3.803  12.115  0.4806  0.7706  2.1744
13628TIP3   OH262298   0.427   3.202  15.268  0.4777  0.1780  0.1251
13628TIP3    H162299   0.424   3.280  15.323  0.9774 -0.3979  1.0033
13628TIP3    H262300   0.510   3.159  15.292  0.5644 -0.2372 -0.8773
13629TIP3   OH262301   6.739   3.921  14.515 -0.2050 -0.6471 -0.3725
13629TIP3    H162302   6.755   3.832  14.547 -0.8608 -0.9120 -0.7640
13629TIP3    H262303   6.645   3.935  14.530 -0.6262 -0.9314 -2.5231
13630TIP3   OH262304   6.270   1.088  16.431  0.1733  0.1598  0.0883
13630TIP3    H162305   6.249   1.160  16.490 -0.3061 -0.2120  0.3833
13630TIP3    H262306   6.206   1.020  16.453  0.4697 -0.2646 -0.3450
13631TIP3   OH262307   6.606   3.038   4.977 -0.2376 -0.4637  0.6391
13631TIP3    H162308   6.619   2.990   4.895  1.4578  0.9738 -0.0002
13631TIP3    H262309   6.624   2.973   5.046  0.8075 -1.0788 -0.1744
13632TIP3   OH262310   0.511   6.576  12.111 -0.6199 -0.2222 -0.1285
13632TIP3    H162311   0.488   6.498  12.161  1.2416 -0.1127  0.9872
13632TIP3    H262312   0.488   6.649  12.168  0.6269 -0.0667  0.1965
13633TIP3   OH262313   5.282   5.420  10.878  0.4316  0.0307  0.0077
13633TIP3    H162314   5.195   5.381  10.870  1.3761 -3.2554  3.1082
13633TIP3    H262315   5.266   5.512  10.898 -2.1300  0.2934 -2.6676
13634TIP3   OH262316   2.406   5.582  14.254 -0.2232 -0.2413 -0.2823
13634TIP3    H162317   2.439   5.501  14.216 -0.8186 -1.1000  0.9452
13634TIP3    H262318   2.437   5.651  14.196  1.6093 -1.2126 -0.5177
13635TIP3   OH262319   4.293   5.895  12.296 -0.1824 -0.0154 -0.5007
13635TIP3    H162320   4.200   5.917  12.301  0.1108  1.1066  4.1794
13635TIP3    H262321   4.337   5.961  12.350  3.2215 -1.1971 -1.5739
13636TIP3   OH262322   0.927   1.334   6.612  0.3449  0.4362 -0.1299
13636TIP3    H162323   0.988   1.393   6.569  0.7814  0.4977  0.5487
13636TIP3    H262324   0.955   1.246   6.585  1.5085  0.3893  1.0981
13637TIP3   OH262325   1.124   5.194  12.678  0.1658  0.1857  0.4442
13637TIP3    H162326   1.179   5.202  12.756 -2.5866 -1.1289  2.7000
13637TIP3    H262327   1.049   5.251  12.696 -0.2875  0.2721 -1.5329
13638TIP3   OH262328   1.786   4.462   0.381 -0.2397  0.7057 -0.3358
13638TIP3    H162329   1.802   4.545   0.336 -0.5679  1.0532  0.1786
13638TIP3    H262330   1.798   4.482   0.474 -3.4268  1.0076  0.1285
13639TIP3   OH262331   2.063   1.163  12.462 -0.1973  0.6927 -0.5700
13639TIP3    H162332   1.993   1.187  12.401 -0.3342  0.6903 -0.4117
13639TIP3    H262333   2.040   1.208  12.543  0.1307  0.9209 -0.5994
13640TIP3   OH262334   5.588   3.966  16.403 -0.1397 -0.5022  0.5312
13640TIP3    H162335   5.631   3.923  16.477 -1.8591 -1.7680  0.8330
13640TIP3    H262336   5.570   4.055  16.435  0.8768 -0.4115  0.9118
13641TIP3   OH262337   2.624   4.068  11.453  0.1901  0.0130  0.0246
13641TIP3    H162338   2.639   4.138  11.389  0.4604  0.6634  0.7876
13641TIP3    H262339   2.653   3.988  11.408  0.6231  0.4953 -0.5758
13642TIP3   OH262340   0.231   2.199   5.892 -0.1493 -0.1391  0.2659
13642TIP3    H162341   0.247   2.247   5.810 -0.3735  0.2654  0.4511
13642TIP3    H262342   0.296   2.233   5.953 -0.8879  0.6132  0.6646
13643TIP3   OH262343   4.319   5.362  16.815 -0.4527  0.4451  0.1102
13643TIP3    H162344   4.354   5.308  16.886  2.9451  1.9890 -0.2069
13643TIP3    H262345   4.284   5.298  16.753 -0.1077 -1.1566  1.4760
13644TIP3   OH262346   6.707   1.511  16.153  0.6728 -0.0563 -0.0398
13644TIP3    H162347   6.636   1.574  16.138  0.2448 -0.5056  0.1015
13644TIP3    H262348   6.750   1.504  16.068 -3.2572 -4.4804 -2.1114
13645TIP3   OH262349   2.439   0.028  10.174  0.3665  0.5185 -0.3841
13645TIP3    H162350   2.345   0.011  10.174  0.2265  0.8344  2.1229
13645TIP3    H262351   2.446   0.123  10.162  0.3643  0.4949 -0.5710
13646TIP3   OH262352   2.530   0.144  11.946  0.4869 -0.0085  0.0385
13646TIP3    H162353   2.612   0.114  11.908  0.0946 -0.2504 -0.6454
13646TIP3    H262354   2.493   0.203  11.880 -0.6473 -1.1607 -0.3925
13647TIP3   OH262355   1.930   2.285   0.671 -0.4481  0.0904  0.1569
13647TIP3    H162356   1.869   2.214   0.650 -0.1228 -0.1844  0.1396
13647TIP3    H262357   1.988   2.248   0.737  0.3183  0.0333 -0.5331
13648TIP3   OH262358   2.263   0.434   6.161 -0.1990 -0.3858 -0.4174
13648TIP3    H162359   2.271   0.366   6.094  2.0583 -0.1328 -0.4585
13648TIP3    H262360   2.259   0.516   6.112  1.3176 -0.2113 -0.2990
13649TIP3   OH262361   5.504   0.918   4.122  0.1738 -0.7453 -0.2489
13649TIP3    H162362   5.486   0.824   4.123  0.0152 -0.7778  2.7397
13649TIP3    H262363   5.419   0.959   4.106 -0.4645 -1.1040  1.9545
13650TIP3   OH262364   6.234   0.334   5.690 -0.3533 -0.5704 -0.0016
13650TIP3    H162365   6.262   0.255   5.735  1.8710  0.6010  0.8652
13650TIP3    H262366   6.221   0.398   5.760 -0.2826  0.3281 -0.7841
13651TIP3   OH262367   6.558   0.939   0.196  0.4958  0.2706  0.9026
13651TIP3    H162368   6.595   0.853   0.217  1.5478  0.0253 -1.6057
13651TIP3    H262369   6.626   1.002   0.220 -0.1253  0.4105  2.3851
13652TIP3   OH262370   1.521   4.772   0.059 -0.1085 -0.2223 -0.7808
13652TIP3    H162371   1.505   4.736  -0.028 -1.3432 -0.2695 -0.5563
13652TIP3    H262372   1.434   4.781   0.097  0.4274 -0.4603  0.5504
13653TIP3   OH262373   2.683   0.072  15.535 -0.4572 -0.2114  0.2654
13653TIP3    H162374   2.698   0.164  15.554  0.0058 -0.1650 -0.3126
13653TIP3    H262375   2.608   0.048  15.590 -0.4032  0.4313  0.6258
13654TIP3   OH262376   2.497   1.278   4.774 -0.0399  0.2124 -0.3864
13654TIP3    H162377   2.507   1.373   4.778  0.1273  0.2270 -1.0921
13654TIP3    H262378   2.409   1.264   4.739 -1.2071  0.0837  2.3180
13655TIP3   OH262379   1.574   4.165  15.232 -0.0618  0.3121  0.1614
13655TIP3    H162380   1.578   4.251  15.191  1.5674 -0.4235 -1.3186
13655TIP3    H262381   1.617   4.106  15.170 -1.4890 -1.6753  0.9363
13656TIP3   OH262382   2.871   2.767  12.587 -0.1022  0.1555  0.4572
13656TIP3    H162383   2.923   2.706  12.638  0.3060  0.4672  0.4156
13656TIP3    H262384   2.781   2.752  12.617 -0.2067 -1.4122 -0.4963
13657TIP3   OH262385   5.631   6.312  14.445 -0.3133 -0.0539  0.1673
13657TIP3    H162386   5.555   6.304  14.502  0.2527 -0.0525  0.9455
13657TIP3    H262387   5.676   6.391  14.475  1.4260 -1.4731  1.5364
13658TIP3   OH262388   3.151   0.105  15.453  0.0672 -0.7983 -0.0588
13658TIP3    H162389   3.077   0.097  15.392  0.9530  1.1608 -1.4978
13658TIP3    H262390   3.215   0.041  15.421  0.5079  0.1822 -1.2496
13659TIP3   OH262391   3.061   6.708   2.207  0.2593 -0.0556 -0.0399
13659TIP3    H162392   3.109   6.627   2.193  0.0600 -0.4692  1.4981
13659TIP3    H262393   2.983   6.699   2.152 -0.2785 -1.3942  0.8797
13660TIP3   OH262394   5.118   6.576   5.587 -0.6128 -0.1808  0.1874
13660TIP3    H162395   5.166   6.644   5.636 -0.0663 -0.6734  0.3407
13660TIP3    H262396   5.133   6.598   5.495  1.3053 -1.2488  0.1830
13661TIP3   OH262397   1.749   3.666  11.160  0.0969  0.7291 -0.3469
13661TIP3    H162398   1.713   3.631  11.079 -0.4652  1.3474 -0.3745
13661TIP3    H262399   1.811   3.599  11.190  1.8986  1.3647 -2.3544
13662TIP3   OH262400   2.093   6.023   3.001  0.4714  0.0343  0.0465
13662TIP3    H162401   2.042   5.995   2.926  1.1403 -0.4107 -0.2496
13662TIP3    H262402   2.183   6.032   2.967  0.3113  2.6734  0.0553
13663TIP3   OH262403   2.390   1.429  15.338  0.4098 -0.5166 -0.3211
13663TIP3    H162404   2.361   1.358  15.280 -1.3721  0.9395 -1.3196
13663TIP3    H262405   2.411   1.501  15.279  1.0824  0.1663  0.7233
13664TIP3   OH262406   4.265   1.800   0.356  0.3222 -0.1265  0.3737
13664TIP3    H162407   4.334   1.832   0.414  1.0976 -0.1029 -0.5542
13664TIP3    H262408   4.251   1.709   0.384  1.7537 -0.5973 -0.3781
13665TIP3   OH262409   6.568   5.737   4.091  0.2976  0.3377 -0.2907
13665TIP3    H162410   6.527   5.681   4.026  3.6532 -3.9579  0.7891
13665TIP3    H262411   6.503   5.746   4.160 -1.7805  1.4213 -2.2570
13666TIP3   OH262412   1.475   4.975   5.740  0.0915  0.5334 -0.2793
13666TIP3    H162413   1.447   4.924   5.663  0.5863  2.8506 -2.0856
13666TIP3    H262414   1.569   4.957   5.748  0.2014  0.9100 -0.7142
13667TIP3   OH262415   3.391   1.700   5.396 -0.1013 -0.4219 -0.0040
13667TIP3    H162416   3.360   1.788   5.420  0.6305  0.6912 -2.7415
13667TIP3    H262417   3.324   1.641   5.432  0.0587  1.0456  3.0762
13668TIP3   OH262418   6.428   6.076  11.192 -0.0147  0.2964  0.4344
13668TIP3    H162419   6.400   6.122  11.271  0.6255  0.2057  0.7165
13668TIP3    H262420   6.347   6.064  11.141 -0.7664 -1.1825  1.8656
13669TIP3   OH262421   4.920   6.519  16.598  0.0242 -0.5066 -0.1449
13669TIP3    H162422   4.852   6.536  16.663  0.1234 -1.6399  0.2852
13669TIP3    H262423   4.979   6.594  16.604  0.0923 -0.6453  1.1613
13670TIP3   OH262424   2.942   0.397   2.754  0.0196 -0.6925  0.5644
13670TIP3    H162425   2.955   0.492   2.742  1.2331 -1.0225 -1.0845
13670TIP3    H262426   3.007   0.373   2.821 -0.6975 -0.2811  1.4265
13671TIP3   OH262427   4.125   2.803  15.753  0.4582 -0.1496  0.1173
13671TIP3    H162428   4.174   2.776  15.675  1.5764 -1.1184  1.1185
13671TIP3    H262429   4.163   2.752  15.824  0.2407  1.5498  1.5157
13672TIP3   OH262430   5.993   4.931  12.131 -0.4351  0.0554  0.1982
13672TIP3    H162431   6.001   4.968  12.043  2.3389 -0.9389 -0.0744
13672TIP3    H262432   5.946   4.998  12.181  0.4829  1.9508 -1.3334
13673TIP3   OH262433   0.264   1.156   5.967 -0.3602 -0.9222 -0.0887
13673TIP3    H162434   0.179   1.120   5.992 -0.3391 -0.4270  0.7256
13673TIP3    H262435   0.287   1.216   6.038 -0.3569  0.6233 -1.3407
13674TIP3   OH262436   2.346   5.948   4.636  0.6722  0.1798  0.1217
13674TIP3    H162437   2.302   6.030   4.615 -1.1176 -0.3104  1.7278
13674TIP3    H262438   2.342   5.941   4.731 -0.4183 -2.3770 -0.0164
13675TIP3   OH262439   2.577   3.684  15.597  0.6248  0.2056 -0.5463
13675TIP3    H162440   2.618   3.736  15.666 -1.2963  0.5548  0.3891
13675TIP3    H262441   2.648   3.627  15.566  1.2601 -0.9998  2.6983
13676TIP3   OH262442   6.136   5.230   5.574  0.1334  0.2575 -0.1848
13676TIP3    H162443   6.143   5.186   5.659  0.1510 -0.0986 -0.3712
13676TIP3    H262444   6.054   5.279   5.579  0.4580  0.7710  0.2840
13677TIP3   OH262445   0.729   2.687  13.702  0.6450  0.0211  0.0380
13677TIP3    H162446   0.678   2.712  13.625  1.1268 -0.8921 -0.5997
13677TIP3    H262447   0.817   2.671  13.668  0.2529 -3.1879  0.1831
13678TIP3   OH262448   4.188   2.482   0.735 -0.3166  0.1026 -0.3190
13678TIP3    H162449   4.134   2.434   0.673  2.0652 -1.3520 -1.4312
13678TIP3    H262450   4.272   2.492   0.691  0.4275  2.0722  1.3772
13679TIP3   OH262451   5.435   1.322  14.715  0.0843 -0.0985  0.2720
13679TIP3    H162452   5.411   1.414  14.708  1.5193  0.2824 -0.0628
13679TIP3    H262453   5.495   1.307  14.641  3.1262 -0.1923  2.5573
13680TIP3   OH262454   3.210   1.366  14.708  0.4982  0.7260  0.1502
13680TIP3    H162455   3.125   1.396  14.678  0.5261 -1.1218 -2.0457
13680TIP3    H262456   3.191   1.309  14.783 -0.2300  0.2091 -0.4184
13681TIP3   OH262457   6.189   0.512   5.069  0.0099  0.0040 -0.3209
13681TIP3    H162458   6.191   0.484   5.160 -0.7218 -0.0598 -0.3143
13681TIP3    H262459   6.281   0.519   5.043  0.2218 -1.2819  0.0223
13682TIP3   OH262460   6.506   4.526   3.075  0.0854 -0.1445 -0.0643
13682TIP3    H162461   6.412   4.512   3.067  0.1278 -0.8919  0.6329
13682TIP3    H262462   6.522   4.536   3.169  0.5865  0.8900 -0.2448
13683TIP3   OH262463   0.635   2.569  14.999 -0.3976  0.1803  0.1170
13683TIP3    H162464   0.646   2.481  15.035 -0.2110 -0.3126 -1.0721
13683TIP3    H262465   0.721   2.609  15.007  0.0942 -0.5278 -1.2364
13684TIP3   OH262466   2.284   5.747   3.849  0.3508 -0.0359 -0.0286
13684TIP3    H162467   2.333   5.682   3.899 -0.6991 -2.5721 -2.0751
13684TIP3    H262468   2.262   5.703   3.767 -2.5837  2.0823 -0.5351
13685TIP3   OH262469   4.727   2.632   3.554  0.6420  0.2965  0.1156
13685TIP3    H162470   4.768   2.626   3.640  2.5345 -0.1152 -0.7700
13685TIP3    H262471   4.640   2.593   3.567  1.2298 -0.6339  1.6316
13686TIP3   OH262472   0.788   1.527   4.569  0.1015  0.1575  0.1995
13686TIP3    H162473   0.706   1.513   4.523  0.3018  1.0467 -0.4555
13686TIP3    H262474   0.783   1.470   4.646 -0.7105 -0.5059 -0.3346
13687TIP3   OH262475   3.262   3.908   3.850  0.3324 -0.3587  0.0976
13687TIP3    H162476   3.260   3.823   3.805 -1.9989 -0.3788  0.1135
13687TIP3    H262477   3.297   3.888   3.937 -1.4049 -1.5955  0.5554
13688TIP3   OH262478   1.708   4.869   3.927  0.6067 -0.1466  0.4312
13688TIP3    H162479   1.668   4.787   3.899  0.6108 -0.2064  0.6001
13688TIP3    H262480   1.685   4.931   3.858  0.4873 -0.2550  0.3717
13689TIP3   OH262481   5.558   5.956  17.382  0.2501 -0.0398  0.0349
13689TIP3    H162482   5.478   6.006  17.368  0.5125  0.3913  0.0689
13689TIP3    H262483   5.586   5.929  17.295 -0.1028 -0.4587  0.0494
13690TIP3   OH262484   1.992   2.829  16.849 -0.0439  0.0741 -0.2575
13690TIP3    H162485   2.062   2.876  16.804 -1.6279  2.2484 -0.5968
13690TIP3    H262486   2.015   2.737  16.837  1.9981  0.6623 -1.5577
13691TIP3   OH262487   2.122   3.911  16.265 -0.0092 -0.3684  0.0911
13691TIP3    H162488   2.057   3.945  16.204  1.7417  1.5839 -0.7983
13691TIP3    H262489   2.150   3.828  16.227  0.6657  0.5588 -1.5450
13692TIP3   OH262490   5.604   4.949   5.678  0.1100 -0.0559  0.3113
13692TIP3    H162491   5.577   4.996   5.600  0.9477 -1.4868 -0.8919
13692TIP3    H262492   5.548   4.871   5.680 -0.0213  0.0466  1.2424
13693TIP3   OH262493   0.100   6.019  16.916 -0.1700  0.2991 -0.5082
13693TIP3    H162494   0.016   6.039  16.958  0.4556 -0.2114  1.0950
13693TIP3    H262495   0.159   6.087  16.948  0.1282  0.4391 -1.3309
13694TIP3   OH262496   2.717   4.850   4.908 -0.0295 -0.0435  0.6262
13694TIP3    H162497   2.700   4.892   4.824 -0.6351 -3.6425 -1.2498
13694TIP3    H262498   2.631   4.842   4.949 -0.0778 -0.4596  0.4454
13695TIP3   OH262499   4.462   5.247   0.349  0.6182  0.2031  0.3962
13695TIP3    H162500   4.528   5.314   0.333  0.6052  0.3379  0.9027
13695TIP3    H262501   4.504   5.186   0.410  0.5240 -0.0846  0.1751
13696TIP3   OH262502   2.569   2.249  12.864 -0.2070 -0.0099  0.0002
13696TIP3    H162503   2.622   2.285  12.936 -0.3167  0.8364 -0.3329
13696TIP3    H262504   2.558   2.323  12.804  1.9344 -1.2643 -2.1169
13697TIP3   OH262505   1.466   2.460  14.619 -0.2550  0.2452 -0.0278
13697TIP3    H162506   1.401   2.519  14.658  0.0706 -0.3737  1.5058
13697TIP3    H262507   1.475   2.491  14.528 -2.0548  0.8615 -0.0305
13698TIP3   OH262508   2.527   1.920   0.588 -0.6445  0.0610 -0.0642
13698TIP3    H162509   2.500   1.909   0.679  0.4931 -1.7703  0.1072
13698TIP3    H262510   2.513   1.834   0.548  2.0660 -0.1736 -0.6989
13699TIP3   OH262511   0.930   2.138   1.049 -0.3074  0.5022  0.2162
13699TIP3    H162512   0.992   2.176   1.112 -1.2163  0.3143  1.2644
13699TIP3    H262513   0.919   2.205   0.982  0.5071  0.8030  0.3730
13700TIP3   OH262514   2.121   0.401   4.001  0.0390  0.2472 -0.4401
13700TIP3    H162515   2.132   0.345   4.077 -0.7257  0.5368 -0.1073
13700TIP3    H262516   2.192   0.375   3.942 -0.0457 -0.7678 -0.1194
13701TIP3   OH262517   1.121   3.193  14.934  0.2212 -0.2352  0.1127
13701TIP3    H162518   1.029   3.167  14.947 -0.5839  2.0747 -0.3794
13701TIP3    H262519   1.155   3.205  15.023  0.1675 -1.3815  0.3070
13702TIP3   OH262520   2.696   1.079  16.752  0.7192  0.4298  0.4319
13702TIP3    H162521   2.625   1.019  16.777 -0.9467  1.3110 -1.7698
13702TIP3    H262522   2.775   1.026  16.755 -0.5490 -1.6620 -0.4958
13703TIP3   OH262523   3.537   3.020   1.974  0.4295 -0.1423  0.2536
13703TIP3    H162524   3.525   3.114   1.960  0.4570 -0.3436 -1.3179
13703TIP3    H262525   3.457   2.980   1.940  0.4951 -0.7071  0.7493
13704TIP3   OH262526   4.123   1.289  14.148 -0.3731 -0.0885 -0.7404
13704TIP3    H162527   4.205   1.328  14.119  0.0551  0.1301  0.7015
13704TIP3    H262528   4.072   1.362  14.181  0.2036 -0.5893  1.4390
13705TIP3   OH262529   0.706   5.787   1.801 -0.7040  0.2944 -0.0900
13705TIP3    H162530   0.727   5.879   1.818 -0.5600  0.8896 -2.9860
13705TIP3    H262531   0.780   5.739   1.838 -0.0992  1.4633  0.2892
13706TIP3   OH262532   4.291   0.667  12.042  0.1835 -0.0616  0.1913
13706TIP3    H162533   4.274   0.589  12.096  0.0682 -1.5631 -1.8805
13706TIP3    H262534   4.210   0.717  12.046 -0.0888 -0.5359  0.7931
13707TIP3   OH262535   5.375   2.847  17.018  0.1631 -0.9662 -0.7342
13707TIP3    H162536   5.299   2.854  16.960 -0.5942 -0.2127  0.3073
13707TIP3    H262537   5.353   2.775  17.077 -0.3726  0.1452  0.4474
13708TIP3   OH262538   3.844   2.828  16.434  0.4364 -0.0577  0.4616
13708TIP3    H162539   3.761   2.817  16.479  1.0338 -1.3279  1.3288
13708TIP3    H262540   3.887   2.901  16.478  0.3210 -0.2413  0.8801
13709TIP3   OH262541   5.222   2.961  12.479  0.0859  0.2659 -0.1874
13709TIP3    H162542   5.280   2.906  12.532  0.4189 -0.3132 -1.1256
13709TIP3    H262543   5.210   3.040  12.531  0.1174 -0.4322  0.9072
13710TIP3   OH262544   0.955   0.491  13.590  0.0189 -0.1360 -0.2611
13710TIP3    H162545   1.031   0.537  13.625 -1.0694  1.4343  0.1575
13710TIP3    H262546   0.985   0.454  13.507  0.5696  2.6913 -1.4479
13711TIP3   OH262547   1.323   5.257  14.515  0.2561 -0.1745  0.1050
13711TIP3    H162548   1.415   5.270  14.539  0.3509 -1.2242  0.3374
13711TIP3    H262549   1.323   5.258  14.420  0.1056  2.4410  0.0588
13712TIP3   OH262550   1.220   6.074   0.237  0.0295  0.0679  0.2725
13712TIP3    H162551   1.128   6.084   0.264  0.8733  1.9441  2.8768
13712TIP3    H262552   1.220   6.098   0.144 -1.9187  1.4176  0.5518
13713TIP3   OH262553   5.245   2.484  16.892 -0.3875  0.4529  0.0849
13713TIP3    H162554   5.303   2.408  16.896  0.1543  0.7858 -0.9099
13713TIP3    H262555   5.291   2.545  16.834 -1.9230  0.5593 -1.0811
13714TIP3   OH262556   2.008   6.386  16.093  0.5257  0.2540  0.0893
13714TIP3    H162557   1.959   6.321  16.042  1.1445 -0.2696  0.1485
13714TIP3    H262558   2.053   6.335  16.161 -0.1744  0.9171  1.0925
13715TIP3   OH262559   2.682   0.306   6.366 -0.2588  0.2076 -0.4431
13715TIP3    H162560   2.653   0.285   6.277 -0.3791  1.3139 -0.6831
13715TIP3    H262561   2.602   0.331   6.412 -0.1773 -0.2275 -0.0512
13716TIP3   OH262562   1.813   1.485  13.161  0.4503  0.1075 -0.0058
13716TIP3    H162563   1.849   1.544  13.227 -0.7462  1.0254 -0.1486
13716TIP3    H262564   1.784   1.408  13.211  2.2762 -0.5473  0.1452
13717TIP3   OH262565   0.221   1.692   3.851  0.4153  0.1618  0.2524
13717TIP3    H162566   0.162   1.617   3.841  0.9884 -0.1459 -1.1348
13717TIP3    H262567   0.301   1.666   3.804  0.8937  1.3590  0.3620
13718TIP3   OH262568   3.843   6.107   4.166 -0.6088  0.3475 -0.9450
13718TIP3    H162569   3.767   6.115   4.109  0.1619 -0.4423 -2.1242
13718TIP3    H262570   3.831   6.022   4.210 -0.2510  0.0706 -1.3795
13719TIP3   OH262571   6.393   0.496  16.381 -0.2335  0.1196  0.0543
13719TIP3    H162572   6.375   0.554  16.306  1.0453 -0.4221 -0.7075
13719TIP3    H262573   6.489   0.499  16.390 -0.2432 -1.0397  0.6734
13720TIP3   OH262574   4.467   3.586  16.813  0.3009 -0.4145  0.2092
13720TIP3    H162575   4.408   3.521  16.851 -0.1601  0.0786  0.3442
13720TIP3    H262576   4.413   3.634  16.750  0.4502  0.2869  0.6027
13721TIP3   OH262577   4.988   5.982   1.659  0.0632  0.2900  0.1071
13721TIP3    H162578   4.932   5.938   1.596  0.0559 -0.3026  0.5173
13721TIP3    H262579   5.006   5.916   1.726  0.5041  0.7449  0.4516
13722TIP3   OH262580   1.703   5.206  14.913 -0.4130  0.0438 -0.4986
13722TIP3    H162581   1.711   5.296  14.881  1.2659 -0.1891 -0.8249
13722TIP3    H262582   1.610   5.196  14.931 -1.1724  0.8957 -3.3161
13723TIP3   OH262583   4.648   4.926   5.519  0.5025 -0.4000  0.1446
13723TIP3    H162584   4.668   4.906   5.610  1.2249 -0.3580 -0.0027
13723TIP3    H262585   4.694   5.008   5.501 -1.0154  0.5157  0.2269
13724TIP3   OH262586   6.071   5.407  11.647 -0.0374  0.4521 -0.4214
13724TIP3    H162587   6.059   5.497  11.618  0.8953  0.3126 -1.2855
13724TIP3    H262588   6.118   5.364  11.575 -0.1121 -0.6219  0.1423
13725TIP3   OH262589   0.444   4.564  11.976  0.8976  0.8935 -0.2866
13725TIP3    H162590   0.376   4.497  11.972  0.9043  0.7472  1.4712
13725TIP3    H262591   0.399   4.645  11.950  0.6521  0.4087 -1.4423
13726TIP3   OH262592   6.706   4.726   5.862 -0.1256 -0.3512 -0.0860
13726TIP3    H162593   6.693   4.766   5.948 -1.2067 -0.5639 -0.1367
13726TIP3    H262594   6.640   4.657   5.858  1.9600 -2.5016  0.1861
13727TIP3   OH262595   5.565   1.034   2.785 -0.1043 -0.0752 -0.1068
13727TIP3    H162596   5.638   0.988   2.826  0.4147  1.5701  0.9150
13727TIP3    H262597   5.501   0.965   2.765  0.2283 -1.1402  2.1992
13728TIP3   OH262598   3.134   5.392   1.308  0.3923 -0.4606 -0.3275
13728TIP3    H162599   3.137   5.478   1.267 -1.8436 -0.8313 -1.4274
13728TIP3    H262600   3.213   5.388   1.362  0.3533  2.4192  0.0831
13729TIP3   OH262601   4.308   4.329  17.059  0.4886 -0.3706 -0.1349
13729TIP3    H162602   4.260   4.386  16.999  0.8137  2.0474  1.7829
13729TIP3    H262603   4.263   4.244  17.052 -1.1665  0.5607 -1.7346
13730TIP3   OH262604   1.067   0.697   5.299  0.3284  0.2376 -0.0108
13730TIP3    H162605   1.106   0.632   5.241 -1.6869 -0.6006 -0.5264
13730TIP3    H262606   1.109   0.683   5.383  0.4806 -1.2399 -0.3061
13731TIP3   OH262607   2.752   3.278  17.063 -0.7876  0.2788 -0.1026
13731TIP3    H162608   2.670   3.256  17.018 -0.0742 -0.0996 -1.2808
13731TIP3    H262609   2.807   3.315  16.994  1.0612 -2.1112 -0.0152
13732TIP3   OH262610   3.126   5.718  15.248 -0.1276  0.2259  0.0630
13732TIP3    H162611   3.078   5.726  15.331  0.0333  1.8982  0.0124
13732TIP3    H262612   3.058   5.703  15.182 -0.5069  1.5088  0.1439
13733TIP3   OH262613   3.425   3.184   3.371  0.5910  0.3863 -0.0549
13733TIP3    H162614   3.347   3.130   3.363  1.6830 -1.7038  1.9618
13733TIP3    H262615   3.428   3.207   3.464  3.0659 -0.8214  0.2428
13734TIP3   OH262616   6.322   6.123   4.281  0.5508  0.2120  0.5697
13734TIP3    H162617   6.410   6.146   4.310  0.4982 -0.8759  1.7338
13734TIP3    H262618   6.264   6.165   4.345  0.3066 -0.1596  0.6002
13735TIP3   OH262619   1.049   1.745  15.350  0.1974 -0.3452  0.2563
13735TIP3    H162620   1.051   1.823  15.406  0.8465  0.2256 -0.5416
13735TIP3    H262621   1.132   1.747  15.304  0.2137 -1.5148  0.2068
13736TIP3   OH262622   2.242   6.559  10.905  0.1767  0.3055  0.2232
13736TIP3    H162623   2.284   6.629  10.955  0.1946  0.6374 -0.2447
13736TIP3    H262624   2.156   6.595  10.881  1.0240  1.0735 -1.9218
13737TIP3   OH262625   0.412   1.055   1.493  0.0648  0.1703 -0.6780
13737TIP3    H162626   0.451   0.968   1.500 -1.4804 -0.4216  1.7238
13737TIP3    H262627   0.469   1.111   1.546  0.2852  0.3328 -1.0835
13738TIP3   OH262628   1.462   0.399  12.169 -0.0580  0.3422  0.5981
13738TIP3    H162629   1.366   0.396  12.162 -0.1389  1.6271  0.8713
13738TIP3    H262630   1.490   0.310  12.152 -1.4810 -0.7358  3.3099
13739TIP3   OH262631   1.837   3.502  12.859  0.0608 -0.4644 -0.3199
13739TIP3    H162632   1.745   3.528  12.866  0.0210 -1.0149  2.2381
13739TIP3    H262633   1.838   3.411  12.889  0.9281 -1.9289 -4.1678
13740TIP3   OH262634   4.201   1.030   0.367  0.2051 -0.0456  0.0669
13740TIP3    H162635   4.232   1.121   0.374 -0.2571  0.0929  0.3414
13740TIP3    H262636   4.240   0.986   0.443 -0.7238  0.2691  0.7533
13741TIP3   OH262637   4.386   6.426  14.855 -0.1108 -0.5015 -0.0858
13741TIP3    H162638   4.476   6.442  14.883 -1.1090  1.0501  2.6469
13741TIP3    H262639   4.357   6.353  14.909  0.0048 -2.2913 -2.3212
13742TIP3   OH262640   3.693   2.889   2.560  0.0284  0.1112  0.2624
13742TIP3    H162641   3.760   2.957   2.569 -0.2307  0.4309 -0.1808
13742TIP3    H262642   3.644   2.892   2.643  1.4832 -1.1505  1.2281
13743TIP3   OH262643   5.764   1.301  16.892 -0.1190  0.3700 -0.3079
13743TIP3    H162644   5.854   1.322  16.918  0.5575 -1.1110 -1.3464
13743TIP3    H262645   5.755   1.207  16.910 -1.3114  0.4018 -0.6500
13744TIP3   OH262646   0.773   3.272   2.803 -0.1631  0.2367 -0.2152
13744TIP3    H162647   0.724   3.275   2.721 -0.1628 -1.1210 -0.2806
13744TIP3    H262648   0.864   3.285   2.777 -0.4149  2.7448 -0.0961
13745TIP3   OH262649   4.731   4.678  13.249  0.5805  0.3003  0.0714
13745TIP3    H162650   4.693   4.741  13.311  0.0139  0.2570 -0.2192
13745TIP3    H262651   4.658   4.655  13.191  1.1633  0.5461 -0.7813
13746TIP3   OH262652   4.134   1.536   1.894 -0.3839  0.0589  0.0851
13746TIP3    H162653   4.045   1.532   1.860 -0.2389  2.3488 -0.7250
13746TIP3    H262654   4.140   1.623   1.935  1.3858 -0.1761  0.3963
13747TIP3   OH262655   5.345   1.504  12.100 -0.6786 -0.3112  0.2726
13747TIP3    H162656   5.296   1.443  12.155  1.1629 -0.0694  2.3235
13747TIP3    H262657   5.296   1.507  12.018 -2.4337 -2.2760  1.1543
13748TIP3   OH262658   0.322   5.691   6.539 -0.0919 -0.5930 -0.3663
13748TIP3    H162659   0.252   5.632   6.567 -0.0535 -1.1428 -1.3807
13748TIP3    H262660   0.395   5.671   6.597 -1.0870  0.7697  1.4535
13749TIP3   OH262661   4.561   2.800   5.287 -0.9745  0.0154  0.3781
13749TIP3    H162662   4.520   2.744   5.221 -1.3931  0.1132  0.5532
13749TIP3    H262663   4.647   2.760   5.303 -0.5503  0.4087 -0.7705
13750TIP3   OH262664   4.934   2.465  12.428 -0.3044  0.1263 -0.2944
13750TIP3    H162665   4.990   2.514  12.368  0.3485  0.4364  0.5508
13750TIP3    H262666   4.953   2.373  12.408  0.4805  0.2275 -0.0425
13751TIP3   OH262667   3.412   0.518  12.902 -0.0305 -0.4286  0.7101
13751TIP3    H162668   3.467   0.596  12.901 -0.1231 -0.3564 -0.4988
13751TIP3    H262669   3.427   0.479  12.988 -0.4262  1.2205  1.5631
13752TIP3   OH262670   1.330   1.256   0.881 -0.5954 -0.3117 -0.2365
13752TIP3    H162671   1.385   1.333   0.865 -2.6683  1.0676 -1.3159
13752TIP3    H262672   1.306   1.226   0.794 -1.8665 -0.5751  0.1787
13753TIP3   OH262673   4.385   6.594  14.182 -0.0895 -0.5684 -0.1225
13753TIP3    H162674   4.428   6.560  14.103 -1.1818 -0.9367 -0.5798
13753TIP3    H262675   4.292   6.578  14.167 -0.2566 -1.5241  1.6566
13754TIP3   OH262676   1.468   3.585   0.836 -0.1591  0.0752 -0.6003
13754TIP3    H162677   1.391   3.573   0.891  0.1830 -2.1549 -0.4916
13754TIP3    H262678   1.531   3.629   0.893 -1.1352  1.4129 -0.5177
13755TIP3   OH262679   2.198   3.538   4.737 -0.2503  0.6361 -0.2268
13755TIP3    H162680   2.274   3.539   4.678  0.4412 -0.8253  0.6055
13755TIP3    H262681   2.213   3.611   4.797  0.2878  0.6133 -0.3300
13756TIP3   OH262682   2.274   5.746  10.648  0.0586 -0.5755  0.0741
13756TIP3    H162683   2.240   5.833  10.624  0.3373 -0.7366 -0.9573
13756TIP3    H262684   2.344   5.729  10.585 -0.4976 -1.8763 -0.2274
13757TIP3   OH262685   2.601   2.128   1.839 -0.0636  0.3562  0.0406
13757TIP3    H162686   2.666   2.098   1.776 -0.6733 -0.9858  0.0320
13757TIP3    H262687   2.542   2.184   1.788  0.2995  0.4870 -0.2414
13758TIP3   OH262688   4.555   4.022   5.370 -0.1846 -0.2149 -0.7146
13758TIP3    H162689   4.640   3.987   5.345  0.4815  0.9680 -0.1955
13758TIP3    H262690   4.535   3.980   5.454 -0.1065 -0.4956 -0.8377
13759TIP3   OH262691   1.848   4.365  12.424 -0.1732  0.7836  0.1999
13759TIP3    H162692   1.848   4.433  12.491 -0.3141  1.5461 -0.5683
13759TIP3    H262693   1.792   4.399  12.355  0.7217  0.4094 -0.7246
13760TIP3   OH262694   5.395   4.039   0.806  0.1472 -0.4795  0.6900
13760TIP3    H162695   5.479   4.071   0.839  0.1152 -0.5716  0.8615
13760TIP3    H262696   5.361   3.983   0.876  0.9704 -2.2555 -0.2633
13761TIP3   OH262697   4.772   2.997   1.546 -0.5985  0.3090  0.5574
13761TIP3    H162698   4.759   2.982   1.452  3.1871  1.1941 -0.2832
13761TIP3    H262699   4.729   2.923   1.589 -2.3684 -0.1648 -1.8237
13762TIP3   OH262700   3.327   2.770  17.105  0.5299  0.2010  0.5940
13762TIP3    H162701   3.304   2.863  17.098  1.1575  0.3149 -0.0259
13762TIP3    H262702   3.243   2.727  17.124  0.1717  0.8486  0.5276
13763TIP3   OH262703   6.731   3.984   2.715 -0.1054 -0.6120  0.0389
13763TIP3    H162704   6.684   4.066   2.699  1.8930  0.7933  0.8893
13763TIP3    H262705   6.690   3.947   2.792 -0.1482  0.3513  0.4957
13764TIP3   OH262706   4.913   2.491   2.563 -0.3218 -0.2842  0.1042
13764TIP3    H162707   4.898   2.569   2.511 -0.3204 -0.3188  0.0514
13764TIP3    H262708   4.919   2.420   2.499 -3.3342 -0.8288  0.3086
13765TIP3   OH262709   3.787   6.290   2.313  0.7814  0.0703 -0.0971
13765TIP3    H162710   3.818   6.257   2.398 -1.2121 -1.8220 -0.0228
13765TIP3    H262711   3.819   6.226   2.249  0.2726  0.1958 -0.4811
13766TIP3   OH262712   4.351   0.121   5.569 -0.9599 -0.0696 -0.5538
13766TIP3    H162713   4.412   0.153   5.636 -3.4545  1.6317  1.0754
13766TIP3    H262714   4.385   0.157   5.487  0.3741  0.5716  0.2440
13767TIP3   OH262715   3.565   4.440   2.513  0.0044  0.1605  0.2388
13767TIP3    H162716   3.608   4.389   2.445  0.0929  0.3547  0.1484
13767TIP3    H262717   3.612   4.523   2.514  1.3602 -0.5777  1.9473
13768TIP3   OH262718   6.479   0.120  15.281  0.6871  0.2174  0.5589
13768TIP3    H162719   6.536   0.111  15.205 -0.4897 -1.1691 -0.2302
13768TIP3    H262720   6.472   0.214  15.295  1.4450  0.4818 -0.6502
13769TIP3   OH262721   5.829   5.777   5.647 -0.0602  0.3866  0.8822
13769TIP3    H162722   5.923   5.789   5.663 -0.4297  0.4660  3.3725
13769TIP3    H262723   5.793   5.866   5.651 -0.4495  0.2024  1.6749
13770TIP3   OH262724   4.604   6.240   4.375  0.4283  0.1265 -0.2098
13770TIP3    H162725   4.666   6.256   4.446  1.3636 -0.4868 -0.8627
13770TIP3    H262726   4.519   6.259   4.413  0.8030 -1.2895  1.4477
13771TIP3   OH262727   4.629   4.511   3.156 -0.3742 -0.0029 -0.1731
13771TIP3    H162728   4.664   4.470   3.235 -1.9831 -2.0452 -0.4257
13771TIP3    H262729   4.705   4.520   3.098  0.3401 -1.1452  0.5373
13772TIP3   OH262730   0.909   3.224  11.551  0.8771 -0.4031  0.1831
13772TIP3    H162731   0.819   3.230  11.582  0.1602  3.0835 -2.0265
13772TIP3    H262732   0.961   3.267  11.618  0.9842 -2.2648  1.3747
13773TIP3   OH262733   5.651   3.009  12.392  0.5339 -0.5517  0.0392
13773TIP3    H162734   5.726   3.066  12.376  0.0326  0.8382  2.1707
13773TIP3    H262735   5.663   2.979  12.482 -1.3869 -0.3688  0.3993
13774TIP3   OH262736   4.956   4.644  15.570  0.0019  0.3707 -0.3450
13774TIP3    H162737   4.978   4.615  15.659  0.7523 -0.6318 -0.8337
13774TIP3    H262738   4.929   4.564  15.525 -1.5871  1.0576 -0.6980
13775TIP3   OH262739   3.695   5.755   3.755  0.5433  0.0149 -0.2381
13775TIP3    H162740   3.734   5.746   3.668  2.5498 -0.7325  0.6922
13775TIP3    H262741   3.672   5.666   3.780 -1.1964  0.3640 -0.4686
13776TIP3   OH262742   3.706   3.872  12.440  0.2050  1.0101  0.9181
13776TIP3    H162743   3.760   3.940  12.401  0.1719  0.2515 -0.5298
13776TIP3    H262744   3.621   3.882  12.397  0.6624 -0.9386 -0.5722
13777TIP3   OH262745   4.483   6.520   4.496  0.2360  0.3946 -0.2852
13777TIP3    H162746   4.512   6.434   4.527  0.5449 -0.0473 -1.6971
13777TIP3    H262747   4.393   6.528   4.526  0.0876 -0.5921 -0.4268
13778TIP3   OH262748   6.745   5.659   0.699 -0.0591  0.2114  0.5967
13778TIP3    H162749   6.696   5.705   0.767  2.7664 -0.5855  3.4167
13778TIP3    H262750   6.758   5.571   0.735  1.6749 -0.2029 -0.9044
13779TIP3   OH262751   2.208   4.288  13.305  0.6132 -0.1854  0.1432
13779TIP3    H162752   2.193   4.275  13.211  1.7564  1.8395 -0.4027
13779TIP3    H262753   2.177   4.378  13.321  2.4115  0.2891  1.1945
13780TIP3   OH262754   3.725   2.524   2.585 -0.8352 -0.0969 -0.5785
13780TIP3    H162755   3.738   2.587   2.514  1.0721  0.5459  0.2806
13780TIP3    H262756   3.720   2.439   2.542  2.1402  0.0586 -1.4408
13781TIP3   OH262757   6.087   2.512  12.166  0.3718  0.1212  0.0585
13781TIP3    H162758   6.025   2.557  12.108 -1.5553  0.5043  2.2887
13781TIP3    H262759   6.036   2.488  12.243  2.6880 -0.8864  1.3978
13782TIP3   OH262760   0.992   2.013  13.228  0.8947  0.2188 -0.5062
13782TIP3    H162761   0.900   2.027  13.250  0.8891  1.9834 -1.4332
13782TIP3    H262762   1.032   1.982  13.309 -0.1126  1.5009  0.5296
13783TIP3   OH262763   3.657   3.458   0.668  0.1491  0.7555 -0.0419
13783TIP3    H162764   3.683   3.499   0.585  0.5071 -1.8127 -1.3114
13783TIP3    H262765   3.736   3.463   0.723  1.3405 -1.1660 -1.4493
13784TIP3   OH262766   0.386   0.608   2.719 -0.2913 -0.1481 -0.0511
13784TIP3    H162767   0.387   0.568   2.806  1.8870 -2.5391 -1.0312
13784TIP3    H262768   0.348   0.541   2.662 -0.4177  0.8382 -1.1656
13785TIP3   OH262769   1.065   0.388   5.413 -0.4229 -0.2948 -0.5627
13785TIP3    H162770   0.995   0.325   5.432 -1.8449  0.3106 -3.2972
13785TIP3    H262771   1.142   0.334   5.396 -0.7755 -1.0875  0.2302
13786TIP3   OH262772   3.845   2.711  13.493  0.0380  0.1759  0.2388
13786TIP3    H162773   3.811   2.775  13.430  1.6466  0.9952  0.1298
13786TIP3    H262774   3.920   2.755  13.534  2.0512 -2.0558 -0.7640
13787TIP3   OH262775   2.909   5.696  11.817 -0.5657  0.0239  0.2551
13787TIP3    H162776   2.910   5.791  11.825 -0.3641 -0.0680  1.6231
13787TIP3    H262777   2.975   5.676  11.750 -1.8386  0.9133 -1.3429
13788TIP3   OH262778   1.681   2.725   2.628  0.4693  0.3277  0.1748
13788TIP3    H162779   1.628   2.790   2.674  1.5795  1.4076 -0.0281
13788TIP3    H262780   1.706   2.661   2.695 -1.8460 -0.7795  0.1013
13789TIP3   OH262781   3.818   6.290  14.173 -0.9537  0.1660  0.0142
13789TIP3    H162782   3.785   6.379  14.171 -0.4933  0.3270 -0.4390
13789TIP3    H262783   3.797   6.254  14.087  0.4928  0.4385 -0.4737
13790TIP3   OH262784   2.041   3.638  12.766  0.1321  0.1559 -0.3445
13790TIP3    H162785   2.068   3.577  12.836 -0.9754  0.2210  0.1637
13790TIP3    H262786   1.946   3.627  12.761  0.0655  0.9915 -1.0645
13791TIP3   OH262787   1.220   6.158   6.617 -0.8477 -0.2661  0.0675
13791TIP3    H162788   1.125   6.153   6.628 -0.7266 -1.1863  0.9847
13791TIP3    H262789   1.243   6.248   6.637 -1.4724 -0.1946  0.4650
13792TIP3   OH262790   2.329   2.592  16.192 -0.3810  0.3359 -0.7020
13792TIP3    H162791   2.243   2.582  16.233 -0.1577 -0.6200 -0.4469
13792TIP3    H262792   2.382   2.522  16.230  0.2494  0.3482 -1.5473
13793TIP3   OH262793   4.655   4.416  10.384  0.4207  0.2158  0.7734
13793TIP3    H162794   4.631   4.421  10.291  1.3660  0.0360  0.5107
13793TIP3    H262795   4.717   4.488  10.397  1.2596 -0.5195  0.9555
13794TIP3   OH262796   3.896   2.200  14.954 -0.3434  0.8108  0.1329
13794TIP3    H162797   3.848   2.209  15.036  0.4459 -1.1320  0.8754
13794TIP3    H262798   3.987   2.184  14.981 -0.2841 -1.1342 -1.0199
13795TIP3   OH262799   5.236   1.021   5.284 -0.2863 -0.4404 -0.4725
13795TIP3    H162800   5.293   1.061   5.218  0.8535  0.9449  1.2772
13795TIP3    H262801   5.176   1.090   5.309  2.3321  0.7659  3.3147
13796TIP3   OH262802   3.326   5.380   1.496  0.1944  1.0243  0.2238
13796TIP3    H162803   3.307   5.322   1.569 -0.2038  0.3917 -0.3652
13796TIP3    H262804   3.404   5.343   1.454 -1.3142 -0.4360 -1.4745
13797TIP3   OH262805   1.923   2.410   1.437 -0.7806 -0.1136 -0.2720
13797TIP3    H162806   1.844   2.423   1.385  0.0352  0.4583 -1.3957
13797TIP3    H262807   1.995   2.428   1.377  0.1881  1.6643  1.2957
13798TIP3   OH262808   1.722   0.973  11.872  0.2406  0.0913 -0.0415
13798TIP3    H162809   1.648   0.914  11.885 -0.7811  0.9975 -1.4441
13798TIP3    H262810   1.793   0.917  11.839 -0.5773 -0.4326 -0.9640
13799TIP3   OH262811   2.250   4.159   2.834  0.1621 -0.3253  0.2032
13799TIP3    H162812   2.195   4.086   2.806  0.1422 -0.4888  0.6653
13799TIP3    H262813   2.204   4.237   2.802 -0.4423 -0.4491  0.7620
13800TIP3   OH262814   0.274   0.725   4.930  0.2121  0.0645 -0.5497
13800TIP3    H162815   0.253   0.810   4.969  0.5655  0.1883 -0.6249
13800TIP3    H262816   0.220   0.722   4.851 -0.1906 -0.0072 -0.2800
13801TIP3   OH262817   0.927   3.048  10.709  0.2952  0.3472 -0.7063
13801TIP3    H162818   1.021   3.053  10.727 -0.0281  0.2469  1.2145
13801TIP3    H262819   0.905   2.955  10.721  0.0296  0.2633 -1.7162
13802TIP3   OH262820   1.302   3.157  17.384 -0.3768 -0.2268  0.4001
13802TIP3    H162821   1.249   3.082  17.409 -0.3640 -0.1321  0.7137
13802TIP3    H262822   1.322   3.142  17.291 -1.9358  0.3087 -0.0653
13803TIP3   OH262823   6.011   5.488   5.754 -0.4019  0.4428 -0.1555
13803TIP3    H162824   6.048   5.431   5.822  2.0568 -0.6742 -2.2766
13803TIP3    H262825   5.916   5.473   5.760 -0.0293 -2.0172  0.9711
13804TIP3   OH262826   1.812   2.363  16.307 -0.3583  0.0575 -0.2865
13804TIP3    H162827   1.878   2.310  16.350  0.0909  1.0445  0.2715
13804TIP3    H262828   1.862   2.429  16.259 -0.9246  1.1300  0.5521
13805TIP3   OH262829   5.822   2.844  12.220  0.2301  0.4416 -0.3220
13805TIP3    H162830   5.893   2.819  12.280 -1.0100 -1.4523  0.4572
13805TIP3    H262831   5.747   2.862  12.278 -0.6990 -0.3809 -1.2288
13806TIP3   OH262832   3.220   0.833  14.977 -0.1785 -0.1811 -0.4858
13806TIP3    H162833   3.133   0.836  14.938 -0.1922  0.2128 -0.4242
13806TIP3    H262834   3.224   0.911  15.033  0.6103  0.3942 -1.3285
13807TIP3   OH262835   3.651   6.162  15.151 -0.3784 -0.0848 -0.6125
13807TIP3    H162836   3.584   6.231  15.152  1.8183  2.3709  3.7926
13807TIP3    H262837   3.711   6.188  15.081  1.3225  3.7863  1.9848
13808TIP3   OH262838   3.264   5.340  14.692  0.2573 -0.3271 -0.2226
13808TIP3    H162839   3.204   5.328  14.618  0.6218 -1.0674 -0.4090
13808TIP3    H262840   3.281   5.251  14.723  1.0126 -0.0975  0.0246
13809TIP3   OH262841   2.113   1.280   1.145 -0.3218 -0.0271 -0.0924
13809TIP3    H162842   2.199   1.242   1.125 -0.7247 -1.2916  0.5339
13809TIP3    H262843   2.128   1.332   1.224 -0.4538 -1.5803  0.9940
13810TIP3   OH262844   5.198   1.838   2.421 -0.1164 -0.0978 -0.1377
13810TIP3    H162845   5.119   1.878   2.455 -0.6966 -0.3181 -1.1616
13810TIP3    H262846   5.191   1.848   2.326  1.3983  0.4459 -0.2257
13811TIP3   OH262847   1.911   5.817   3.434  0.1032 -0.5588  0.2015
13811TIP3    H162848   1.856   5.860   3.499 -1.3958  0.6505 -1.7757
13811TIP3    H262849   1.999   5.852   3.451 -0.8853  2.6411 -0.6993
13812TIP3   OH262850   3.885   1.416  11.186 -0.3064  0.5906  0.0938
13812TIP3    H162851   3.944   1.397  11.113  2.0473 -0.3827  2.0781
13812TIP3    H262852   3.865   1.330  11.224 -0.4446  1.1335  1.3135
13813TIP3   OH262853   3.006   0.394  12.412  0.1728 -0.6732 -0.0189
13813TIP3    H162854   3.035   0.486  12.410  2.1838 -1.0457  3.4088
13813TIP3    H262855   2.989   0.372  12.320 -0.4429  3.0903 -0.9834
13814TIP3   OH262856   0.889   3.189   2.162 -0.4696 -0.6289 -0.2345
13814TIP3    H162857   0.918   3.279   2.177 -0.1265 -0.5342 -1.3785
13814TIP3    H262858   0.797   3.188   2.187 -0.2530 -0.1918  0.6299
13815TIP3   OH262859   1.242   5.868  13.117 -0.4132 -0.0473 -0.2074
13815TIP3    H162860   1.164   5.880  13.171  0.4828  2.9573  0.6594
13815TIP3    H262861   1.208   5.855  13.029 -1.8888 -0.5741  0.4085
13816TIP3   OH262862   4.569   2.106   2.574 -0.1599 -0.4227 -0.1943
13816TIP3    H162863   4.557   2.191   2.616 -0.0797 -0.4757 -0.0639
13816TIP3    H262864   4.483   2.084   2.538 -0.5836 -1.0052  1.1075
13817TIP3   OH262865   1.159   5.123   6.380 -0.6325  0.2299 -0.8142
13817TIP3    H162866   1.254   5.112   6.375 -0.5069  0.4652  0.6068
13817TIP3    H262867   1.131   5.059   6.445 -0.9675  2.3053  1.2430
13818TIP3   OH262868   5.833   1.522  10.717  0.0685 -0.1769  0.1528
13818TIP3    H162869   5.747   1.563  10.724 -0.4149 -1.0810 -0.3159
13818TIP3    H262870   5.882   1.580  10.659 -0.5142 -0.1056 -0.2831
13819TIP3   OH262871   2.157   0.044  10.739  0.7594  0.1109 -0.4197
13819TIP3    H162872   2.136   0.136  10.722  0.0544  0.0473  0.0477
13819TIP3    H262873   2.081  -0.004  10.708  1.9060 -0.5128 -2.4586
13820TIP3   OH262874   2.868   2.148  14.705 -0.4104  0.3867 -0.2026
13820TIP3    H162875   2.895   2.093  14.779 -3.1260 -1.1201 -0.2054
13820TIP3    H262876   2.869   2.090  14.629 -1.6295  0.7824 -0.5520
13821TIP3   OH262877   5.193   0.444   1.758 -0.7483  0.8045  0.5395
13821TIP3    H162878   5.180   0.435   1.852  2.0884 -2.2518  0.8368
13821TIP3    H262879   5.276   0.491   1.749  1.4044 -2.7198 -0.0634
13822TIP3   OH262880   4.102   0.799   2.686 -0.0115  0.0303 -0.5701
13822TIP3    H162881   4.022   0.848   2.663 -0.1101  0.3530  0.4085
13822TIP3    H262882   4.080   0.757   2.769  0.3487 -1.0557 -1.0195
13823TIP3   OH262883   0.733   1.704   1.060 -0.3405 -0.1835 -0.0966
13823TIP3    H162884   0.827   1.688   1.058 -0.3033 -0.5767  2.2664
13823TIP3    H262885   0.725   1.795   1.088 -0.6631 -0.3516  0.3612
13824TIP3   OH262886   3.661   3.075   3.927  0.0837 -0.3667  0.1200
13824TIP3    H162887   3.643   3.019   4.003  0.4619  0.8401  1.1374
13824TIP3    H262888   3.574   3.098   3.893 -0.1039 -2.9395 -1.4342
13825TIP3   OH262889   1.944   1.409   1.513 -0.0174  0.5535  0.2202
13825TIP3    H162890   2.027   1.432   1.471  0.3762  1.4421  1.4075
13825TIP3    H262891   1.880   1.467   1.473 -0.5121 -1.4751 -2.1278
13826TIP3   OH262892   0.196   2.865   1.493 -0.1215  0.2133  0.0906
13826TIP3    H162893   0.140   2.899   1.563 -2.1351 -1.4935 -0.5971
13826TIP3    H262894   0.154   2.894   1.412  0.2318 -0.7372 -0.4491
13827TIP3   OH262895   0.500   1.004  16.962  0.5629  0.0819  0.3386
13827TIP3    H162896   0.513   1.050  16.880 -2.1928  1.5111  0.5676
13827TIP3    H262897   0.515   1.070  17.030  1.0884 -0.6121  0.9093
13828TIP3   OH262898   5.933   2.842  15.001 -0.3193  0.2071  0.5073
13828TIP3    H162899   5.936   2.932  14.971 -0.6171  0.3763  0.9694
13828TIP3    H262900   5.872   2.843  15.074 -0.2712 -0.3561  0.5625
13829TIP3   OH262901   2.730   4.831  11.266  0.4837  0.1617  0.9013
13829TIP3    H162902   2.743   4.763  11.332  0.9494 -0.9932 -0.3496
13829TIP3    H262903   2.778   4.801  11.189  1.3582  2.2842  0.5458
13830TIP3   OH262904   4.173   5.578  12.889 -0.0842 -0.3696  0.0510
13830TIP3    H162905   4.234   5.635  12.841 -1.2301  0.1935 -0.7761
13830TIP3    H262906   4.088   5.595  12.849 -1.4450  1.3232  3.3195
13831TIP3   OH262907   0.058   6.127  14.628  0.0284 -0.6470  0.4642
13831TIP3    H162908  -0.027   6.095  14.597 -0.3672  1.0676 -0.3424
13831TIP3    H262909   0.036   6.196  14.691  0.7640  0.7670 -0.7555
13832TIP3   OH262910   0.391   2.565  11.962 -0.4422  0.0987  0.1645
13832TIP3    H162911   0.315   2.507  11.973 -0.5509 -0.0791 -1.3282
13832TIP3    H262912   0.385   2.595  11.871  1.5603 -0.3465 -0.1630
13833TIP3   OH262913   1.017   2.733  12.518  0.5432 -0.0025  0.4624
13833TIP3    H162914   1.027   2.799  12.587  0.2634  1.2245 -0.6191
13833TIP3    H262915   1.096   2.743  12.464 -0.0755  0.3320 -0.4101
13834TIP3   OH262916   3.921   1.739   0.689 -0.2165 -0.4372  1.0248
13834TIP3    H162917   3.979   1.699   0.625  1.3673  0.9531  1.5102
13834TIP3    H262918   3.940   1.694   0.771  0.7988  0.5532  1.3513
13835TIP3   OH262919   1.330   5.847  10.462 -0.0780 -0.0490  0.1825
13835TIP3    H162920   1.381   5.901  10.401  0.9715 -1.4527 -0.2450
13835TIP3    H262921   1.303   5.907  10.531  1.8244  0.8438  0.2017
13836TIP3   OH262922   1.825   5.501  12.580 -0.5073  0.3535  0.8459
13836TIP3    H162923   1.783   5.473  12.498  0.7261  0.4712  0.1487
13836TIP3    H262924   1.780   5.582  12.603  1.1930  2.0584 -1.4563
13837TIP3   OH262925   6.105   4.333  14.377 -0.4260  0.0699 -0.0903
13837TIP3    H162926   6.120   4.252  14.424 -0.0548  0.1724 -0.0236
13837TIP3    H262927   6.140   4.401  14.434 -0.0942  0.2068 -0.4500
13838TIP3   OH262928   3.590   2.059  11.181 -0.2396  0.4778 -0.5778
13838TIP3    H162929   3.670   2.096  11.143  0.5437 -0.0260  0.5530
13838TIP3    H262930   3.558   2.126  11.241  0.9360 -0.4389  1.1353
13839TIP3   OH262931   2.634   5.534  15.025  0.1526  0.4761 -0.1566
13839TIP3    H162932   2.621   5.477  14.949 -0.3658  1.8202 -1.1160
13839TIP3    H262933   2.548   5.574  15.040  0.3044  0.3986  1.0068
13840TIP3   OH262934   0.217   1.688  11.601 -0.1012  0.2472  0.0693
13840TIP3    H162935   0.163   1.613  11.624 -0.3844  1.1790  2.8477
13840TIP3    H262936   0.158   1.763  11.608  0.6995  0.9535 -0.4750
13841TIP3   OH262937   1.796   0.669  15.807  0.1980 -0.6983 -0.1144
13841TIP3    H162938   1.708   0.671  15.845  0.3746 -1.2736  0.3435
13841TIP3    H262939   1.798   0.744  15.748 -1.1039 -1.4830 -1.2280
13842TIP3   OH262940   3.000   4.941   5.339 -0.2265 -0.2013 -0.1622
13842TIP3    H162941   3.091   4.961   5.316  0.3038 -0.1142  1.8282
13842TIP3    H262942   2.951   4.952   5.257  1.5619 -0.3839 -1.3054
13843TIP3   OH262943   6.369   5.607  15.764  0.0057 -0.2768  0.6677
13843TIP3    H162944   6.404   5.523  15.734 -2.6719 -1.0694 -0.4848
13843TIP3    H262945   6.343   5.591  15.855  1.1014 -0.1402  1.0192
13844TIP3   OH262946   0.216   1.901   4.711 -0.3255 -0.1026  0.1652
13844TIP3    H162947   0.255   1.869   4.630 -0.3997  1.3947 -0.4914
13844TIP3    H262948   0.122   1.897   4.695 -0.3955 -1.0721  0.7088
13845TIP3   OH262949   0.530   6.702   1.368  0.2526 -0.5714  0.3975
13845TIP3    H162950   0.499   6.791   1.351  1.5581  0.2589  1.9740
13845TIP3    H262951   0.545   6.700   1.463 -0.8525 -2.8670  0.5866
13846TIP3   OH262952   4.321   5.996   3.544  0.2889  0.5159  0.4056
13846TIP3    H162953   4.243   5.964   3.590  0.1092  0.3898  0.0163
13846TIP3    H262954   4.394   5.972   3.600  0.1741 -0.7164  0.0572
13847TIP3   OH262955   5.509   1.896  15.679 -0.9499 -0.4357  0.3436
13847TIP3    H162956   5.604   1.912  15.682 -1.1332  1.2084 -1.0139
13847TIP3    H262957   5.493   1.836  15.751  1.4231 -2.4061 -0.6027
13848TIP3   OH262958   5.723   5.271  13.272 -0.2888  0.0783  1.0626
13848TIP3    H162959   5.733   5.323  13.352 -0.5255  2.0480 -0.1236
13848TIP3    H262960   5.688   5.332  13.208 -0.8550 -1.6573 -0.3571
13849TIP3   OH262961   3.459   3.929   5.301 -0.1401 -0.6505  0.0741
13849TIP3    H162962   3.513   3.856   5.333  0.6319 -0.5874 -1.0328
13849TIP3    H262963   3.422   3.967   5.380  0.9658 -1.0762  0.8287
13850TIP3   OH262964   1.886   2.904   3.148  0.1783  0.4087  0.5937
13850TIP3    H162965   1.978   2.924   3.169 -0.1746  1.5044  1.1943
13850TIP3    H262966   1.884   2.895   3.053  1.0791 -0.5767  0.6533
13851TIP3   OH262967   6.464   0.117  10.619  0.6922  0.0286  0.9795
13851TIP3    H162968   6.401   0.087  10.684 -0.4584  2.9883  1.3981
13851TIP3    H262969   6.420   0.190  10.575  3.6416  2.0339  1.0255
13852TIP3   OH262970   4.707   5.658  13.530  0.1123 -0.2423  0.3208
13852TIP3    H162971   4.619   5.632  13.501  0.7337 -1.6904 -0.3590
13852TIP3    H262972   4.718   5.747  13.497 -1.6411  0.5421  1.6691
13853TIP3   OH262973   0.722   2.228   0.107  0.4546  0.7909  0.1220
13853TIP3    H162974   0.708   2.260   0.197 -2.3168 -2.1440  0.9218
13853TIP3    H262975   0.643   2.254   0.060  0.0331 -1.1078 -0.3090
13854TIP3   OH262976   2.078   4.343  11.286 -0.0755  0.0475  0.2885
13854TIP3    H162977   2.064   4.429  11.325  0.7714  1.1556 -1.6552
13854TIP3    H262978   2.032   4.347  11.202 -1.2032 -1.9366  0.7544
13855TIP3   OH262979   0.540   1.756  11.230 -0.0353 -0.1105  0.8106
13855TIP3    H162980   0.502   1.767  11.143  0.3344  1.0633  0.7739
13855TIP3    H262981   0.565   1.845  11.256  1.2500 -0.6461  1.4830
13856TIP3   OH262982   0.837   3.889  10.488  0.6030 -0.1716  0.0314
13856TIP3    H162983   0.833   3.797  10.461  1.0121 -0.3255  0.4807
13856TIP3    H262984   0.915   3.895  10.543  0.8396  0.5507 -0.3685
13857TIP3   OH262985   1.937   4.882   6.222  0.0531  0.6171  0.3141
13857TIP3    H162986   1.932   4.786   6.220 -0.5899  0.6545 -2.4981
13857TIP3    H262987   2.028   4.901   6.199  0.0749  0.7031  0.4688
13858TIP3   OH262988   2.931   1.274   2.953  0.0675 -0.2701  0.4357
13858TIP3    H162989   2.969   1.253   2.867 -2.6761  0.8793 -1.1971
13858TIP3    H262990   2.950   1.367   2.966 -2.1892  0.4005 -0.5401
13859TIP3   OH262991   5.125   3.194  12.908 -0.0373  0.5841  0.0709
13859TIP3    H162992   5.199   3.149  12.949  1.0052  2.2640  0.1123
13859TIP3    H262993   5.064   3.209  12.979  0.3888  0.7695  0.4024
13860TIP3   OH262994   6.553   1.085  15.890  0.1167  0.5085 -0.2995
13860TIP3    H162995   6.517   1.149  15.829 -0.6431 -0.9799 -1.4809
13860TIP3    H262996   6.627   1.046  15.844  0.8213  0.7984  0.5649
13861TIP3   OH262997   3.267   0.715   1.351 -0.1460  0.1902 -0.0755
13861TIP3    H162998   3.355   0.753   1.345  1.0250 -2.4366 -2.3149
13861TIP3    H262999   3.234   0.744   1.436  1.8313  3.3253 -0.2197
13862TIP3   OH263000   0.855   1.032   0.853  0.7657  0.1427 -0.4968
13862TIP3    H163001   0.850   1.022   0.948  1.1504  0.0241 -0.4853
13862TIP3    H263002   0.817   0.952   0.818 -0.9709  0.9283 -0.4687
13863TIP3   OH263003   6.332   2.528   3.586 -0.7362 -0.3904 -0.8184
13863TIP3    H163004   6.251   2.528   3.535 -0.4513  1.2473 -1.3187
13863TIP3    H263005   6.399   2.559   3.526  0.2512 -1.4585 -0.3324
13864TIP3   OH263006   2.404   0.514   3.585  0.3667  0.3598 -0.0661
13864TIP3    H163007   2.440   0.439   3.538  2.1124  1.1479 -0.0636
13864TIP3    H263008   2.448   0.590   3.547 -0.6870  1.3050  0.5454
13865TIP3   OH263009   4.648   6.656  12.953  0.2013  0.0883  0.2614
13865TIP3    H163010   4.731   6.636  12.909 -0.0366 -0.2849 -0.0289
13865TIP3    H263011   4.605   6.719  12.895  0.0091 -0.1952  0.0918
13866TIP3   OH263012   6.255   4.151   6.010  0.1727  0.7030 -0.2013
13866TIP3    H163013   6.329   4.187   5.961  0.4322 -1.1610 -1.2853
13866TIP3    H263014   6.264   4.186   6.098  1.7356  1.3355 -0.5883
13867TIP3   OH263015   5.326   2.064   1.863  0.7384  0.1382  0.1022
13867TIP3    H163016   5.304   1.980   1.825  2.4615 -1.0615  1.5637
13867TIP3    H263017   5.242   2.105   1.884 -0.1515 -0.5833 -1.8745
13868TIP3   OH263018   6.353   4.150   5.683 -0.9565 -0.6666  0.1368
13868TIP3    H163019   6.448   4.152   5.696 -0.9338 -0.6137 -0.0216
13868TIP3    H263020   6.332   4.057   5.678 -0.6374 -0.6810 -1.6512
13869TIP3   OH263021   2.591   4.222   2.334 -0.7782 -0.3824  0.5856
13869TIP3    H163022   2.543   4.210   2.252  2.8101 -0.4623 -1.7308
13869TIP3    H263023   2.563   4.308   2.365 -1.1957  0.3343 -1.5621
13870TIP3   OH263024   2.274   5.507  14.478  0.5391  0.2049  0.6075
13870TIP3    H163025   2.270   5.420  14.438 -0.4796  0.7190 -0.4597
13870TIP3    H263026   2.313   5.562  14.410  2.8659  0.2933  1.8908
13871TIP3   OH263027   5.749   4.172  13.858 -0.4334  0.3022 -0.6885
13871TIP3    H163028   5.721   4.172  13.766 -1.4497  0.4990 -0.3977
13871TIP3    H263029   5.668   4.184  13.907 -0.0546 -0.8822  0.2814
13872TIP3   OH263030   0.185   0.338   0.511 -0.0416  0.1626  0.0474
13872TIP3    H163031   0.229   0.390   0.578  0.1085  0.7905 -0.5214
13872TIP3    H263032   0.162   0.256   0.555 -3.1921  1.8704  1.9672
13873TIP3   OH263033   1.691   3.822   2.028 -0.7731  0.9970  0.0404
13873TIP3    H163034   1.667   3.739   2.069 -0.1827 -0.0134 -1.5841
13873TIP3    H263035   1.622   3.883   2.055 -2.1593 -0.4502 -0.1278
13874TIP3   OH263036   4.929   5.313   4.789 -0.1160 -0.8855 -0.0798
13874TIP3    H163037   5.006   5.283   4.837 -0.3524 -1.8545 -0.2997
13874TIP3    H263038   4.946   5.406   4.774  1.3431 -1.2309 -0.7616
13875TIP3   OH263039   2.270   1.877  16.841 -0.0220 -0.2709  0.4036
13875TIP3    H163040   2.349   1.852  16.792  0.0328  0.5843  0.0341
13875TIP3    H263041   2.289   1.855  16.932  0.9315  0.5563  0.4260
13876TIP3   OH263042   1.147   5.155   0.343  0.0209 -0.0608  0.6477
13876TIP3    H163043   1.218   5.146   0.279 -0.4549  1.4327 -0.1400
13876TIP3    H263044   1.138   5.068   0.382  0.2684 -1.0624 -1.4031
13877TIP3   OH263045   1.876   5.598   4.662 -0.0919 -0.0645  0.0143
13877TIP3    H163046   1.827   5.676   4.635  1.6177  0.8806 -0.5215
13877TIP3    H263047   1.929   5.576   4.585  1.4191 -0.1259  1.0382
13878TIP3   OH263048   3.246   4.628  15.168  0.7370  0.2385  0.0006
13878TIP3    H163049   3.269   4.627  15.261 -0.6059 -0.0302  0.3546
13878TIP3    H263050   3.184   4.700  15.160 -1.2499 -1.3929 -0.1166
13879TIP3   OH263051   4.485   1.599  16.681  0.2319  0.0499 -0.4130
13879TIP3    H163052   4.405   1.605  16.733  1.1000 -1.9846  1.3316
13879TIP3    H263053   4.468   1.529  16.618  0.6861 -0.6103  0.1709
13880TIP3   OH263054   5.739   6.528  15.166  0.7981  0.1556 -0.2175
13880TIP3    H163055   5.755   6.615  15.131  1.5529 -0.3795 -1.2726
13880TIP3    H263056   5.657   6.536  15.216 -0.5412  0.9056 -2.4074
13881TIP3   OH263057   2.056   1.738  10.803 -0.1529  0.1727 -0.2038
13881TIP3    H163058   2.012   1.823  10.809  0.2207  0.3926 -0.5807
13881TIP3    H263059   1.984   1.674  10.798 -0.4353  0.4145  0.7358
13882TIP3   OH263060   2.634   4.328  17.255  0.8691  0.4929  0.5685
13882TIP3    H163061   2.696   4.366  17.193 -0.9321  1.6444 -0.6141
13882TIP3    H263062   2.555   4.311  17.204 -1.2319  2.8321  2.7292
13883TIP3   OH263063   3.875   0.134   2.388 -0.5078 -0.5833 -0.1384
13883TIP3    H163064   3.780   0.139   2.380 -0.5603  1.2313  0.9429
13883TIP3    H263065   3.907   0.206   2.333  0.1698 -0.5206  0.3294
13884TIP3   OH263066   3.669   2.448  14.363 -0.3746  0.5637  0.0921
13884TIP3    H163067   3.604   2.414  14.423 -0.5276 -1.7696 -1.2803
13884TIP3    H263068   3.710   2.370  14.324  0.5668  1.9485 -1.8957
13885TIP3   OH263069   4.674   0.849   4.902  0.3269  0.0047 -0.4024
13885TIP3    H163070   4.585   0.884   4.907 -0.2200 -1.4452  0.5984
13885TIP3    H263071   4.700   0.835   4.993  1.3174 -0.2458 -0.7045
13886TIP3   OH263072   5.881   6.633   3.524  0.7010 -0.2118  0.5820
13886TIP3    H163073   5.825   6.611   3.450  0.9685 -1.5467  0.7393
13886TIP3    H263074   5.820   6.650   3.596  0.4008  2.0343 -0.1252
13887TIP3   OH263075   2.540   5.309  11.756  0.3742 -0.1356  0.4655
13887TIP3    H163076   2.490   5.347  11.828 -0.4796  0.8013 -0.6105
13887TIP3    H263077   2.603   5.377  11.731 -0.1866  0.0416 -0.5050
13888TIP3   OH263078   3.520   0.654   0.118 -0.5832  0.3096 -0.4103
13888TIP3    H163079   3.501   0.691   0.204  2.4600  3.4688 -0.8494
13888TIP3    H263080   3.442   0.674   0.065 -1.7402 -0.0487  1.1006
13889TIP3   OH263081   5.839   0.926  16.070 -0.2507 -0.1553 -0.1453
13889TIP3    H163082   5.885   0.924  16.154  2.5880 -2.3343 -1.5829
13889TIP3    H263083   5.882   0.996  16.021  0.3147 -1.0044 -0.8748
13890TIP3   OH263084   6.616   5.762   5.203 -0.2518 -0.2868 -0.1047
13890TIP3    H163085   6.663   5.803   5.276 -0.9316  0.1767  0.0763
13890TIP3    H263086   6.530   5.741   5.238 -1.0805  1.1855 -1.1373
13891TIP3   OH263087   4.853   3.819   0.374  0.5157 -1.0186  0.4822
13891TIP3    H163088   4.779   3.875   0.398  0.1996 -1.1058 -0.2774
13891TIP3    H263089   4.909   3.820   0.452  0.7131  0.6704  0.3549
13892TIP3   OH263090   5.068   4.216   4.253 -0.3042  0.1287  0.5303
13892TIP3    H163091   5.047   4.234   4.345 -0.2166  0.2656  0.5237
13892TIP3    H263092   5.138   4.151   4.257 -0.7339 -0.3405  0.5527
13893TIP3   OH263093   4.166   2.590  11.502  0.6992  0.1261  0.6614
13893TIP3    H163094   4.124   2.674  11.484  0.2664 -0.6062 -2.1195
13893TIP3    H263095   4.133   2.531  11.435  3.2438 -1.5197  0.7153
13894TIP3   OH263096   5.279   1.952  13.666 -0.3447 -0.0779  0.1603
13894TIP3    H163097   5.322   1.869  13.648  0.4087  0.5477 -1.0989
13894TIP3    H263098   5.208   1.931  13.727  1.0179 -1.3212  1.3798
13895TIP3   OH263099   4.754   1.672  16.662  0.0414  0.2176 -0.0487
13895TIP3    H163100   4.667   1.633  16.662 -0.5194  1.4218  0.0585
13895TIP3    H263101   4.756   1.729  16.739 -0.1192  2.3490 -1.5106
13896TIP3   OH263102   3.517   2.230  10.236 -0.0287  0.4135 -0.1989
13896TIP3    H163103   3.491   2.143  10.266  0.5116  0.2259 -0.2636
13896TIP3    H263104   3.543   2.276  10.316  0.8630  0.1035 -0.3046
13897TIP3   OH263105   1.015   2.509   0.272  0.4383 -0.2564 -0.4613
13897TIP3    H163106   0.940   2.567   0.261  0.4254 -0.2347 -0.2564
13897TIP3    H263107   0.979   2.431   0.315  0.1845 -0.9900 -1.9021
13898TIP3   OH263108   6.684   4.029   0.524  0.0768  0.2571  0.3017
13898TIP3    H163109   6.634   3.992   0.451 -2.2953  0.8092  1.5331
13898TIP3    H263110   6.731   3.955   0.561 -1.1830 -0.6708  0.1031
13899TIP3   OH263111   1.937   2.598   2.172 -1.2113 -0.1981  0.2588
13899TIP3    H163112   1.956   2.619   2.080 -0.1425 -1.5551  0.1382
13899TIP3    H263113   1.921   2.683   2.213  2.1343  0.8727 -0.3451
13900TIP3   OH263114   1.138   2.624   1.054  0.0643 -0.0212  0.0539
13900TIP3    H163115   1.053   2.666   1.065 -0.4033 -1.3237  1.9898
13900TIP3    H263116   1.120   2.547   0.999 -0.2587 -0.9028  1.3598
13901TIP3   OH263117   5.570   1.149  14.053 -0.1509  0.1377  0.5034
13901TIP3    H163118   5.475   1.142  14.056 -0.0858 -0.6994  1.8182
13901TIP3    H263119   5.599   1.064  14.020  0.1354  0.6522 -0.6157
13902TIP3   OH263120   6.752   6.482   4.230 -0.4333  0.2013 -0.3568
13902TIP3    H163121   6.713   6.570   4.234  0.9683  0.8890 -1.0713
13902TIP3    H263122   6.678   6.423   4.245 -1.1607  1.5228  1.7206
13903TIP3   OH263123   6.320   5.955  16.910 -0.1714 -0.2382  0.3351
13903TIP3    H163124   6.365   5.877  16.944 -1.8722 -0.6610  1.7828
13903TIP3    H263125   6.234   5.923  16.884  0.2255  0.5919 -2.1705
13904TIP3   OH263126   1.659   1.845   4.207 -0.1321 -0.3367  0.0515
13904TIP3    H163127   1.631   1.859   4.297 -2.7610  1.3885 -0.9082
13904TIP3    H263128   1.704   1.926   4.183  2.5302 -1.5972  0.3515
13905TIP3   OH263129   1.149   4.383  15.243  0.2206 -0.0956 -0.0078
13905TIP3    H163130   1.181   4.293  15.238 -0.3667 -0.2853 -0.4945
13905TIP3    H263131   1.079   4.387  15.178 -0.0124  0.6095  0.2791
13906TIP3   OH263132   5.216   4.844  12.347  0.4210 -0.1508  0.1491
13906TIP3    H163133   5.127   4.878  12.353  0.5142  0.9456 -3.0056
13906TIP3    H263134   5.271   4.922  12.337  1.6715 -0.8501  1.3159
13907TIP3   OH263135   3.284   4.802   0.342 -0.4839 -0.2745 -0.6575
13907TIP3    H163136   3.206   4.854   0.359 -0.8728  0.4068 -3.9055
13907TIP3    H263137   3.355   4.867   0.335 -0.1024 -0.6397 -0.2282
13908TIP3   OH263138   2.163   2.439   0.094  0.4039  0.1858 -0.2845
13908TIP3    H163139   2.068   2.443   0.105  0.3059 -3.3876  1.8904
13908TIP3    H263140   2.195   2.402   0.177  3.3995 -1.1013 -1.8670
13909TIP3   OH263141   3.025   4.732  13.095  0.0230  0.1566  0.1302
13909TIP3    H163142   3.110   4.689  13.100 -0.3630 -0.5828  0.6924
13909TIP3    H263143   2.984   4.697  13.016 -0.0116  0.0122  0.2113
13910TIP3   OH263144   6.316   6.696  11.214  0.6356 -0.2643  0.3927
13910TIP3    H163145   6.405   6.700  11.249  1.0455  2.2084 -0.7129
13910TIP3    H263146   6.325   6.644  11.133  1.3243  0.7925 -0.2420
13911TIP3   OH263147   0.743   0.520   3.357  0.0455  0.4347  0.0818
13911TIP3    H163148   0.803   0.593   3.372  0.0607  1.0105 -2.4786
13911TIP3    H263149   0.681   0.552   3.292  0.0030 -1.7962 -1.0768
13912TIP3   OH263150   2.843   0.688   2.410  0.1773  0.7606 -0.0980
13912TIP3    H163151   2.808   0.610   2.367 -2.7644  1.0930  1.4597
13912TIP3    H263152   2.875   0.656   2.494  2.4553  0.7227 -0.9070
13913TIP3   OH263153   1.963   0.655   2.602  0.0737  0.2473 -0.4964
13913TIP3    H163154   1.895   0.623   2.544 -0.6078 -1.5601  1.1905
13913TIP3    H263155   1.917   0.713   2.663  0.4935  0.8178 -0.7025
13914TIP3   OH263156   3.869   1.719  15.492 -0.4077  0.1418 -0.3552
13914TIP3    H163157   3.914   1.703  15.409  0.0380 -0.6381  0.0226
13914TIP3    H263158   3.814   1.796  15.476  1.5687  1.5705 -0.6574
13915TIP3   OH263159   0.797   4.273   1.298  0.0491 -0.2186 -0.0029
13915TIP3    H163160   0.878   4.315   1.271 -0.0585 -0.5957 -0.9267
13915TIP3    H263161   0.763   4.330   1.368  1.3850 -0.3628  0.8072
13916TIP3   OH263162   1.271   2.739   4.830 -0.0676 -0.3425  0.1783
13916TIP3    H163163   1.350   2.711   4.784 -0.4044 -0.5874 -0.2538
13916TIP3    H263164   1.217   2.660   4.834 -0.0184 -0.3408  1.0524
13917TIP3   OH263165   4.611   0.556  15.973  0.3746 -0.3495  0.0950
13917TIP3    H163166   4.598   0.494  15.901 -5.4501  0.9876 -0.4906
13917TIP3    H263167   4.539   0.538  16.033  0.2453  3.7672  1.4590
13918TIP3   OH263168   2.535   4.592   4.793  0.1445 -0.4395  0.3837
13918TIP3    H163169   2.486   4.660   4.839 -0.7099 -1.0348  0.3817
13918TIP3    H263170   2.611   4.576   4.849  0.2320  0.3329  0.5064
13919TIP3   OH263171   0.904   4.183  16.691  0.3540  0.1062  0.5724
13919TIP3    H163172   0.911   4.089  16.673  0.0881  0.0098  0.9613
13919TIP3    H263173   0.811   4.202  16.681  0.3986  0.3168  0.5652
13920TIP3   OH263174   1.800   6.388   1.413  0.4872 -0.2840  0.4265
13920TIP3    H163175   1.727   6.327   1.403  0.1814  0.1943 -0.4415
13920TIP3    H263176   1.762   6.474   1.395  1.3091 -0.0559 -0.3456
13921TIP3   OH263177   1.644   2.846  15.038  0.1224  0.4687  0.0914
13921TIP3    H163178   1.701   2.772  15.016 -0.9553  0.0329 -1.4312
13921TIP3    H263179   1.695   2.924  15.014  1.5830  0.3273  2.4527
13922TIP3   OH263180   0.236   6.569   3.728  0.1068 -0.2447 -0.6166
13922TIP3    H163181   0.266   6.574   3.637  0.6537 -0.1427 -0.4334
13922TIP3    H263182   0.258   6.654   3.765 -2.8390  0.9004 -1.1959
13923TIP3   OH263183   0.491   1.442  11.519  0.2047 -0.2194 -0.4823
13923TIP3    H163184   0.444   1.511  11.472 -1.2197 -0.8916 -0.1140
13923TIP3    H263185   0.560   1.488  11.567 -0.3531  0.8743 -0.6911
13924TIP3   OH263186   2.676   0.948  14.646 -0.0521 -0.3642 -0.0283
13924TIP3    H163187   2.715   0.939  14.559 -2.6615 -0.4588 -1.3031
13924TIP3    H263188   2.583   0.927  14.632 -0.6032 -0.1210  2.7504
13925TIP3   OH263189   2.890   5.462   1.628  0.2000  0.1483  0.0707
13925TIP3    H163190   2.833   5.387   1.608 -0.4058  0.5302  0.3480
13925TIP3    H263191   2.970   5.423   1.662 -1.5608 -0.3394  4.1763
13926TIP3   OH263192   4.117   5.599  17.002  0.1882 -0.2835  0.2304
13926TIP3    H163193   4.209   5.622  17.012 -0.1616  1.5897 -0.3971
13926TIP3    H263194   4.118   5.512  16.963  1.7140 -0.1275 -0.1409
13927TIP3   OH263195   1.544   4.874   5.108 -0.0826  0.0256 -0.3004
13927TIP3    H163196   1.503   4.848   5.026 -1.2918  0.6032  0.0817
13927TIP3    H263197   1.636   4.886   5.087 -0.5942  1.5411 -1.9281
13928TIP3   OH263198   2.200   2.669  15.849 -0.6635 -0.1594 -0.4225
13928TIP3    H163199   2.211   2.695  15.758 -1.2184 -0.9184 -0.7211
13928TIP3    H263200   2.274   2.709  15.895 -1.8207  2.4746 -0.7047
13929TIP3   OH263201   3.753   3.962  17.141  0.2840 -0.2466  0.1788
13929TIP3    H163202   3.812   3.904  17.094 -0.0098 -0.6170  0.2636
13929TIP3    H263203   3.807   4.000  17.211  0.5919 -0.0693 -0.1529
13930TIP3   OH263204   0.156   6.493  14.762  0.3829 -0.2130 -0.8787
13930TIP3    H163205   0.207   6.448  14.695  2.0698 -0.9774  0.8344
13930TIP3    H263206   0.221   6.527  14.823 -1.0930  0.2834  0.4965
13931TIP3   OH263207   0.842   1.027   3.560 -0.1467  0.4217 -0.0451
13931TIP3    H163208   0.894   1.028   3.479  0.3297  2.4223  0.2352
13931TIP3    H263209   0.907   1.030   3.630 -0.5879  0.3671  0.3700
13932TIP3   OH263210   3.935   5.089  12.808 -0.0529 -0.0544 -0.4331
13932TIP3    H163211   3.978   5.131  12.883  1.1854 -1.2621 -0.4202
13932TIP3    H263212   4.007   5.049  12.759 -1.1765 -2.6825 -0.0976
13933TIP3   OH263213   6.312   6.585   5.246 -0.0064  0.5262 -0.1672
13933TIP3    H163214   6.305   6.492   5.227  0.7834  0.0124  1.7954
13933TIP3    H263215   6.295   6.628   5.162 -1.7476 -1.3004 -0.8395
13934TIP3   OH263216   3.882   5.628  12.387  0.3999 -0.1276 -0.1148
13934TIP3    H163217   3.941   5.554  12.373  1.8798  0.8573  0.5661
13934TIP3    H263218   3.864   5.662  12.300 -0.4162 -1.3648 -0.4410
13935TIP3   OH263219   1.395   3.888   3.124  0.3723  0.3949  0.1705
13935TIP3    H163220   1.378   3.856   3.212 -0.9376  0.1299 -0.1682
13935TIP3    H263221   1.466   3.832   3.092 -1.4394 -1.8456 -0.1800
13936TIP3   OH263222   4.370   4.302  14.848  0.2082 -0.0664 -0.2176
13936TIP3    H163223   4.300   4.241  14.875 -0.1411  0.2220 -0.4561
13936TIP3    H263224   4.401   4.266  14.764  0.8524 -0.6034  0.2443
13937TIP3   OH263225   2.718   1.105   5.114 -0.1259  0.1495 -0.0406
13937TIP3    H163226   2.627   1.134   5.109 -0.1733 -0.1882 -1.5196
13937TIP3    H263227   2.765   1.161   5.052  0.6612  0.2237  0.5986
13938TIP3   OH263228   2.815   1.813   3.461 -0.0171 -0.1119 -0.0959
13938TIP3    H163229   2.739   1.762   3.433  0.5235 -1.1697  0.2906
13938TIP3    H263230   2.780   1.874   3.526 -0.6782 -0.0024 -0.5480
13939TIP3   OH263231   4.280   3.455   5.127  0.7263 -0.2427  0.1180
13939TIP3    H163232   4.248   3.434   5.039  1.2814  0.3315 -0.2306
13939TIP3    H263233   4.325   3.376   5.156  0.6400 -0.3941 -0.1588
13940TIP3   OH263234   4.133   3.032   1.906  0.5708 -0.1820 -1.0024
13940TIP3    H163235   4.051   3.047   1.860  0.1721 -1.7152 -0.8597
13940TIP3    H263236   4.181   2.970   1.851  1.4367  0.3358 -0.8562
13941TIP3   OH263237   1.714   6.378  11.662  0.5843 -0.3242 -0.0647
13941TIP3    H163238   1.745   6.461  11.699 -0.4495  0.2695 -0.5053
13941TIP3    H263239   1.713   6.318  11.737  0.2608  0.3707  0.5066
13942TIP3   OH263240   3.982   0.561   2.184  0.4159  0.6152  0.2955
13942TIP3    H163241   3.970   0.626   2.253  1.0768 -0.8752  1.8766
13942TIP3    H263242   4.018   0.611   2.110  0.9047  2.0508  1.4570
13943TIP3   OH263243   3.385   1.163   4.034 -0.2292  0.5547  0.5691
13943TIP3    H163244   3.413   1.073   4.050 -0.3557  0.8784  3.0267
13943TIP3    H263245   3.290   1.158   4.028 -0.2557  0.5385  0.9614
13944TIP3   OH263246   6.190   4.451  13.738  0.0727  0.1406 -0.0755
13944TIP3    H163247   6.264   4.443  13.678  0.4046 -1.9494  0.5338
13944TIP3    H263248   6.228   4.485  13.818  0.9898 -3.2002  1.0764
13945TIP3   OH263249   6.329   0.401   4.814  0.2320 -0.1760 -0.0738
13945TIP3    H163250   6.269   0.461   4.769  0.7773  1.2777  1.0600
13945TIP3    H263251   6.394   0.379   4.748 -0.0668  0.3563 -0.5624
13946TIP3   OH263252   2.160   5.395   5.164  0.1939  0.1990 -0.0611
13946TIP3    H163253   2.189   5.304   5.149  0.4134  0.1993  0.3373
13946TIP3    H263254   2.234   5.448   5.136  0.6257  0.1979  1.0190
13947TIP3   OH263255   1.665   1.967  14.226  0.4404 -0.4111 -0.2530
13947TIP3    H163256   1.717   1.955  14.147  2.4061  1.0071  0.7070
13947TIP3    H263257   1.696   1.899  14.286  0.0452 -0.5440 -0.1952
13948TIP3   OH263258   3.374   1.570  10.801  0.3707 -0.4467  0.0122
13948TIP3    H163259   3.423   1.559  10.720 -0.8070 -1.7498 -0.5724
13948TIP3    H263260   3.287   1.598  10.773  0.2149 -0.0223  0.8862
13949TIP3   OH263261   3.472   2.926  12.401 -0.0200  0.2253 -0.1100
13949TIP3    H163262   3.493   2.844  12.446 -1.6711 -1.0267 -1.4877
13949TIP3    H263263   3.554   2.955  12.363  0.7075 -0.4523  0.9097
13950TIP3   OH263264   5.522   5.407   1.372  0.0111  0.2421  0.2932
13950TIP3    H163265   5.527   5.330   1.315 -0.5540  0.3486  0.0998
13950TIP3    H263266   5.544   5.481   1.316 -3.4324  0.7503 -0.6282
13951TIP3   OH263267   4.917   4.790   5.919  0.3941 -0.1170 -0.3301
13951TIP3    H163268   4.903   4.696   5.905 -3.8664  0.5773 -2.2143
13951TIP3    H263269   4.948   4.822   5.834 -0.0726  0.4474 -0.2900
13952TIP3   OH263270   3.291   1.198   1.860  0.3169 -0.2981 -0.3590
13952TIP3    H163271   3.281   1.192   1.955 -1.4985 -1.3132 -0.5732
13952TIP3    H263272   3.259   1.285   1.837  0.7226 -0.0667 -0.0688
13953TIP3   OH263273   3.688   4.134   0.150 -0.3259  0.2564  0.0417
13953TIP3    H163274   3.691   4.138   0.054  1.9775 -0.2386  0.0352
13953TIP3    H263275   3.736   4.055   0.173  0.3493  1.0634  1.6238
13954TIP3   OH263276   6.024   3.773   0.514 -0.0577 -0.1470 -0.1795
13954TIP3    H163277   6.031   3.866   0.534  0.5572 -0.5705  1.8400
13954TIP3    H263278   6.113   3.746   0.491 -0.3804 -0.1087 -1.5807
13955TIP3   OH263279   0.593   5.054  12.724  0.6939  0.0637 -0.2911
13955TIP3    H163280   0.522   5.104  12.684  1.5397  0.9942 -0.6637
13955TIP3    H263281   0.671   5.081  12.677  1.9914  2.3021  2.8017
13956TIP3   OH263282   4.594   4.912   0.297  0.0132 -0.4129  0.2262
13956TIP3    H163283   4.563   4.830   0.334  0.8380  0.2117  2.4636
13956TIP3    H263284   4.665   4.888   0.238 -0.0107 -1.3275  0.5638
13957TIP3   OH263285   0.397   2.525   4.685 -0.0801 -0.0203 -0.0859
13957TIP3    H163286   0.438   2.596   4.733 -0.4978 -0.3332  0.7450
13957TIP3    H263287   0.313   2.561   4.656 -1.2059 -0.7638  2.0558
13958TIP3   OH263288   3.137   0.955  15.394 -0.2095  0.2068  0.3211
13958TIP3    H163289   3.097   0.890  15.451 -0.3985 -1.5779 -1.7060
13958TIP3    H263290   3.208   0.908  15.350 -0.1508  1.4321 -0.9820
13959TIP3   OH263291   1.025   5.691   5.421  0.1210 -0.1968 -0.0482
13959TIP3    H163292   1.083   5.740   5.363 -1.1247 -0.5883 -1.7152
13959TIP3    H263293   1.059   5.602   5.419  0.4073 -0.0967  0.2814
13960TIP3   OH263294   0.660   3.262  12.490 -0.0968 -0.3902  0.4380
13960TIP3    H163295   0.611   3.214  12.423  1.5126 -0.7644 -0.5229
13960TIP3    H263296   0.606   3.256  12.569 -1.8761 -0.2599 -0.7049
13961TIP3   OH263297   0.984   4.986  13.947  0.6245  0.0008  0.2929
13961TIP3    H163298   1.034   5.011  13.869 -0.4827  0.3655 -0.3174
13961TIP3    H263299   0.912   5.049  13.950  0.4622 -0.2174  1.4315
13962TIP3   OH263300   1.162   0.155  13.038  0.4495 -0.1149  0.0718
13962TIP3    H163301   1.069   0.165  13.015  0.1802 -0.6018  0.9022
13962TIP3    H263302   1.196   0.244  13.044  0.1980  0.0509 -0.8746
13963TIP3   OH263303   2.236   2.217  16.299  0.1762 -0.1692  0.3338
13963TIP3    H163304   2.299   2.216  16.227 -0.0070  0.4624  0.1540
13963TIP3    H263305   2.152   2.198  16.257 -0.0134  0.7332  0.2872
13964TIP3   OH263306   5.703   6.511   4.565  0.8363  0.1333 -0.4459
13964TIP3    H163307   5.773   6.574   4.546  0.9491  1.0126  2.4345
13964TIP3    H263308   5.736   6.460   4.639 -0.2972 -1.6426 -1.1086
13965TIP3   OH263309   6.549   0.339   3.163 -0.1274 -0.1175  0.3224
13965TIP3    H163310   6.473   0.372   3.115 -1.4659 -2.4869  0.6648
13965TIP3    H263311   6.526   0.249   3.186  2.6410 -0.8028  0.8070
13966TIP3   OH263312   1.445   5.275  11.631  0.0613  0.1422  0.1617
13966TIP3    H163313   1.476   5.314  11.550  0.4093 -1.4580 -0.5242
13966TIP3    H263314   1.385   5.205  11.603 -0.2066 -0.1058  1.2921
13967TIP3   OH263315   6.695   6.718   3.113  0.6723  0.3057  0.0008
13967TIP3    H163316   6.760   6.696   3.180  1.8653  1.2189 -0.8226
13967TIP3    H263317   6.615   6.673   3.142  2.0281 -2.1144  0.2614
13968TIP3   OH263318   5.393   6.553  12.266  0.4557  0.5782  0.1698
13968TIP3    H163319   5.371   6.581  12.354 -0.9587 -0.1294  0.0714
13968TIP3    H263320   5.484   6.523  12.272 -0.1478 -1.0860  1.8168
13969TIP3   OH263321   0.771   2.826  13.363 -1.0120  0.5449 -0.0876
13969TIP3    H163322   0.684   2.791  13.382 -0.5882 -0.3986  0.1697
13969TIP3    H263323   0.822   2.750  13.336 -0.2112  1.0597 -0.0601
13970TIP3   OH263324   5.001   1.803  11.631  0.1088  0.2937  0.0262
13970TIP3    H163325   4.994   1.788  11.726  1.4477 -0.7130 -0.0077
13970TIP3    H263326   5.068   1.871  11.623  0.4956 -0.1178 -0.2294
13971TIP3   OH263327   2.148   5.926  12.798 -0.2366 -0.7450 -0.1762
13971TIP3    H163328   2.125   6.018  12.782  2.9049  0.2539  0.3866
13971TIP3    H263329   2.144   5.885  12.712 -0.2153  0.3047 -0.7011
13972TIP3   OH263330   3.496   6.748   3.002 -0.1475 -0.1181  0.1190
13972TIP3    H163331   3.576   6.799   3.014  0.1068 -0.5625  0.3421
13972TIP3    H263332   3.455   6.785   2.924  0.8682 -0.6350 -0.6765
13973TIP3   OH263333   2.772   1.393  10.456 -0.2652 -0.3882 -0.0551
13973TIP3    H163334   2.814   1.313  10.423 -1.5282 -0.5508 -1.3745
13973TIP3    H263335   2.826   1.464  10.423  0.2313 -0.6594  0.1631
13974TIP3   OH263336   2.924   4.064   1.136 -0.4837  0.5452  0.0971
13974TIP3    H163337   2.868   4.137   1.164  0.5176  1.2542  0.3053
13974TIP3    H263338   2.950   4.087   1.047 -1.0599 -0.1254 -0.2554
13975TIP3   OH263339   5.899   4.223   3.192 -0.4039  0.1146  0.2970
13975TIP3    H163340   5.822   4.276   3.212  0.2527  0.9785  0.6034
13975TIP3    H263341   5.863   4.139   3.161 -1.4538  0.3357  0.8605
13976TIP3   OH263342   2.829   4.366  16.131 -0.1892 -0.4000 -0.0191
13976TIP3    H163343   2.740   4.341  16.159  0.6072 -2.5604  0.8341
13976TIP3    H263344   2.861   4.290  16.082  1.4078  0.0950  0.1915
13977TIP3   OH263345   3.012   6.187  17.037 -0.4960  0.0193 -0.2117
13977TIP3    H163346   3.084   6.162  16.980 -0.6561 -1.2717  0.1209
13977TIP3    H263347   2.937   6.197  16.979 -0.4050 -0.1667 -0.3582
13978TIP3   OH263348   2.353   5.597  16.087 -0.1185  0.5643  0.4203
13978TIP3    H163349   2.317   5.686  16.086  0.0636  0.6585 -0.9990
13978TIP3    H263350   2.308   5.553  16.014 -1.2217 -0.9446  1.9417
13979TIP3   OH263351   2.657   2.384  10.949  0.8231 -0.2723  0.4660
13979TIP3    H163352   2.665   2.338  10.865 -0.9124 -0.1944  0.2143
13979TIP3    H263353   2.683   2.319  11.014  1.8023 -0.4635 -0.0988
13980TIP3   OH263354   3.072   3.797  12.217 -0.4141 -0.4208 -0.3206
13980TIP3    H163355   3.123   3.728  12.175 -0.3208  0.1789 -1.2146
13980TIP3    H263356   3.093   3.876  12.167 -1.2826  0.0665  0.0674
13981TIP3   OH263357   0.942   2.074  16.407  0.4031 -0.2223 -0.3506
13981TIP3    H163358   0.935   1.983  16.436  0.7495 -0.3553 -0.6714
13981TIP3    H263359   0.855   2.096  16.375 -0.2007  0.1801  1.4917
13982TIP3   OH263360   6.066   3.716  11.605  0.4589  0.0732  0.1379
13982TIP3    H163361   6.043   3.666  11.527 -0.4524 -0.0069  0.4500
13982TIP3    H263362   6.007   3.791  11.604  0.2518 -0.0782  0.8986
13983TIP3   OH263363   0.030   2.411   4.790  0.1848  0.0926  0.0902
13983TIP3    H163364   0.109   2.392   4.841 -0.5195  0.6166  1.4177
13983TIP3    H263365   0.042   2.362   4.708  1.2477 -0.9345  0.8319
13984TIP3   OH263366   0.216   6.367  15.024 -0.1371 -1.0586 -0.6047
13984TIP3    H163367   0.263   6.283  15.024 -0.5002 -1.2830 -1.5839
13984TIP3    H263368   0.279   6.429  14.987  0.8727 -0.4096  1.9976
13985TIP3   OH263369   3.537   1.060   0.989  0.4315 -0.4812 -0.5380
13985TIP3    H163370   3.455   1.070   0.942  0.5137 -2.2067 -1.1273
13985TIP3    H263371   3.590   1.135   0.962 -0.3697 -0.2141 -1.3986
13986TIP3   OH263372   2.078   1.997  10.630 -0.2578 -0.0375 -0.3020
13986TIP3    H163373   2.059   2.085  10.662 -1.1146 -0.3562  0.0821
13986TIP3    H263374   2.010   1.980  10.565  0.5423 -0.0076 -1.1768
13987TIP3   OH263375   0.017   5.397   4.204  0.3962  0.9779  0.6645
13987TIP3    H163376   0.082   5.346   4.157  0.9843  2.4321 -0.1672
13987TIP3    H263377   0.058   5.416   4.289  1.3797  2.4316 -0.0925
13988TIP3   OH263378   5.842   1.374  12.621  0.2734  0.1397  0.2540
13988TIP3    H163379   5.771   1.338  12.567 -0.2806  0.6494  0.6281
13988TIP3    H263380   5.826   1.338  12.708  0.1180  0.7300  0.4747
13989TIP3   OH263381   4.089   5.864  15.087  0.1914  0.0508 -0.3675
13989TIP3    H163382   4.103   5.906  15.172  1.1822  2.7818 -1.7744
13989TIP3    H263383   4.174   5.829  15.062 -0.0647 -0.6160 -0.3409
13990TIP3   OH263384   4.642   1.842  10.733  0.0512  0.1130  0.2685
13990TIP3    H163385   4.652   1.928  10.693 -1.1528  1.0704  1.8811
13990TIP3    H263386   4.548   1.824  10.730  0.3120 -1.3134 -0.3087
13991TIP3   OH263387   3.412   4.936   6.208 -0.0116 -0.5074  0.0547
13991TIP3    H163388   3.322   4.968   6.196  0.8547  1.0894 -2.9442
13991TIP3    H263389   3.434   4.962   6.298 -2.6390 -1.4139  1.0854
13992TIP3   OH263390   4.571   2.956  13.672 -0.7680 -0.0992 -0.9953
13992TIP3    H163391   4.491   2.909  13.646 -0.2793 -1.1925 -0.5810
13992TIP3    H263392   4.577   2.942  13.766 -0.5649  0.7619 -0.8682
13993TIP3   OH263393   0.370   5.349  14.114  0.6994 -0.0196  0.2512
13993TIP3    H163394   0.321   5.270  14.138 -0.7033  0.4246 -0.9768
13993TIP3    H263395   0.457   5.317  14.091  1.5079 -0.6918  3.6937
13994TIP3   OH263396   3.455   4.084  17.074  0.3254  0.4119  0.0584
13994TIP3    H163397   3.394   4.151  17.105  0.7875  0.2344  1.4235
13994TIP3    H263398   3.541   4.126  17.081  0.3912  0.6862 -1.9125
13995TIP3   OH263399   0.465   3.857  13.705 -0.4450 -0.2280 -0.0249
13995TIP3    H163400   0.386   3.827  13.751  0.3894 -0.4889  1.2697
13995TIP3    H263401   0.513   3.777  13.684 -1.1368 -0.1868 -2.0624
13996TIP3   OH263402   3.370   6.509  16.666  0.2157 -0.5309 -0.7573
13996TIP3    H163403   3.381   6.591  16.714 -1.0524 -1.1709  0.7159
13996TIP3    H263404   3.279   6.510  16.637 -0.3897 -2.1729  0.8759
13997TIP3   OH263405   0.651   1.996   0.609 -0.0556 -0.1487  0.0092
13997TIP3    H163406   0.677   2.049   0.684  0.3920  0.3837 -0.5092
13997TIP3    H263407   0.647   1.906   0.643 -0.6839  0.1827  0.8640
13998TIP3   OH263408   4.706   1.396   1.334 -0.0714  0.8278  0.2130
13998TIP3    H163409   4.706   1.352   1.419  0.2025  1.6625  0.6582
13998TIP3    H263410   4.792   1.437   1.328 -0.4446  1.6071 -0.0161
13999TIP3   OH263411   2.627   3.629  11.862 -0.3153  0.0577  0.5462
13999TIP3    H163412   2.611   3.712  11.907  0.8074  0.5918  0.0128
13999TIP3    H263413   2.551   3.617  11.805 -0.2587  0.9937  0.2505
14000TIP3   OH263414   1.834   5.423  14.411  0.3853 -0.0464  0.0791
14000TIP3    H163415   1.800   5.465  14.332  0.9825  0.3126  0.0093
14000TIP3    H263416   1.862   5.496  14.466  0.8651 -0.3310  0.2142
14001TIP3   OH263417   0.165   6.275  12.816 -0.3053 -0.1635 -0.0925
14001TIP3    H163418   0.141   6.195  12.771 -0.4045 -1.0865  1.5191
14001TIP3    H263419   0.114   6.274  12.897  0.9607  0.6634  0.7552
14002TIP3   OH263420   2.554   5.789  11.796 -0.1039 -0.0159 -0.2733
14002TIP3    H163421   2.540   5.839  11.715 -1.0398 -0.4071 -0.3754
14002TIP3    H263422   2.515   5.703  11.777 -0.9929  0.1192  0.8251
14003TIP3   OH263423   6.409   2.639  13.728  0.1233 -0.4051 -0.6836
14003TIP3    H163424   6.494   2.630  13.771  0.3920  1.4566 -0.7318
14003TIP3    H263425   6.418   2.717  13.673 -2.3359  1.3155  1.1370
14004TIP3   OH263426   4.344   3.795   4.924 -0.1438 -0.3092 -0.1912
14004TIP3    H163427   4.379   3.814   5.011  1.2795  0.2526 -0.8418
14004TIP3    H263428   4.286   3.869   4.905 -0.7298 -0.6076  0.4036
14005TIP3   OH263429   3.520   0.702  13.825 -0.4725 -0.1589  0.1655
14005TIP3    H163430   3.596   0.753  13.795 -0.1495  1.1417  2.8547
14005TIP3    H263431   3.539   0.612  13.798  0.5185  0.6118 -1.8939
14006TIP3   OH263432   3.035   0.324  11.457 -0.3794 -0.0768 -0.3759
14006TIP3    H163433   3.099   0.394  11.449 -0.0927 -0.3656 -0.6774
14006TIP3    H263434   3.085   0.244  11.444 -0.5856 -0.3809  0.5840
14007TIP3   OH263435   1.278   6.200  16.021 -0.4499 -0.2702  0.1502
14007TIP3    H163436   1.312   6.200  15.932 -0.3734  1.1820  0.1686
14007TIP3    H263437   1.193   6.242  16.015  0.0832  0.9759  0.9426
14008TIP3   OH263438   3.732   4.771   5.000 -0.1491  0.5405 -0.3637
14008TIP3    H163439   3.722   4.800   5.091 -0.2377 -0.6527  0.0255
14008TIP3    H263440   3.681   4.691   4.995  2.3579 -1.1747 -0.5922
14009TIP3   OH263441   1.680   0.858  16.884 -0.3213  0.2183  0.1467
14009TIP3    H163442   1.677   0.788  16.819 -0.5138 -0.1162  0.5078
14009TIP3    H263443   1.708   0.935  16.836  0.4775 -0.2415 -0.1474
14010TIP3   OH263444   1.459   2.579  11.240 -0.0188 -0.0294  0.1901
14010TIP3    H163445   1.455   2.613  11.151 -1.3402 -0.6387 -0.0065
14010TIP3    H263446   1.492   2.653  11.292  0.6763  0.3587 -0.7676
14011TIP3   OH263447   5.413   6.020   4.168 -0.1758  0.0777 -0.2830
14011TIP3    H163448   5.367   5.949   4.122  2.9676 -2.2069 -0.2462
14011TIP3    H263449   5.420   5.988   4.258  0.8884  0.6342 -0.1592
14012TIP3   OH263450   6.610   2.161  12.871 -0.1703 -0.1135  0.3796
14012TIP3    H163451   6.602   2.241  12.820 -1.5059 -1.0173 -0.8868
14012TIP3    H263452   6.576   2.092  12.814  0.4743 -1.5188  1.6263
14013TIP3   OH263453   2.047   3.124  16.729  0.5862  0.3583  0.0355
14013TIP3    H163454   2.101   3.050  16.702  0.6301  0.2868  0.3073
14013TIP3    H263455   2.078   3.197  16.675  1.8903  0.6411  1.0876
14014TIP3   OH263456   2.041   2.176  12.824  0.3769 -0.0111  0.5360
14014TIP3    H163457   2.032   2.139  12.737  0.6970  0.3329  0.3564
14014TIP3    H263458   2.135   2.179  12.840  0.3363  0.3309  0.7190
14015TIP3   OH263459   3.690   1.857  11.772  0.0116  0.3511 -0.2267
14015TIP3    H163460   3.725   1.784  11.721 -3.8576  0.3374 -3.3095
14015TIP3    H263461   3.634   1.816  11.838  0.7879  0.5505  0.5921
14016TIP3   OH263462   3.855   2.293  13.691 -0.1503  0.1151  0.1360
14016TIP3    H163463   3.860   2.362  13.756  1.6406 -2.1005  2.5387
14016TIP3    H263464   3.924   2.315  13.628  0.4084  0.5198  0.8718
14017TIP3   OH263465   5.296   4.175  12.910 -0.4031 -0.5635 -0.4596
14017TIP3    H163466   5.364   4.220  12.961  0.8433  0.0457 -2.5092
14017TIP3    H263467   5.284   4.091  12.954  2.0576 -0.8913 -0.2485
14018TIP3   OH263468   6.426   5.299  14.101  0.5949 -0.4105 -0.1574
14018TIP3    H163469   6.430   5.324  14.008 -0.1951  1.1593  0.2010
14018TIP3    H263470   6.399   5.379  14.146  1.7620 -0.9253  1.5342
14019TIP3   OH263471   5.691   6.653   5.494 -0.1776  0.0905  0.1980
14019TIP3    H163472   5.666   6.708   5.420  0.4383  0.9297  0.5913
14019TIP3    H263473   5.783   6.675   5.510  0.4529 -1.9489 -0.3941
14020TIP3   OH263474   3.987   6.328  11.715  0.2189  0.1558  0.1279
14020TIP3    H163475   3.916   6.268  11.738 -0.6872  1.2468  0.2481
14020TIP3    H263476   4.004   6.309  11.622  0.3926 -0.7241  0.3294
14021TIP3   OH263477   5.601   3.287   5.588  0.0690 -0.3901 -0.1858
14021TIP3    H163478   5.526   3.337   5.619 -1.1035 -1.0895 -1.7456
14021TIP3    H263479   5.596   3.293   5.492  2.5620  0.3234 -0.3564
14022TIP3   OH263480   2.819   4.236   6.015  0.1555  0.0582  0.2299
14022TIP3    H163481   2.858   4.314   6.054 -0.4275  1.3394 -1.5825
14022TIP3    H263482   2.893   4.181   5.992  0.6095  0.3105  1.0429
14023TIP3   OH263483   2.833   1.139   5.441 -0.1302 -0.2497  0.0307
14023TIP3    H163484   2.896   1.075   5.408  1.8214  1.4446  0.3268
14023TIP3    H263485   2.782   1.091   5.506 -0.4825 -2.1788 -1.5517
14024TIP3   OH263486   0.821   3.135  15.721  0.3498 -0.6148 -0.7279
14024TIP3    H163487   0.877   3.211  15.742  0.7230 -0.8181 -0.9795
14024TIP3    H263488   0.733   3.164  15.742  0.6877 -0.7568  1.0279
14025TIP3   OH263489   1.521   4.176  17.346 -0.0426  0.2697  0.2026
14025TIP3    H163490   1.449   4.223  17.305  1.0735  1.1878 -0.7825
14025TIP3    H263491   1.535   4.100  17.290 -0.5018 -0.1349  0.6302
14026TIP3   OH263492   6.401   3.104  10.923 -0.4008 -0.3089 -0.0483
14026TIP3    H163493   6.383   3.196  10.905 -1.8232 -0.9131 -2.0465
14026TIP3    H263494   6.479   3.085  10.871  0.2613 -0.1128  0.8485
14027TIP3   OH263495   3.258   1.655  11.390  0.0165  0.2111 -0.4440
14027TIP3    H163496   3.250   1.667  11.295 -2.3501  0.5289 -0.2705
14027TIP3    H263497   3.247   1.742  11.426  2.7474  0.3885  0.1091
14028TIP3   OH263498   4.198   1.979   5.837  0.1906 -0.3052  0.3177
14028TIP3    H163499   4.263   2.040   5.871  0.3656  0.1852 -0.8839
14028TIP3    H263500   4.115   2.026   5.843  0.1393 -0.4268  0.5779
14029TIP3   OH263501   5.799   0.356   0.958  0.8163  0.5372 -1.0397
14029TIP3    H163502   5.807   0.279   1.013  2.4775  0.8232 -0.8418
14029TIP3    H263503   5.711   0.350   0.921 -0.1790  0.0597  1.2171
14030TIP3   OH263504   2.088   0.076   4.686  0.1164  0.4393 -0.7326
14030TIP3    H163505   2.114  -0.013   4.664 -1.6382 -0.2845 -0.0176
14030TIP3    H263506   2.084   0.078   4.781  0.8925  1.5465 -0.6909
14031TIP3   OH263507   5.063   0.173  14.290  0.2732  0.1682  0.1012
14031TIP3    H163508   5.083   0.244  14.351  0.0405 -0.7988  1.3258
14031TIP3    H263509   5.067   0.214  14.204 -0.5105  1.8221  0.8144
14032TIP3   OH263510   5.105   2.171   2.423  0.5414  0.3111  0.5104
14032TIP3    H163511   5.050   2.233   2.377 -0.5953 -0.9928  0.0264
14032TIP3    H263512   5.170   2.144   2.359 -0.0937 -0.3460  0.1222
14033TIP3   OH263513   3.518   3.122   2.488  0.3171  0.3734  0.0721
14033TIP3    H163514   3.477   3.115   2.574  0.5294 -0.6868  0.0998
14033TIP3    H263515   3.587   3.056   2.489  1.4557  1.5360 -0.2963
14034TIP3   OH263516   4.390   0.337  15.383  0.5002  0.0803 -0.1265
14034TIP3    H163517   4.419   0.253  15.348 -0.6911 -0.3666 -0.1153
14034TIP3    H263518   4.445   0.402  15.340  3.2486 -0.8013  1.7344
14035TIP3   OH263519   3.703   4.470  10.498  0.2590 -0.1655  0.1733
14035TIP3    H163520   3.650   4.547  10.475 -0.6527 -0.7746  0.1857
14035TIP3    H263521   3.652   4.426  10.566  0.2430 -1.3588 -0.5975
14036TIP3   OH263522   6.666   1.518  14.014  0.7082  0.0239  0.0168
14036TIP3    H163523   6.688   1.518  13.921 -1.6900 -0.0478 -0.5937
14036TIP3    H263524   6.571   1.529  14.017  0.6799 -0.3540  2.4525
14037TIP3   OH263525   1.486   4.311  12.313 -0.0051 -0.0547  0.6200
14037TIP3    H163526   1.497   4.394  12.266  0.5463 -0.1594  0.5562
14037TIP3    H263527   1.482   4.337  12.405  0.2407  0.0408  0.6052
14038TIP3   OH263528   3.221   2.349  14.405 -0.3164 -0.2365 -0.0643
14038TIP3    H163529   3.204   2.256  14.393  2.3660 -0.8932  0.5246
14038TIP3    H263530   3.179   2.371  14.489 -0.0198 -1.2210  0.3582
14039TIP3   OH263531   2.043   3.269   4.347  0.0707 -0.3513  0.4363
14039TIP3    H163532   2.101   3.226   4.410  0.0039  0.2784  0.9490
14039TIP3    H263533   2.047   3.362   4.372 -0.1749 -0.1360 -0.3235
14040TIP3   OH263534   6.086   5.444  10.709  0.1460  0.3036  0.0881
14040TIP3    H163535   6.025   5.370  10.715 -0.6333  0.9016 -0.3237
14040TIP3    H263536   6.036   5.519  10.741  0.0553  1.1430 -1.8841
14041TIP3   OH263537   4.263   3.183  14.946 -0.4564 -0.4576 -0.6881
14041TIP3    H163538   4.270   3.219  14.858 -1.0399  2.0258  0.1967
14041TIP3    H263539   4.351   3.194  14.983 -0.4610 -0.5694 -0.6455
14042TIP3   OH263540   4.502   2.782  12.578  0.7742 -0.3219  0.2343
14042TIP3    H163541   4.575   2.725  12.554  0.0872 -1.2472  0.2862
14042TIP3    H263542   4.502   2.781  12.674 -0.4873 -1.9373  0.2680
14043TIP3   OH263543   1.591   4.460   4.547 -0.2018  0.5846  0.1525
14043TIP3    H163544   1.681   4.489   4.562 -0.7434  1.4630  2.0448
14043TIP3    H263545   1.550   4.531   4.497 -0.4632  1.3483  1.3995
14044TIP3   OH263546   1.133   6.389   0.476 -0.6017  0.3391 -0.1616
14044TIP3    H163547   1.104   6.386   0.567  0.4769  0.2633  0.1949
14044TIP3    H263548   1.053   6.376   0.425 -1.2095  0.3021  0.7682
14045TIP3   OH263549   4.892   4.711  14.701 -0.2584  0.1422 -0.0188
14045TIP3    H163550   4.987   4.717  14.691 -0.1864 -0.1094  0.4813
14045TIP3    H263551   4.879   4.680  14.791 -0.7870 -0.4693 -0.2943
14046TIP3   OH263552   1.035   0.891   2.973  0.0393  0.2906  0.1936
14046TIP3    H163553   1.063   0.876   3.063  1.1113  0.7027 -0.0571
14046TIP3    H263554   1.040   0.986   2.961  0.9430  0.1507 -0.6181
14047TIP3   OH263555   1.897   2.909  16.234  0.1819 -0.0500 -0.0901
14047TIP3    H163556   1.904   2.818  16.262 -0.6240 -0.2736 -0.6159
14047TIP3    H263557   1.966   2.919  16.167 -0.5432 -0.6195 -0.9353
14048TIP3   OH263558   6.720   6.184  10.686 -0.1284  0.4203 -0.3520
14048TIP3    H163559   6.790   6.161  10.746 -0.4559  0.2438 -0.0303
14048TIP3    H263560   6.726   6.279  10.677  0.4954  0.3408 -0.7598
14049TIP3   OH263561   4.197   2.111   2.750  0.4008  0.1904  0.6677
14049TIP3    H163562   4.236   2.132   2.665 -0.5922  1.1913  0.4256
14049TIP3    H263563   4.229   2.180   2.808  0.0366  0.2723  0.7744
14050TIP3   OH263564   4.199   4.085   2.488  0.7310 -0.1835 -0.3256
14050TIP3    H163565   4.291   4.068   2.468  1.4575  1.6005  1.2349
14050TIP3    H263566   4.194   4.086   2.583  0.2587  4.6655 -0.1382
14051TIP3   OH263567   6.033   6.375  13.020  0.1631 -0.3150 -0.8601
14051TIP3    H163568   6.060   6.444  13.081  0.3916 -0.1292 -1.1683
14051TIP3    H263569   5.945   6.351  13.049  0.3843 -0.4404 -0.2736
14052TIP3   OH263570   0.799   6.183  13.410 -0.1044  0.2289  0.5844
14052TIP3    H163571   0.878   6.137  13.381 -0.3685  0.1913 -0.0948
14052TIP3    H263572   0.784   6.151  13.499  0.1834 -0.3854  0.4192
14053TIP3   OH263573   5.499   2.984   3.501 -0.2423  0.0899  0.2065
14053TIP3    H163574   5.477   2.897   3.535  0.6862  0.4227  1.7819
14053TIP3    H263575   5.580   3.007   3.546  0.1511  1.2942 -1.0662
14054TIP3   OH263576   2.227   0.198  14.063  0.0731  0.1382  0.6356
14054TIP3    H163577   2.254   0.106  14.065  0.3593  0.1885 -0.4676
14054TIP3    H263578   2.301   0.244  14.023 -0.6976  0.6169 -0.2812
14055TIP3   OH263579   3.332   5.233   4.816 -0.0921 -0.4425  0.1376
14055TIP3    H163580   3.397   5.168   4.787 -1.1787 -0.5582 -2.2459
14055TIP3    H263581   3.259   5.180   4.849  1.0320 -0.3144  3.1982
14056TIP3   OH263582   4.193   1.463  17.394  0.1449 -0.7507  0.3160
14056TIP3    H163583   4.205   1.550  17.432  0.7828 -0.8462  0.3449
14056TIP3    H263584   4.175   1.481  17.301  1.7209 -0.6168 -0.0037
14057TIP3   OH263585   1.550   3.985   4.025 -0.3328 -0.0892 -0.3569
14057TIP3    H163586   1.566   3.894   3.998 -0.9559  0.1181 -1.4852
14057TIP3    H263587   1.601   3.996   4.105  0.0902 -1.3075 -0.4459
14058TIP3   OH263588   6.453   6.472   5.450 -0.0697  0.0869  0.1029
14058TIP3    H163589   6.536   6.514   5.471 -0.4112  1.1545 -0.5846
14058TIP3    H263590   6.399   6.543   5.413 -0.4998 -1.0407 -1.5404
14059TIP3   OH263591   1.970   0.612  12.224  0.3097 -0.6178  0.1564
14059TIP3    H163592   1.875   0.602  12.226 -0.0565  2.2605  1.3559
14059TIP3    H263593   2.001   0.535  12.176 -2.5410 -1.9799  0.3063
14060TIP3   OH263594   2.765   4.445  13.148  0.3881 -0.4833  0.2669
14060TIP3    H163595   2.735   4.496  13.073  0.8079 -1.7559 -0.8032
14060TIP3    H263596   2.849   4.408  13.121  1.6408  0.7617  2.1783
14061TIP3   OH263597   1.785   4.463  13.069  0.0779 -0.0677 -0.2306
14061TIP3    H163598   1.795   4.508  13.153  0.1128  0.6804 -0.6265
14061TIP3    H263599   1.861   4.491  13.018  2.6759 -3.9729  0.9518
14062TIP3   OH263600   4.864   1.600   2.872  0.2987  0.5019  0.5164
14062TIP3    H163601   4.878   1.529   2.809 -1.8607 -0.2562  0.7834
14062TIP3    H263602   4.950   1.617   2.909  1.0013 -1.5465 -0.0428
14063TIP3   OH263603   4.088   4.979  13.241 -0.4108 -0.0389 -0.1803
14063TIP3    H163604   4.027   5.044  13.277  0.5372  0.5662  0.3910
14063TIP3    H263605   4.131   4.942  13.318  2.5854  2.1774 -0.5880
14064TIP3   OH263606   5.485   4.495  13.688 -0.0852  0.4868 -0.2145
14064TIP3    H163607   5.429   4.419  13.669  0.1239  0.5419 -1.1126
14064TIP3    H263608   5.539   4.504  13.610  1.9478 -0.2145  1.0273
14065TIP3   OH263609   1.256   4.294  16.989 -0.0799 -0.2636  0.3617
14065TIP3    H163610   1.345   4.286  16.954  0.2996  1.9171  0.6644
14065TIP3    H263611   1.263   4.260  17.078  0.2267 -0.9422  0.0865
14066TIP3   OH263612   6.389   3.471   2.167 -0.5902  0.2414  0.2311
14066TIP3    H163613   6.442   3.402   2.205  0.2507  0.4329 -0.5430
14066TIP3    H263614   6.404   3.547   2.224  0.1690  0.3584 -0.1117
14067TIP3   OH263615   4.746   1.298  14.730 -0.6372 -0.5191  0.8898
14067TIP3    H163616   4.672   1.247  14.763 -2.1914 -0.2154 -1.8335
14067TIP3    H263617   4.779   1.247  14.656 -0.4394  1.0227 -0.1408
14068TIP3   OH263618   2.149   4.018  13.788  0.3452  0.6116  0.9083
14068TIP3    H163619   2.110   4.091  13.836  0.6310  1.3393  0.0613
14068TIP3    H263620   2.075   3.970  13.751  0.1850  1.3269  0.2610
14069TIP3   OH263621   5.439   4.278  16.224 -0.0012 -0.0983 -0.0939
14069TIP3    H163622   5.447   4.308  16.133  0.6409 -2.1742 -0.7756
14069TIP3    H263623   5.516   4.312  16.268  0.1278  0.2019 -0.5449
14070TIP3   OH263624   4.482   0.962   2.258 -0.1537 -0.1416  0.3312
14070TIP3    H163625   4.498   1.026   2.327  0.8321  0.4902 -0.4624
14070TIP3    H263626   4.412   0.906   2.294  1.9439 -1.3542  2.8641
14071TIP3   OH263627   3.027   3.768  14.540  0.3051  0.2310 -0.0179
14071TIP3    H163628   2.968   3.819  14.596  0.3996  0.9818 -0.5813
14071TIP3    H263629   3.031   3.682  14.582  1.8489  1.2806  2.2275
14072TIP3   OH263630   2.402   1.414  13.755 -0.0925 -0.6182 -0.3584
14072TIP3    H163631   2.364   1.326  13.760 -1.8506  0.0995 -0.0573
14072TIP3    H263632   2.346   1.460  13.693  0.9323  0.2336 -0.6690
14073TIP3   OH263633   1.326   4.687  12.074 -0.4270  0.6790  0.0718
14073TIP3    H163634   1.231   4.695  12.062 -0.3144  1.0871 -0.6150
14073TIP3    H263635   1.349   4.604  12.033 -0.0781  1.9591 -2.5013
14074TIP3   OH263636   0.358   3.746  12.354 -0.1997 -0.2795  0.1325
14074TIP3    H163637   0.376   3.764  12.261  1.4932  2.6672  0.9040
14074TIP3    H263638   0.418   3.675  12.376  2.3733  1.6165 -0.2167
14075TIP3   OH263639   0.983   3.013  11.811 -0.0977  0.0084 -0.2385
14075TIP3    H163640   1.006   3.103  11.791  0.8549 -0.2921 -0.5730
14075TIP3    H263641   0.933   2.984  11.734  1.9442 -0.5636 -1.4234
14076TIP3   OH263642   4.536   0.612  15.543 -0.0889  0.2521  0.1252
14076TIP3    H163643   4.501   0.592  15.630  1.0786 -1.3894  0.2560
14076TIP3    H263644   4.464   0.657  15.499 -1.6820 -1.2500  1.0417
14077TIP3   OH263645   3.926   6.478  12.701 -0.3769 -0.0544 -0.0596
14077TIP3    H163646   3.851   6.471  12.642  0.0741  0.6676 -0.7511
14077TIP3    H263647   3.925   6.569  12.730 -0.3562 -0.3025  0.7313
14078TIP3   OH263648   3.477   6.191   5.605  0.6744 -0.0979 -0.4109
14078TIP3    H163649   3.467   6.286   5.610  2.5161  0.1017 -0.0137
14078TIP3    H263650   3.523   6.167   5.686  1.5152 -1.1247 -1.1622
14079TIP3   OH263651   5.571   4.679   5.766 -0.0649  0.6025 -0.1899
14079TIP3    H163652   5.632   4.626   5.714  0.9670  1.2189  0.3516
14079TIP3    H263653   5.486   4.635   5.756  0.4993 -0.3822 -0.8230
14080TIP3   OH263654   3.773   6.419  13.859 -0.1982  0.0573  0.8836
14080TIP3    H163655   3.834   6.489  13.881 -2.0568  1.5615  1.6208
14080TIP3    H263656   3.780   6.409  13.764  0.9592  0.3802  0.9232
14081TIP3   OH263657   3.079   1.405   3.560  0.3714 -0.2704  0.3137
14081TIP3    H163658   2.998   1.356   3.574  0.9992 -1.2257  0.7239
14081TIP3    H263659   3.141   1.366   3.621  1.3918 -0.1859 -0.6407
14082TIP3   OH263660   5.525   5.959  13.185 -0.0998 -0.6741 -0.1352
14082TIP3    H163661   5.530   5.868  13.154  0.8092 -1.0329  1.0009
14082TIP3    H263662   5.445   5.993  13.145  0.4548 -1.4234 -2.0004
14083TIP3   OH263663   1.320   1.555  13.996  0.3110  0.2321 -0.8209
14083TIP3    H163664   1.263   1.575  13.922  1.1672 -1.8754 -2.1270
14083TIP3    H263665   1.371   1.479  13.968  0.9547 -0.4039  1.7938
14084TIP3   OH263666   1.747   1.031  11.451 -0.2691  0.0366 -1.1573
14084TIP3    H163667   1.794   0.958  11.492 -0.1644  0.3676 -0.6820
14084TIP3    H263668   1.758   1.016  11.357  2.0795  0.9109 -1.0985
14085TIP3   OH263669   1.896   4.240  12.677  0.0180  0.2749 -0.6317
14085TIP3    H163670   1.869   4.233  12.585 -2.9322 -0.0512  0.1468
14085TIP3    H263671   1.929   4.153  12.698 -0.0745  0.1041 -1.1686
14086TIP3   OH263672   5.754   3.223  11.598 -0.1152  0.5107 -0.2879
14086TIP3    H163673   5.760   3.284  11.672 -0.8766 -0.0306  0.2462
14086TIP3    H263674   5.679   3.255  11.548 -2.0234 -1.2453  1.2582
14087TIP3   OH263675   0.322   4.275   5.667 -0.3004  0.0608 -0.2534
14087TIP3    H163676   0.288   4.363   5.685 -0.8955 -0.4708  1.4466
14087TIP3    H263677   0.392   4.263   5.731  1.4513  0.1649 -2.0407
14088TIP3   OH263678   5.084   3.586  15.913  0.3819 -0.1198  0.0830
14088TIP3    H163679   5.162   3.636  15.889  0.9110 -1.1803 -0.4431
14088TIP3    H263680   5.101   3.556  16.002  0.5015 -0.2123  0.0295
14089TIP3   OH263681   1.435   2.190   5.306  0.5978 -0.1259  0.4252
14089TIP3    H163682   1.492   2.178   5.382  0.2625 -0.3613  0.6420
14089TIP3    H263683   1.415   2.101   5.276 -0.8153 -0.1113  1.2275
14090TIP3   OH263684   2.856   3.040   0.372 -0.2667  0.3214 -0.0130
14090TIP3    H163685   2.789   3.047   0.304 -1.5775  1.9358  1.3474
14090TIP3    H263686   2.860   3.128   0.411  0.8340 -0.3980  1.6084
14091TIP3   OH263687   5.462   0.219   5.234 -0.0068  0.3037 -0.0282
14091TIP3    H163688   5.504   0.189   5.153  0.1657 -2.7543  1.0632
14091TIP3    H263689   5.451   0.313   5.222  0.5829  0.0726 -3.3330
14092TIP3   OH263690   3.285   4.096  15.341  0.4490  0.0613 -0.3863
14092TIP3    H163691   3.276   4.144  15.259  1.4359 -1.5707 -1.5080
14092TIP3    H263692   3.374   4.060  15.338  0.3175 -0.4618  1.1574
14093TIP3   OH263693   3.203   3.562  15.216  0.0142 -0.4185  0.0630
14093TIP3    H163694   3.219   3.657  15.216  0.5756 -0.4935 -0.8449
14093TIP3    H263695   3.112   3.553  15.189 -0.2591 -0.1107  0.8839
14094TIP3   OH263696   5.293   5.491   4.867  0.5929  0.4177  0.2056
14094TIP3    H163697   5.363   5.555   4.853  0.9260  0.0601  0.2351
14094TIP3    H263698   5.212   5.540   4.850  0.7073  1.4486  2.3025
14095TIP3   OH263699   3.163   3.851   1.666  0.0171  0.3164  0.2131
14095TIP3    H163700   3.222   3.816   1.599 -1.4646 -1.7391 -0.1180
14095TIP3    H263701   3.214   3.919   1.710  1.7032  0.4034 -1.7290
14096TIP3   OH263702   5.840   3.064   4.745 -0.1830  0.7333 -0.2530
14096TIP3    H163703   5.821   2.988   4.799  0.5169 -0.0222 -1.0337
14096TIP3    H263704   5.923   3.097   4.778 -0.0596  0.6375 -0.4633
14097TIP3   OH263705   6.483   0.927   3.911  0.2599 -1.0006  0.0130
14097TIP3    H163706   6.548   0.862   3.937  0.1565 -1.0371  0.1875
14097TIP3    H263707   6.468   0.911   3.818  1.8574  0.2031 -0.4838
14098TIP3   OH263708   6.255   1.748  12.498  0.5924 -0.3223 -0.3130
14098TIP3    H163709   6.295   1.707  12.421 -1.0784 -0.9452 -0.8815
14098TIP3    H263710   6.258   1.680  12.566 -1.1384 -1.0529 -0.9167
14099TIP3   OH263711   0.068   6.037  16.274 -0.3277 -0.2040 -0.2878
14099TIP3    H163712   0.146   6.043  16.329 -0.5047  2.0113 -0.2062
14099TIP3    H263713   0.011   5.974  16.319  0.4279 -0.0735  0.8828
14100TIP3   OH263714   3.349   0.954  16.801  0.0533 -0.0236  0.0016
14100TIP3    H163715   3.285   0.930  16.734 -0.1648 -0.8633  0.5018
14100TIP3    H263716   3.308   0.930  16.884  0.9704 -0.4762  0.3394
14101TIP3   OH263717   2.808   5.665  16.228  0.5614 -0.3151  0.9869
14101TIP3    H163718   2.782   5.725  16.298 -1.8282  1.4327 -1.2108
14101TIP3    H263719   2.739   5.598  16.227  1.6458 -1.4855  1.5139
14102TIP3   OH263720   1.088   2.539   5.210  0.3954 -0.1515  0.3123
14102TIP3    H163721   0.999   2.515   5.185 -0.0667  1.0173  0.7358
14102TIP3    H263722   1.103   2.496   5.294 -0.0943  0.3291  0.6499
14103TIP3   OH263723   2.204   0.396  15.253 -0.1910  0.0500  0.2667
14103TIP3    H163724   2.119   0.360  15.228 -0.9389  0.8455  1.5138
14103TIP3    H263725   2.223   0.463  15.188  0.6495 -1.7145 -1.3867
14104TIP3   OH263726   2.302   4.430   1.871 -0.2780 -0.3017  0.2594
14104TIP3    H163727   2.295   4.417   1.966 -1.2019  0.3019  0.2908
14104TIP3    H263728   2.372   4.371   1.844 -0.9172 -1.5052  1.1183
14105TIP3   OH263729   1.065   3.591   5.628 -0.0355 -0.0045  0.2827
14105TIP3    H163730   0.999   3.596   5.698 -0.0133  0.4834  0.2710
14105TIP3    H263731   1.021   3.544   5.558 -0.2394 -0.0306  0.4253
14106TIP3   OH263732   0.154   1.433   0.277  0.1541  0.1519 -0.3221
14106TIP3    H163733   0.189   1.513   0.314  1.5409 -0.4675 -0.2310
14106TIP3    H263734   0.071   1.419   0.323 -1.1080  2.5112 -1.6891
14107TIP3   OH263735   2.673   6.408  11.894 -0.0173 -0.1850  0.1282
14107TIP3    H163736   2.589   6.413  11.940 -0.3729 -0.9688 -0.4137
14107TIP3    H263737   2.735   6.452  11.952 -0.3675 -1.4855  1.5724
14108TIP3   OH263738   5.461   3.704  12.681 -0.4859 -0.3184  0.1935
14108TIP3    H163739   5.393   3.667  12.736 -0.0252 -2.4517 -0.5484
14108TIP3    H263740   5.497   3.629  12.633  1.0870  1.0045 -0.8513
14109TIP3   OH263741   3.932   3.519   3.910  0.5234 -0.1397 -0.0369
14109TIP3    H163742   3.915   3.425   3.920 -1.1121 -0.0217 -1.2193
14109TIP3    H263743   4.022   3.524   3.877  0.7235 -1.2730  0.2979
14110TIP3   OH263744   1.861   1.466   0.745 -0.4073 -0.4565  0.4394
14110TIP3    H163745   1.845   1.379   0.709  1.1933 -0.6729  0.1772
14110TIP3    H263746   1.879   1.452   0.838 -0.3917 -0.3805  0.4488
14111TIP3   OH263747   3.856   2.760  14.592 -0.4701  0.5022 -0.0956
14111TIP3    H163748   3.915   2.829  14.562  0.8631  0.6811  2.6093
14111TIP3    H263749   3.777   2.806  14.621 -0.1248  0.7548  0.4460
14112TIP3   OH263750   3.115   4.782  11.646 -0.4876 -0.3748  0.3857
14112TIP3    H163751   3.137   4.806  11.556  1.2938  1.6602  1.2570
14112TIP3    H263752   3.086   4.691  11.641 -1.6206  0.0487 -2.3734
14113TIP3   OH263753   2.694   4.709  17.053 -0.2760 -0.0243  0.1139
14113TIP3    H163754   2.719   4.800  17.067 -0.2573 -0.0963  0.5657
14113TIP3    H263755   2.609   4.701  17.095 -1.3881  0.3772 -1.9413
14114TIP3   OH263756   4.774   4.692  15.153  0.2582  0.6529 -0.7668
14114TIP3    H163757   4.728   4.754  15.096  0.3274  1.1891 -0.2493
14114TIP3    H263758   4.796   4.743  15.231 -0.0673 -0.1321 -0.1465
14115TIP3   OH263759   2.240   6.605  10.513 -0.3093  0.1572  0.0948
14115TIP3    H163760   2.212   6.661  10.585  2.5961  1.0657  0.6574
14115TIP3    H263761   2.265   6.523  10.555 -0.6275 -0.0798 -0.1750
14116TIP3   OH263762   1.227   1.170   6.675 -0.2758 -0.0544 -0.4560
14116TIP3    H163763   1.170   1.121   6.735  1.0037 -4.0318 -2.1091
14116TIP3    H263764   1.190   1.152   6.588 -0.2767  2.9367 -1.1696
14117TIP3   OH263765   1.988   0.575   3.480 -0.0709 -0.5358  0.2436
14117TIP3    H163766   2.039   0.564   3.560 -0.0094  0.0244  0.2900
14117TIP3    H263767   2.003   0.667   3.455 -0.6589 -0.5049 -0.0137
14118TIP3   OH263768   6.431   1.331   3.773 -0.1042  0.2265 -0.3657
14118TIP3    H163769   6.523   1.335   3.747 -0.5981  1.5570 -2.1165
14118TIP3    H263770   6.392   1.410   3.736 -1.5853  0.7094  1.9919
14119TIP3   OH263771   2.009   3.352   0.694 -0.5882  0.0014 -0.3603
14119TIP3    H163772   2.046   3.294   0.761  1.7109 -1.8558 -3.0269
14119TIP3    H263773   2.035   3.440   0.722  0.0744 -0.6656  1.2903
14120TIP3   OH263774   1.853   2.805   1.702  0.2245 -0.5016 -0.2025
14120TIP3    H163775   1.935   2.761   1.724  1.3593  1.0892 -1.0174
14120TIP3    H263776   1.845   2.876   1.766  0.2438  0.2174 -0.9729
14121TIP3   OH263777   2.613   2.349  14.668 -0.0979  0.7114 -0.1836
14121TIP3    H163778   2.611   2.437  14.705  3.3593  1.3192 -1.0634
14121TIP3    H263779   2.637   2.293  14.742 -0.4742  0.7622 -0.0180
14122TIP3   OH263780   2.915   1.161   3.847  0.1752 -0.6331 -0.2218
14122TIP3    H163781   2.835   1.208   3.821  1.7586  1.7837 -1.0631
14122TIP3    H263782   2.945   1.119   3.766 -0.4945 -2.0466  0.2261
14123TIP3   OH263783   6.165   4.559   0.748  0.5664  0.5184 -0.2908
14123TIP3    H163784   6.171   4.653   0.730  0.8697  0.3307 -1.2117
14123TIP3    H263785   6.237   4.520   0.698 -0.4168 -0.3604 -1.0607
14124TIP3   OH263786   5.469   4.909  12.943 -0.2348  0.3513 -0.1780
14124TIP3    H163787   5.490   4.977  13.007 -0.0547 -0.1573  0.3056
14124TIP3    H263788   5.550   4.859  12.933  0.1955  1.2830 -1.8929
14125TIP3   OH263789   4.871   2.884  16.046 -0.7019  0.4247  0.4115
14125TIP3    H163790   4.817   2.921  15.975  0.8699  1.2475 -0.4365
14125TIP3    H263791   4.920   2.814  16.004 -0.2035  0.5126  0.8403
14126TIP3   OH263792   0.570   0.207  10.666 -0.0206 -0.0111  0.4868
14126TIP3    H163793   0.579   0.269  10.738  1.4255 -0.6818  0.9324
14126TIP3    H263794   0.512   0.250  10.604 -1.4825  0.4957  2.1221
14127TIP3   OH263795   4.957   4.591  15.847 -0.0485 -0.5261  0.3118
14127TIP3    H163796   4.997   4.640  15.919 -1.0320  0.0423  0.4930
14127TIP3    H263797   4.863   4.611  15.854  0.0089  0.9529 -2.1528
14128TIP3   OH263798   6.005   5.486  12.327 -0.7447 -0.2953 -0.6745
14128TIP3    H163799   5.994   5.565  12.274 -1.7500 -1.2619 -1.9703
14128TIP3    H263800   6.098   5.468  12.324 -0.4206  1.0786  0.0421
14129TIP3   OH263801   6.093   6.389   2.808  0.5019 -0.5769 -0.4641
14129TIP3    H163802   6.001   6.382   2.833  0.8467 -3.0373  0.4618
14129TIP3    H263803   6.139   6.408   2.890  0.8045  1.5374 -1.0594
14130TIP3   OH263804   2.805   5.012  12.026  0.3796 -0.3645 -0.2659
14130TIP3    H163805   2.820   5.106  12.017  0.1112 -0.1725  1.0888
14130TIP3    H263806   2.892   4.973  12.014  0.0448 -0.3245 -4.3239
14131TIP3   OH263807   2.569   5.080   4.730 -0.0340  0.6678  0.2024
14131TIP3    H163808   2.474   5.068   4.724  0.0846 -0.3420  0.1768
14131TIP3    H263809   2.581   5.174   4.732 -0.9476  0.8709 -1.5787
14132TIP3   OH263810   4.985   3.906  15.801  0.0206  0.3114 -0.0792
14132TIP3    H163811   4.896   3.875  15.787 -0.4738  0.7670  1.7873
14132TIP3    H263812   5.014   3.861  15.881  1.5115  0.1052 -0.6939
14133TIP3   OH263813   2.098   2.168  11.677 -0.0362 -0.0093 -0.3899
14133TIP3    H163814   2.109   2.093  11.736  2.2436  0.3055 -0.3211
14133TIP3    H263815   2.111   2.244  11.732  1.5908  0.3056 -1.1500
14134TIP3   OH263816   2.186   2.463   2.136 -0.4247 -0.4471  0.5672
14134TIP3    H163817   2.153   2.542   2.091  1.1048 -0.0475  0.0828
14134TIP3    H263818   2.107   2.418   2.166 -1.3401  1.4436  1.1615
14135TIP3   OH263819   1.026   2.234   1.731 -0.1287 -0.0875  0.5971
14135TIP3    H163820   1.010   2.167   1.665  0.7729  1.2906 -1.1094
14135TIP3    H263821   0.966   2.305   1.709 -0.9220 -0.1941  2.2435
14136TIP3   OH263822   2.886   6.612  12.403 -0.2790 -0.2744  0.5164
14136TIP3    H163823   2.848   6.634  12.488  0.3477 -0.9293  0.9833
14136TIP3    H263824   2.889   6.694  12.355 -0.4456  0.1426  1.2116
14137TIP3   OH263825   3.551   4.655   4.019  0.3165 -0.0137  0.1443
14137TIP3    H163826   3.568   4.706   3.940  0.0285  1.9791  1.3085
14137TIP3    H263827   3.638   4.641   4.057  0.2699  1.3064  0.7958
14138TIP3   OH263828   0.407   4.400   2.624  0.3381 -0.1312 -0.5266
14138TIP3    H163829   0.383   4.329   2.565 -2.0173 -3.2332  3.5719
14138TIP3    H263830   0.328   4.453   2.632 -0.1866 -1.0981  1.3386
14139TIP3   OH263831   2.291   0.794  10.764  0.2586  0.4767 -0.4510
14139TIP3    H163832   2.357   0.857  10.794  0.3926  0.5056 -0.7990
14139TIP3    H263833   2.304   0.790  10.669 -0.7107  1.0056 -0.6146
14140TIP3   OH263834   4.395   5.052   5.032 -0.2917  0.1125 -0.1014
14140TIP3    H163835   4.341   4.974   5.047  0.3113 -0.6252 -1.6163
14140TIP3    H263836   4.445   5.062   5.113 -2.5652  0.7551  1.3128
14141TIP3   OH263837   4.547   4.716   4.085 -0.1864 -0.4505 -0.3946
14141TIP3    H163838   4.528   4.622   4.077 -0.5849 -0.3460 -0.7234
14141TIP3    H263839   4.485   4.748   4.149  0.6131 -0.5930  0.4731
14142TIP3   OH263840   3.462   6.020  13.839  0.0305  0.2392  0.4763
14142TIP3    H163841   3.477   6.108  13.805 -0.1759  0.1036  0.0375
14142TIP3    H263842   3.398   6.032  13.910 -0.6142  0.3359 -0.1198
14143TIP3   OH263843   1.968   5.468   0.800  0.3052  0.0368 -0.0666
14143TIP3    H163844   2.013   5.389   0.831  1.1638  1.3521  2.2639
14143TIP3    H263845   2.024   5.502   0.731 -0.4877 -1.7679 -1.6806
14144TIP3   OH263846   0.211   0.279   4.448 -0.5635  0.0729 -0.2734
14144TIP3    H163847   0.290   0.320   4.413 -0.5853  0.7070  0.3997
14144TIP3    H263848   0.242   0.217   4.513 -0.6508  2.0159  1.7640
14145TIP3   OH263849   5.171   1.307   2.016 -0.3330 -0.3682  0.5107
14145TIP3    H163850   5.256   1.317   1.973 -0.0263  2.1259  1.5351
14145TIP3    H263851   5.187   1.329   2.107 -2.0840  0.2236  0.7148
14146TIP3   OH263852   6.038   0.078   4.302 -0.3914  0.5538 -0.2952
14146TIP3    H163853   5.951   0.111   4.279 -0.4161  0.1645 -0.7931
14146TIP3    H263854   6.097   0.118   4.239  0.3203  3.3531  1.9527
14147TIP3   OH263855   1.102   1.619   4.200 -0.0082 -0.0615  0.3123
14147TIP3    H163856   1.067   1.664   4.277 -0.3830 -1.1181  0.7788
14147TIP3    H263857   1.191   1.596   4.225 -0.3042 -0.8793  0.6540
14148TIP3   OH263858   0.278   0.239  11.705  0.3434 -0.8660  0.1863
14148TIP3    H163859   0.243   0.292  11.633 -1.8926 -1.2056  0.9432
14148TIP3    H263860   0.348   0.188  11.666  1.0303  0.9542 -1.0885
14149TIP3   OH263861   0.817   3.365  15.473 -0.0291  0.6247  0.3155
14149TIP3    H163862   0.829   3.458  15.493  2.1107  0.3000  0.7999
14149TIP3    H263863   0.859   3.319  15.546 -1.4731 -0.7666  0.3335
14150TIP3   OH263864   0.940   6.481   4.072 -0.1162 -0.6479 -0.6429
14150TIP3    H163865   0.935   6.389   4.100  0.1259 -0.8625 -1.2607
14150TIP3    H263866   0.850   6.504   4.051 -0.4261 -0.2281  1.0346
14151TIP3   OH263867   3.174   4.701   5.219 -0.1575  0.1131  0.0012
14151TIP3    H163868   3.249   4.645   5.198 -1.3201 -1.7256  0.5816
14151TIP3    H263869   3.203   4.753   5.294  0.7579 -0.0472 -0.2251
14152TIP3   OH263870   1.037   2.256  12.353 -0.2209  0.3661  0.7871
14152TIP3    H163871   1.036   2.340  12.307 -2.4079  0.4998  0.9546
14152TIP3    H263872   0.952   2.217  12.333  0.1800 -1.1631  1.8804
14153TIP3   OH263873   2.698   2.571  13.744 -0.0388  0.7788 -0.1934
14153TIP3    H163874   2.640   2.549  13.671  0.1437  0.0107 -0.1182
14153TIP3    H263875   2.649   2.544  13.822  0.7859 -0.7677 -0.1798
14154TIP3   OH263876   1.664   4.801  12.017 -0.2314  0.0927 -0.2698
14154TIP3    H163877   1.656   4.742  11.942  0.2966 -2.2615  1.4349
14154TIP3    H263878   1.756   4.825  12.020  0.2429 -1.6646  0.8688
14155TIP3   OH263879   1.771   0.230   2.535  0.6386 -0.0104 -0.6444
14155TIP3    H163880   1.763   0.185   2.451 -1.0410  1.4936 -1.3519
14155TIP3    H263881   1.724   0.173   2.597  0.1828 -0.1660 -1.1248
14156TIP3   OH263882   1.894   0.715  13.026  0.6036  0.6067 -0.2646
14156TIP3    H163883   1.856   0.697  13.112 -0.7154  1.8374 -0.5506
14156TIP3    H263884   1.928   0.631  12.996  0.5485  0.0450  1.1930
14157TIP3   OH263885   2.524   0.835   5.225 -0.1935 -0.2653  0.1875
14157TIP3    H163886   2.490   0.895   5.158 -1.0197  1.1474  1.7767
14157TIP3    H263887   2.614   0.865   5.241  0.0130 -0.6200 -0.2922
14158TIP3   OH263888   6.472   1.685   0.263  0.1240 -0.2199  0.3472
14158TIP3    H163889   6.496   1.757   0.322  1.0123  0.2982 -0.6048
14158TIP3    H263890   6.556   1.647   0.237 -0.0918  0.8612 -2.1623
14159TIP3   OH263891   2.763   1.226  16.178  0.0358  0.3700 -0.0900
14159TIP3    H163892   2.800   1.144  16.212 -0.9801 -1.1437 -2.3610
14159TIP3    H263893   2.683   1.199  16.134  0.2390  2.4511 -1.8694
14160TIP3   OH263894   2.319   2.291   5.654  0.7030  0.0882  0.2898
14160TIP3    H163895   2.372   2.341   5.717  3.4733 -1.6273 -0.4663
14160TIP3    H263896   2.323   2.342   5.573  0.3343  0.4484  0.4946
14161TIP3   OH263897   6.044   4.206  13.243  0.0301  0.0910  0.6506
14161TIP3    H163898   6.087   4.278  13.288 -0.6815  0.2155  1.1598
14161TIP3    H263899   5.986   4.168  13.310  1.2045 -1.6557  0.7273
14162TIP3   OH263900   4.739   2.485  16.195  0.4123 -0.0717  0.0506
14162TIP3    H163901   4.735   2.400  16.240 -2.7399 -0.6269 -1.0118
14162TIP3    H263902   4.721   2.549  16.264  0.9005 -0.4153  0.5091
14163TIP3   OH263903   5.172   4.301   3.066 -0.0078 -0.4497 -0.6919
14163TIP3    H163904   5.207   4.386   3.090  0.6992 -1.2566  1.4147
14163TIP3    H263905   5.097   4.320   3.010  2.0675  1.4120 -3.0726
14164TIP3   OH263906   2.402   0.395   1.925 -0.4189  0.2814 -0.7230
14164TIP3    H163907   2.484   0.370   1.968 -0.9921 -0.1253  0.1662
14164TIP3    H263908   2.428   0.459   1.860  0.7700 -0.7563 -1.3187
14165TIP3   OH263909   3.390   2.427   3.801  0.2985 -0.2541  0.4611
14165TIP3    H163910   3.315   2.487   3.795  0.6556  0.2308  0.7174
14165TIP3    H263911   3.410   2.404   3.710 -0.6026 -0.9538  0.4285
14166TIP3   OH263912   6.488   0.443   3.882  0.0823  0.0350 -0.1071
14166TIP3    H163913   6.488   0.529   3.923 -0.8687 -0.2305  0.4848
14166TIP3    H263914   6.532   0.456   3.798  0.7542  0.8986  0.3599
14167TIP3   OH263915   1.946   1.603  14.930 -0.4710  0.3536  0.0950
14167TIP3    H163916   1.902   1.519  14.916  0.5237  0.1682 -2.4424
14167TIP3    H263917   2.011   1.585  14.997 -0.5047 -0.8428 -0.1672
14168TIP3   OH263918   1.768   1.972   2.449 -0.0705 -0.0778 -0.4910
14168TIP3    H163919   1.702   1.953   2.381 -0.0680 -1.2883 -0.1876
14168TIP3    H263920   1.851   1.974   2.402 -0.0859 -0.7645 -0.5540
14169TIP3   OH263921   2.390   4.248   0.098 -0.1310  0.9490  0.2122
14169TIP3    H163922   2.449   4.253   0.173 -0.4801  1.4207  0.4640
14169TIP3    H263923   2.303   4.237   0.137 -0.8402  4.7658  0.1105
14170TIP3   OH263924   0.734   0.715   6.208  0.2461  0.3215  0.0697
14170TIP3    H163925   0.804   0.651   6.195 -1.2968 -1.3435 -0.3526
14170TIP3    H263926   0.735   0.733   6.302  1.7577  1.0135 -0.0333
14171TIP3   OH263927   0.886   5.186  14.313 -0.0361  0.1064 -0.6073
14171TIP3    H163928   0.801   5.148  14.335 -0.1991 -0.4797 -2.0995
14171TIP3    H263929   0.877   5.279  14.334 -1.2270  0.1449 -1.1975
14172TIP3   OH263930   0.306   1.964  15.001 -0.1193 -0.2604  0.0475
14172TIP3    H163931   0.346   2.004  14.924 -1.5450  1.7783  0.2849
14172TIP3    H263932   0.238   1.906  14.966  1.2548 -1.7484 -0.2684
14173TIP3   OH263933   4.694   3.098   6.484 -0.3404 -0.1390  0.0634
14173TIP3    H163934   4.618   3.124   6.431  1.0745 -0.1428 -2.1128
14173TIP3    H263935   4.719   3.013   6.449 -1.0623 -1.5704  2.7841
14174TIP3   OH263936   5.968   4.682  11.455 -0.0318  0.2825  0.1574
14174TIP3    H163937   5.919   4.722  11.527  1.9672 -0.8744  2.2927
14174TIP3    H263938   5.908   4.618  11.417 -1.7390  2.1474 -0.4588
14175TIP3   OH263939   1.434   3.760   1.129 -0.0663  0.0105  0.2360
14175TIP3    H163940   1.366   3.802   1.183 -1.0243  0.1710 -1.0433
14175TIP3    H263941   1.485   3.833   1.094  0.0391 -0.0471  0.2700
14176TIP3   OH263942   0.616   2.473  11.784 -0.2461  0.5162 -0.2341
14176TIP3    H163943   0.697   2.522  11.800 -0.4444  0.6569  0.3472
14176TIP3    H263944   0.556   2.502  11.853 -0.7429  0.2980 -0.5705
14177TIP3   OH263945   6.391   5.275  11.985  0.0381  0.0951 -0.0236
14177TIP3    H163946   6.471   5.304  12.028  0.7036 -2.1845  0.4135
14177TIP3    H263947   6.419   5.250  11.896 -0.6302  1.2956 -0.5991
14178TIP3   OH263948   1.557   6.520  15.824 -0.1212  0.2892 -0.5369
14178TIP3    H163949   1.639   6.508  15.776  0.3209  2.0671 -0.3241
14178TIP3    H263950   1.579   6.585  15.891 -1.2378 -0.6298  0.7813
14179TIP3   OH263951   4.774   4.746   4.263  0.0930  0.1740 -0.2989
14179TIP3    H163952   4.780   4.753   4.358  1.9432 -2.0139 -0.1677
14179TIP3    H263953   4.684   4.718   4.246 -0.5164  1.4136  0.6779
14180TIP3   OH263954   3.295   3.689   0.119  0.2851 -0.0340 -0.1551
14180TIP3    H163955   3.312   3.721   0.030  2.2077  1.1013  0.5658
14180TIP3    H263956   3.325   3.759   0.176 -1.6577 -0.4050  1.4326
14181TIP3   OH263957   0.719   6.122  15.792 -0.2502  0.4159  0.5522
14181TIP3    H163958   0.801   6.150  15.751  1.7785 -2.2892  2.4780
14181TIP3    H263959   0.669   6.082  15.721  0.0306  2.0805 -0.6455
14182TIP3   OH263960   4.565   3.189  16.312 -0.5297 -0.7038 -0.2908
14182TIP3    H163961   4.547   3.120  16.248 -2.4499 -1.2721  0.7677
14182TIP3    H263962   4.583   3.142  16.394 -0.3302  0.0174  0.0917
14183TIP3   OH263963   6.687   0.872   1.542  0.0548  0.2902  0.4627
14183TIP3    H163964   6.772   0.910   1.563  0.0085  0.6122  0.0793
14183TIP3    H263965   6.647   0.934   1.481  0.8862 -1.3781 -1.9273
14184TIP3   OH263966   1.080   0.878   2.225 -0.3797  0.1265 -0.3122
14184TIP3    H163967   1.005   0.873   2.285 -0.7096 -2.4621 -0.8195
14184TIP3    H263968   1.156   0.868   2.282 -0.5898 -0.3787 -0.1159
14185TIP3   OH263969   3.480   4.326   0.229 -0.3264 -0.1767  0.6471
14185TIP3    H163970   3.554   4.268   0.208  0.2638  0.1889  1.6323
14185TIP3    H263971   3.495   4.404   0.176 -0.5085 -0.4764  0.1553
14186TIP3   OH263972   5.812   2.529  16.034  0.0203 -0.0811 -0.1841
14186TIP3    H163973   5.901   2.566  16.036  0.3400 -0.1224 -4.4021
14186TIP3    H263974   5.818   2.450  16.088  3.0051 -0.7996 -1.3599
14187TIP3   OH263975   0.704   3.656  11.225  0.2628 -0.0943  0.3860
14187TIP3    H163976   0.718   3.577  11.277  0.5043 -0.5788 -0.3942
14187TIP3    H263977   0.679   3.624  11.138  2.7759  0.5904 -0.6796
14188TIP3   OH263978   0.569   1.095   5.702  0.2133 -0.2803  0.0736
14188TIP3    H163979   0.495   1.074   5.645 -0.0221 -0.0631  0.2964
14188TIP3    H263980   0.646   1.083   5.646 -0.0428  0.5279 -0.4778
14189TIP3   OH263981   1.466   3.357   2.436 -0.0562  0.8223 -0.0565
14189TIP3    H163982   1.491   3.321   2.521  0.2833 -3.0521 -1.5850
14189TIP3    H263983   1.549   3.383   2.396  0.4478 -1.7659 -0.8896
14190TIP3   OH263984   1.544   2.218   1.700  0.7485  0.0723 -0.3402
14190TIP3    H163985   1.562   2.206   1.606  1.4466 -0.1921 -0.1831
14190TIP3    H263986   1.452   2.245   1.704  0.9899  1.0923 -1.1750
14191TIP3   OH263987   3.885   4.697   2.209 -0.1268 -0.3804  0.1728
14191TIP3    H163988   3.864   4.721   2.300  0.7453  1.3038 -0.0265
14191TIP3    H263989   3.906   4.780   2.167 -2.4264 -0.8408 -2.1349
14192TIP3   OH263990   5.309   4.958  14.494 -0.3047 -0.1305  0.4621
14192TIP3    H163991   5.392   4.990  14.458 -1.0657  0.6570 -0.6925
14192TIP3    H263992   5.330   4.927  14.582  1.8242 -2.8265 -0.8461
14193TIP3   OH263993   2.515   0.805   2.928  0.4467  0.6647  0.2369
14193TIP3    H163994   2.540   0.896   2.940 -1.7379  1.2305  0.9677
14193TIP3    H263995   2.437   0.794   2.983  1.3699 -1.9937  1.1731
14194TIP3   OH263996   4.330   0.404   1.904  0.7279  0.0891  0.2720
14194TIP3    H163997   4.376   0.480   1.868  3.1777 -1.6105 -0.4305
14194TIP3    H263998   4.324   0.422   1.998  2.9158  0.4243  0.3980
14195TIP3   OH263999   3.826   1.130   6.182  0.0616 -0.0518  0.2120
14195TIP3    H164000   3.760   1.074   6.140 -0.7346  1.7438 -1.0954
14195TIP3    H264001   3.777   1.181   6.247  0.1572  1.1107 -0.5864
14196TIP3   OH264002   2.464   4.094   2.118  0.6511 -0.1116 -0.1466
14196TIP3    H164003   2.369   4.099   2.128  0.7912  0.4966  0.9565
14196TIP3    H264004   2.478   4.087   2.023 -0.4617  0.4066 -0.3556
14197TIP3   OH264005   1.941   0.669  15.035  0.2956  0.3046 -0.0035
14197TIP3    H164006   1.861   0.644  14.988 -0.3381  1.8821  0.1498
14197TIP3    H264007   1.985   0.729  14.975 -0.0616  1.6231  1.0130
14198TIP3   OH264008   3.991   2.279   1.913 -0.1851  0.0041  0.9155
14198TIP3    H164009   4.053   2.288   1.986 -0.3199  0.0017  1.0300
14198TIP3    H264010   3.991   2.185   1.893  0.8668  0.1657  0.0267
14199TIP3   OH264011   4.285   3.656  15.661 -0.3410 -0.3662  0.6512
14199TIP3    H164012   4.354   3.619  15.607  0.7934  0.5267  1.4440
14199TIP3    H264013   4.331   3.697  15.734 -1.6751  0.7248  0.9177
14200TIP3   OH264014   1.763   1.082  11.176 -0.3216  0.0947 -0.2218
14200TIP3    H164015   1.843   1.134  11.169 -0.8121  1.1400  1.4174
14200TIP3    H264016   1.697   1.134  11.131 -0.7535  0.8421  1.1943
14201TIP3   OH264017   5.599   5.509  13.155 -0.2768 -0.5895 -0.1314
14201TIP3    H164018   5.672   5.565  13.128  0.5207 -0.9682  1.1421
14201TIP3    H264019   5.521   5.551  13.119  0.2003  1.7831  1.3953
14202TIP3   OH264020   0.865   4.981   4.571  0.2279  0.3391 -0.0268
14202TIP3    H164021   0.927   5.054   4.577 -0.9082  1.3798 -0.4439
14202TIP3    H264022   0.803   4.996   4.642  0.0650 -0.3014 -0.0287
14203TIP3   OH264023   3.490   5.959  14.229  0.6003  0.1084  0.4338
14203TIP3    H164024   3.515   5.867  14.237 -0.4136 -0.3832 -1.3730
14203TIP3    H264025   3.570   6.004  14.203  1.2515 -0.1235  1.9382
14204TIP3   OH264026   3.079   6.336   2.956  0.1366 -0.2133 -0.1077
14204TIP3    H164027   3.164   6.374   2.935  0.0135 -0.0849 -0.3814
14204TIP3    H264028   3.040   6.317   2.871 -0.1214 -0.2447  0.0179
14205TIP3   OH264029   5.771   4.161   1.660  0.1253 -0.0544 -0.5420
14205TIP3    H164030   5.802   4.082   1.704 -1.2300  0.2903  1.1617
14205TIP3    H264031   5.764   4.137   1.568 -0.0703 -1.8559 -0.0912
14206TIP3   OH264032   2.096   6.179  12.703  0.2831  0.5686 -0.1182
14206TIP3    H164033   2.139   6.252  12.748  0.9576  1.3826 -1.9826
14206TIP3    H264034   2.006   6.180  12.735  1.2179 -0.2847  2.8146
14207TIP3   OH264035   0.591   2.326  14.200 -0.5043 -0.3870  0.5487
14207TIP3    H164036   0.563   2.299  14.288  0.3572  0.4176  1.0841
14207TIP3    H264037   0.673   2.374  14.215 -0.5265  0.0440 -0.6633
14208TIP3   OH264038   2.165   4.772   1.556 -0.4867  0.3684 -0.3152
14208TIP3    H164039   2.107   4.751   1.483  0.5107  0.0175 -1.0341
14208TIP3    H264040   2.226   4.836   1.521 -0.2656  0.5279  0.3461
14209TIP3   OH264041   4.446   6.097   5.639 -0.4446 -0.8271  0.4753
14209TIP3    H164042   4.498   6.137   5.708 -1.2902 -0.3033  0.8230
14209TIP3    H264043   4.358   6.132   5.652 -0.6662 -0.8952 -0.7273
14210TIP3   OH264044   5.739   2.018  15.381  0.1787 -0.0278  0.1797
14210TIP3    H164045   5.684   2.090  15.411  0.7115  0.1835  0.6588
14210TIP3    H264046   5.690   1.939  15.405  0.5661  0.1404  1.5782
14211TIP3   OH264047   5.143   3.444   2.913 -0.1178  0.6753 -0.1080
14211TIP3    H164048   5.181   3.368   2.869 -0.6187  0.1602  0.3378
14211TIP3    H264049   5.175   3.438   3.003 -0.7849  0.5660  0.1202
14212TIP3   OH264050   3.608   6.407  16.330  0.5870 -0.3684  0.0829
14212TIP3    H164051   3.654   6.386  16.411  0.1405 -0.2696  0.3683
14212TIP3    H264052   3.678   6.431  16.269  0.8734  0.5435  0.7378
14213TIP3   OH264053   6.612   0.283   5.389 -0.2275 -0.0273 -0.5814
14213TIP3    H164054   6.527   0.240   5.377 -0.5423  0.2042  0.6253
14213TIP3    H264055   6.627   0.279   5.484  0.4504  1.1746 -0.6174
14214TIP3   OH264056   2.719   1.171  12.507 -0.5062  1.2038 -0.3499
14214TIP3    H164057   2.645   1.115  12.483 -0.5405  0.9813  0.2542
14214TIP3    H264058   2.767   1.185  12.425  1.3642 -2.4147 -0.0905
14215TIP3   OH264059   2.301   3.692   1.360 -0.4618  0.5122 -0.2920
14215TIP3    H164060   2.265   3.603   1.369  0.1920  0.2376 -0.3352
14215TIP3    H264061   2.295   3.729   1.447 -2.2383  1.0254 -0.5883
14216TIP3   OH264062   2.692   5.410  17.408  0.2260  0.4262  0.1636
14216TIP3    H164063   2.663   5.482  17.353 -0.1352 -0.0842 -0.3187
14216TIP3    H264064   2.770   5.444  17.452  0.0069  1.1398  0.0138
14217TIP3   OH264065   3.167   0.600  16.828  0.2995 -0.0433 -0.2030
14217TIP3    H164066   3.145   0.625  16.739 -1.4969  0.5723  0.3813
14217TIP3    H264067   3.258   0.570  16.822  0.1292 -0.2970 -2.2708
14218TIP3   OH264068   0.176   2.354  16.941 -0.5487  0.8070  0.1501
14218TIP3    H164069   0.215   2.287  16.886  0.4129  1.3707  0.1227
14218TIP3    H264070   0.190   2.323  17.031  0.0983  1.0814  0.1439
14219TIP3   OH264071   5.394   0.073  17.202 -0.3052  0.2291  0.2323
14219TIP3    H164072   5.348   0.153  17.180  0.2985  0.3483 -0.6270
14219TIP3    H264073   5.344   0.003  17.158 -1.8403 -0.1175  2.3609
14220TIP3   OH264074   1.192   5.887   2.962  0.6498 -0.2929 -0.5276
14220TIP3    H164075   1.256   5.848   3.022  0.3541 -0.9749 -0.6464
14220TIP3    H264076   1.107   5.868   3.003  0.4808 -0.1693 -0.8214
14221TIP3   OH264077   0.974   3.491   4.445 -0.4447 -0.7001  0.5501
14221TIP3    H164078   0.939   3.579   4.453  0.4132 -0.3999  1.1576
14221TIP3    H264079   0.927   3.452   4.371 -0.4933  0.4248 -0.0195
14222TIP3   OH264080   6.332   2.480  14.161  0.8485  0.0493  0.2396
14222TIP3    H164081   6.323   2.406  14.221 -0.0722  0.7932  1.0420
14222TIP3    H264082   6.310   2.444  14.075 -0.9510 -0.3181  0.8139
14223TIP3   OH264083   0.893   0.912   4.826 -0.1332  0.0522  0.3775
14223TIP3    H164084   0.814   0.923   4.879  0.6954 -1.3563  2.0110
14223TIP3    H264085   0.954   0.977   4.861  1.0407 -2.0548  2.5500
14224TIP3   OH264086   3.599   1.496  16.628  0.2719  0.0658  0.0220
14224TIP3    H164087   3.581   1.576  16.678  1.1434  0.6319 -0.5235
14224TIP3    H264088   3.547   1.505  16.548  1.4629  0.8328 -0.7196
14225TIP3   OH264089   3.780   5.167  14.843 -0.0541  0.1738  0.0245
14225TIP3    H164090   3.775   5.262  14.853  1.5665  0.3906 -0.8387
14225TIP3    H264091   3.710   5.145  14.782 -0.0606  0.9028 -0.2369
14226TIP3   OH264092   1.557   3.126  16.297  0.6219  0.2768 -0.0923
14226TIP3    H164093   1.573   3.116  16.203 -1.8264  0.4478 -0.5893
14226TIP3    H264094   1.462   3.131  16.304  0.7559  0.1202  2.4337
14227TIP3   OH264095   6.720   0.850  17.278 -0.4241  0.1325  0.1027
14227TIP3    H164096   6.696   0.859  17.370  1.2811 -1.5399  0.7821
14227TIP3    H264097   6.765   0.931  17.257 -2.1385  1.1796  0.2437
14228TIP3   OH264098   0.230   6.529  12.457  0.2335  0.2324 -0.1823
14228TIP3    H164099   0.178   6.456  12.424 -0.7875  0.6746  0.4046
14228TIP3    H264100   0.195   6.546  12.545  2.3623 -0.4022  0.8456
14229TIP3   OH264101   5.481   1.421  15.964  0.0936  0.1438 -0.0644
14229TIP3    H164102   5.535   1.444  15.889 -0.4265  0.4570 -0.3483
14229TIP3    H264103   5.414   1.362  15.929  0.2677 -0.2769  0.2926
14230TIP3   OH264104   5.915   3.514  11.749 -0.1437 -0.2720 -0.1184
14230TIP3    H164105   5.945   3.604  11.736  2.3518 -0.4465  3.1555
14230TIP3    H264106   5.842   3.522  11.811 -0.8468 -0.4631 -0.9034
14231TIP3   OH264107   0.137   6.560   2.573 -0.0264  0.2547 -0.0137
14231TIP3    H164108   0.152   6.610   2.653 -0.9004  2.9568 -1.4177
14231TIP3    H264109   0.212   6.500   2.568 -0.3987 -0.6881  3.2058
14232TIP3   OH264110   5.131   5.820  16.404  0.1148 -0.5524  0.4391
14232TIP3    H164111   5.046   5.779  16.388 -0.0499 -0.0885  0.1121
14232TIP3    H264112   5.119   5.912  16.379  0.0700  0.0460  2.4416
14233TIP3   OH264113   0.262   5.876  14.470  0.4782  0.1981 -0.2396
14233TIP3    H164114   0.220   5.878  14.556  0.8338  2.1564 -0.0619
14233TIP3    H264115   0.354   5.858  14.489  0.3348 -0.6771 -0.3389
14234TIP3   OH264116   5.372   2.391   2.630 -0.4124  0.1976  0.6656
14234TIP3    H164117   5.402   2.480   2.647 -0.5753  0.3572  0.1481
14234TIP3    H264118   5.278   2.392   2.649 -0.1575 -0.2380  2.0408
14235TIP3   OH264119   6.607   0.483   6.112  0.6123  0.3064 -0.7396
14235TIP3    H164120   6.535   0.419   6.116 -1.2737  2.2909 -1.1929
14235TIP3    H264121   6.593   0.539   6.188  2.6653 -0.1646  0.0495
14236TIP3   OH264122   3.636   6.695  11.474  0.2105 -0.1247 -0.2594
14236TIP3    H164123   3.725   6.728  11.478  0.2547  0.0069 -1.7484
14236TIP3    H264124   3.645   6.600  11.462  0.1027 -0.4374  1.8202
14237TIP3   OH264125   3.987   5.245  13.318 -0.4175 -0.3179 -0.0962
14237TIP3    H164126   3.911   5.241  13.376 -0.1241  1.0718  0.4258
14237TIP3    H264127   4.019   5.335  13.327  0.2956 -0.3924 -1.5782
14238TIP3   OH264128   0.033   2.352   2.450  0.1972 -0.0723  0.1484
14238TIP3    H164129   0.058   2.327   2.538  0.0347 -0.1637  0.1687
14238TIP3    H264130   0.055   2.445   2.444 -1.1361  0.3024  0.7736
14239TIP3   OH264131   2.270   3.339   2.630  0.2168  0.4598  0.0177
14239TIP3    H164132   2.291   3.301   2.545  1.5865  1.4453 -0.1143
14239TIP3    H264133   2.256   3.264   2.687  0.3268 -0.2204 -0.8385
14240TIP3   OH264134   4.641   6.310  15.757  0.4924 -0.3136  0.2774
14240TIP3    H164135   4.639   6.247  15.829  1.4455 -0.9093 -0.1989
14240TIP3    H264136   4.635   6.256  15.678 -2.6085  0.4347 -0.1299
14241TIP3   OH264137   0.766   3.680  15.530  0.0745 -0.6690 -0.3441
14241TIP3    H164138   0.674   3.693  15.551  0.7248  0.2159  2.3577
14241TIP3    H264139   0.790   3.756  15.477 -0.6337 -0.6596 -0.6558
14242TIP3   OH264140   1.953   4.824   3.506  0.4335  0.2957 -0.6591
14242TIP3    H164141   1.875   4.878   3.511  0.4474  0.4929 -2.0755
14242TIP3    H264142   2.021   4.883   3.472  1.1690  0.0851  0.3904
14243TIP3   OH264143   4.539   6.276   5.007  0.0502  0.2109 -0.6041
14243TIP3    H164144   4.542   6.189   4.967 -1.6591  0.8166 -2.1683
14243TIP3    H264145   4.621   6.282   5.056  0.2624 -2.2276 -0.5280
14244TIP3   OH264146   4.497   1.508  14.427 -0.5094 -0.8765  0.3843
14244TIP3    H164147   4.528   1.478  14.342 -0.0075 -1.7716  0.8593
14244TIP3    H264148   4.533   1.597  14.436  1.4788 -1.6494  0.6557
14245TIP3   OH264149   3.832   1.887   3.783 -0.1144 -0.8283  1.0222
14245TIP3    H164150   3.786   1.829   3.844 -0.1352 -1.8982  0.0006
14245TIP3    H264151   3.764   1.919   3.724 -0.1649  0.5247  1.7446
14246TIP3   OH264152   2.603   1.690  11.703  0.3391  0.0655  0.1062
14246TIP3    H164153   2.521   1.657  11.740 -0.2690  1.4919  0.1190
14246TIP3    H264154   2.606   1.653  11.615 -0.2815 -0.0734  0.1400
14247TIP3   OH264155   3.707   0.829  13.623  0.1456  0.2667 -0.4117
14247TIP3    H164156   3.764   0.825  13.547 -1.0382 -0.4005 -1.2790
14247TIP3    H264157   3.625   0.865  13.591 -1.1407 -2.0830  0.0332
14248TIP3   OH264158   1.330   3.424   4.895 -0.3635 -0.0125  0.5076
14248TIP3    H164159   1.391   3.423   4.968 -0.8710 -3.1385  1.0343
14248TIP3    H264160   1.380   3.389   4.821 -1.4072 -2.9083  1.0212
14249TIP3   OH264161   0.495   6.445  12.409  0.2177  0.8334  0.2892
14249TIP3    H164162   0.457   6.359  12.391  0.4477  0.2951  2.1592
14249TIP3    H264163   0.426   6.493  12.455 -0.0634  1.8516 -1.1088
14250TIP3   OH264164   6.187   4.938   4.105 -0.0484  0.2611 -0.2435
14250TIP3    H164165   6.206   4.990   4.026 -0.6558  2.8682  1.2038
14250TIP3    H264166   6.218   4.993   4.177 -0.6867 -1.4719  1.4139
14251TIP3   OH264167   4.757   3.134   1.796  0.4873  0.5972 -0.3800
14251TIP3    H164168   4.841   3.179   1.806  1.2026 -0.6517 -0.6111
14251TIP3    H264169   4.765   3.087   1.713  0.1147 -0.6577  0.2651
14252TIP3   OH264170   0.992   5.532  15.804  0.3549 -0.5112  0.0040
14252TIP3    H164171   1.026   5.502  15.720  0.2080  0.6267 -0.4736
14252TIP3    H264172   0.900   5.553  15.787 -0.2611 -2.1997  0.9535
14253TIP3   OH264173   3.952   5.829  16.451  0.3632  0.1158  0.0415
14253TIP3    H164174   3.911   5.855  16.368  0.0973  1.5592  0.5901
14253TIP3    H264175   3.902   5.752  16.478  0.2101 -0.1552 -0.9407
14254TIP3   OH264176   2.580   1.010   1.225  0.2416  0.0315  0.2213
14254TIP3    H164177   2.663   1.028   1.179  0.6622  0.0448  0.9658
14254TIP3    H264178   2.569   0.915   1.217 -0.3710  0.1892 -1.0273
14255TIP3   OH264179   0.018   1.766  12.052  0.0303  0.4610 -0.4372
14255TIP3    H164180   0.093   1.780  11.994 -0.8607 -0.2796 -1.8268
14255TIP3    H264181   0.032   1.679  12.089  0.6987  1.0144  0.6318
14256TIP3   OH264182   4.145   4.676   2.429 -0.4332  0.7674 -0.5642
14256TIP3    H164183   4.136   4.769   2.408 -1.0632  0.2813 -2.6440
14256TIP3    H264184   4.087   4.632   2.367 -2.0057 -0.9068  1.9351
14257TIP3   OH264185   3.632   2.962  16.936  0.5359 -0.9595 -0.0506
14257TIP3    H164186   3.634   3.004  16.850  1.4384 -0.9466 -0.0350
14257TIP3    H264187   3.584   2.880  16.922 -2.6289  0.7071  0.2372
14258TIP3   OH264188   3.132   2.331   0.954  0.0564  0.3239  0.2827
14258TIP3    H164189   3.079   2.366   0.883  1.6537  1.8882 -0.2270
14258TIP3    H264190   3.221   2.330   0.919  0.3615 -2.9600  0.8119
14259TIP3   OH264191   4.451   2.889  15.762 -1.1664 -0.4185 -0.0397
14259TIP3    H164192   4.390   2.905  15.833 -0.1261  1.6893  0.4586
14259TIP3    H264193   4.485   2.800  15.778 -0.4204  0.2544  2.5522
14260TIP3   OH264194   2.171   5.150  15.010  0.6180  0.0621  0.2095
14260TIP3    H164195   2.261   5.127  14.986  0.9088 -0.0039  1.3321
14260TIP3    H264196   2.147   5.220  14.948  1.0095 -0.7226 -0.8623
14261TIP3   OH264197   1.343   0.216   0.458  0.1047  0.4394  0.6035
14261TIP3    H164198   1.359   0.134   0.505  1.4543  0.4668  0.2328
14261TIP3    H264199   1.252   0.210   0.429  0.8294 -2.0653 -1.5459
14262TIP3   OH264200   1.459   5.882  15.515 -0.2395 -0.2260  0.2017
14262TIP3    H164201   1.474   5.857  15.424  0.3165 -0.3856  0.3294
14262TIP3    H264202   1.470   5.801  15.565 -2.3482 -0.5164  0.2541
14263TIP3   OH264203   5.024   5.698  14.320  0.3763 -0.5848 -0.5583
14263TIP3    H164204   5.068   5.630  14.268 -0.6054  0.6176 -3.1114
14263TIP3    H264205   5.095   5.753  14.352  1.0494 -1.7519  0.0601
14264TIP3   OH264206   2.142   6.166   1.785 -0.3823 -0.2450  0.0932
14264TIP3    H164207   2.080   6.112   1.834  0.0898 -0.1297  0.8314
14264TIP3    H264208   2.097   6.185   1.703 -0.1929 -2.5635 -0.6128
14265TIP3   OH264209   3.326   1.127  12.695 -0.6124  0.2168  0.2603
14265TIP3    H164210   3.361   1.205  12.651 -0.7147  0.6549  0.9491
14265TIP3    H264211   3.237   1.150  12.719 -0.7385 -0.2166  0.2269
14266TIP3   OH264212   0.822   3.910  11.486  0.1139 -0.2793 -0.0230
14266TIP3    H164213   0.834   4.005  11.476  3.6850 -0.6294 -0.5044
14266TIP3    H264214   0.865   3.889  11.569  0.3280 -1.5946 -0.4431
14267TIP3   OH264215   2.605   3.199  11.413 -0.3514 -0.1447 -0.1263
14267TIP3    H164216   2.549   3.274  11.396 -0.6616 -0.5132 -0.7545
14267TIP3    H264217   2.566   3.157  11.489  0.1038  0.5890  0.5358
14268TIP3   OH264218   6.532   5.670  12.600  0.3061  0.1403  0.3219
14268TIP3    H164219   6.564   5.581  12.614  3.1170  0.9930 -0.0999
14268TIP3    H264220   6.602   5.727  12.633 -0.3921  2.1883 -1.4756
14269TIP3   OH264221   2.015   6.207  16.559 -0.3400 -0.2053 -0.2354
14269TIP3    H164222   2.103   6.172  16.567  0.0189  0.9201  1.1807
14269TIP3    H264223   1.972   6.184  16.642 -1.5233 -1.0695 -1.0515
14270TIP3   OH264224   6.690   2.752  14.101  0.0199  0.6564  0.3459
14270TIP3    H164225   6.780   2.753  14.133  0.1134 -1.4264  0.2998
14270TIP3    H264226   6.643   2.697  14.163  0.0126 -2.7687 -2.3785
14271TIP3   OH264227   2.195   4.836   5.982 -0.2260 -0.1342 -0.3020
14271TIP3    H164228   2.208   4.846   6.077 -0.1074  1.5431 -0.4748
14271TIP3    H264229   2.151   4.751   5.973 -0.5119 -0.1851  1.2791
14272TIP3   OH264230   4.144   6.732   5.846  0.0464  0.3013 -0.0944
14272TIP3    H164231   4.086   6.795   5.890 -0.6451 -0.4579  0.1163
14272TIP3    H264232   4.125   6.743   5.753 -1.2738 -0.6853  0.0183
14273TIP3   OH264233   1.797   6.192   1.766 -0.2601  0.5770  0.4357
14273TIP3    H164234   1.851   6.154   1.835  0.0343 -1.0797 -0.6304
14273TIP3    H264235   1.747   6.117   1.732 -0.9056  1.4815 -0.6664
14274TIP3   OH264236   4.629   3.317  13.544  0.2712  0.1391 -0.5630
14274TIP3    H164237   4.556   3.376  13.527  0.6207  1.0968  1.0621
14274TIP3    H264238   4.634   3.311  13.640  1.7919 -0.5674 -0.6510
14275TIP3   OH264239   3.186   4.890  12.167 -0.2300 -0.5599 -0.0747
14275TIP3    H164240   3.147   4.916  12.084 -0.7415  3.2962  1.1629
14275TIP3    H264241   3.111   4.871  12.224 -0.1231  0.7062  0.5350
14276TIP3   OH264242   2.728   4.929  12.397  0.0689  0.4575  0.3378
14276TIP3    H164243   2.719   4.864  12.328 -0.2660 -0.1533  0.9439
14276TIP3    H264244   2.674   4.896  12.469 -1.9485  2.4985 -0.1216
14277TIP3   OH264245   1.819   2.123   4.630  0.3027 -0.2232 -0.0826
14277TIP3    H164246   1.732   2.153   4.656  0.3075  1.0499 -1.4740
14277TIP3    H264247   1.879   2.165   4.692 -0.0413 -1.3469  1.0775
14278TIP3   OH264248   2.507   6.018  15.331 -0.3977 -0.0618  0.2821
14278TIP3    H164249   2.577   6.007  15.395  0.9378 -1.4378 -1.2984
14278TIP3    H264250   2.431   5.974  15.370  0.1403 -0.1355  1.2604
14279TIP3   OH264251   0.363   5.138  12.574 -0.1492  0.0559 -0.2665
14279TIP3    H164252   0.304   5.213  12.575 -0.6292 -0.3070 -0.6405
14279TIP3    H264253   0.314   5.070  12.528  0.7817 -0.0693 -1.1135
14280TIP3   OH264254   0.655   1.677   1.745  0.2057  0.8082  0.1827
14280TIP3    H164255   0.694   1.626   1.674  1.7926  0.5421  1.1746
14280TIP3    H264256   0.654   1.766   1.712  1.0201  0.7064 -0.1517
14281TIP3   OH264257   6.327   2.991   4.892  0.4307  0.0909 -0.2161
14281TIP3    H164258   6.393   3.046   4.936 -0.9960  0.5540  1.4619
14281TIP3    H264259   6.337   2.905   4.933 -0.6104  0.4094  0.7463
14282TIP3   OH264260   0.399   4.096  14.892  0.1374 -0.3409  0.4709
14282TIP3    H164261   0.447   4.015  14.908 -1.5007 -1.5248 -0.2517
14282TIP3    H264262   0.327   4.070  14.835 -1.3355  1.3333  1.4610
14283TIP3   OH264263   5.047   4.883   1.850 -0.0184 -0.5297 -0.3018
14283TIP3    H164264   5.127   4.932   1.870  0.3176 -1.2858  0.2142
14283TIP3    H264265   5.064   4.795   1.882 -1.5318 -0.4026  0.9460
14284TIP3   OH264266   5.521   3.501  10.681  0.6262  0.2178 -0.0043
14284TIP3    H164267   5.487   3.412  10.691 -0.3495  0.5540 -0.1495
14284TIP3    H264268   5.496   3.526  10.591 -2.3680  1.9203  1.1587
14285TIP3   OH264269   5.408   6.525  14.229  0.2395  0.1350  0.0806
14285TIP3    H164270   5.430   6.434  14.212  1.6218  0.5716 -0.6206
14285TIP3    H264271   5.415   6.568  14.143 -1.4048  0.7276  0.2015
14286TIP3   OH264272   1.048   0.367  12.261 -0.5195 -0.3422  0.4676
14286TIP3    H164273   1.007   0.293  12.305 -0.1661 -0.0160  1.3843
14286TIP3    H264274   1.077   0.333  12.177  0.6278 -1.5625  1.3134
14287TIP3   OH264275   0.821   1.828  12.211 -0.2019  0.0517 -1.1974
14287TIP3    H164276   0.853   1.854  12.125  0.0302 -0.2380 -1.1999
14287TIP3    H264277   0.782   1.908  12.247  1.2720  0.6754 -0.8592
14288TIP3   OH264278   4.959   5.958  12.087  0.1918 -0.3084  0.1337
14288TIP3    H164279   4.927   5.918  12.006  0.7954  0.2268 -0.3881
14288TIP3    H264280   4.953   6.053  12.071 -1.0690 -0.1664  1.2862
14289TIP3   OH264281   0.300   5.909  11.874  0.0242  0.6144 -0.0382
14289TIP3    H164282   0.207   5.914  11.899 -0.4491  1.4906 -1.8437
14289TIP3    H264283   0.313   5.818  11.848 -0.1948  0.3857  0.6158
14290TIP3   OH264284   0.919   5.489  16.803 -0.2694 -0.3867  0.0250
14290TIP3    H164285   0.915   5.505  16.709 -2.3131 -0.4140  0.0601
14290TIP3    H264286   0.830   5.506  16.834 -0.0118 -1.8238  1.7072
14291TIP3   OH264287   2.341   6.285   5.161  0.3605  0.5927 -0.0488
14291TIP3    H164288   2.420   6.298   5.214 -1.1316 -1.3229  2.9336
14291TIP3    H264289   2.276   6.345   5.200 -1.3302 -2.2185  1.7938
14292TIP3   OH264290   1.731   3.990   4.715  0.0104 -0.2221  0.7197
14292TIP3    H164291   1.716   3.902   4.680 -0.9443  0.6717 -1.3230
14292TIP3    H264292   1.645   4.017   4.747 -0.3851  0.9386 -1.1793
14293TIP3   OH264293   2.288   4.002   4.745 -0.5016 -0.1278 -0.0693
14293TIP3    H164294   2.307   3.976   4.655  1.0113  1.4192 -0.2508
14293TIP3    H264295   2.196   4.031   4.743  0.0303  1.6562 -1.5911
14294TIP3   OH264296   6.264   3.710  15.804 -0.3518 -0.4032  0.3187
14294TIP3    H164297   6.181   3.729  15.761 -0.2595 -0.2044  0.2298
14294TIP3    H264298   6.240   3.683  15.893 -0.6927 -2.7802 -0.4214
14295TIP3   OH264299   2.520   2.817   2.481  0.1916  0.1403 -0.1025
14295TIP3    H164300   2.469   2.810   2.401  0.0011  0.7137 -0.0361
14295TIP3    H264301   2.595   2.759   2.467 -1.3304 -2.0707  0.4884
14296TIP3   OH264302   2.080   6.733   4.293  0.5391  0.1172  0.0479
14296TIP3    H164303   2.076   6.802   4.226  0.3538  0.3755  0.3252
14296TIP3    H264304   2.100   6.653   4.243  0.2872  0.2873 -0.3316
14297TIP3   OH264305   3.515   2.922   2.797  0.4155  0.0474  0.0707
14297TIP3    H164306   3.556   2.891   2.878  0.7308  0.3646  0.0323
14297TIP3    H264307   3.421   2.922   2.816  0.5081  0.4273  0.5449
14298TIP3   OH264308   1.199   0.642   1.593 -0.3452  0.0478 -0.2698
14298TIP3    H164309   1.115   0.630   1.549 -1.7257  0.5239  2.0491
14298TIP3    H264310   1.222   0.555   1.625 -0.5276  0.1182  0.0532
14299TIP3   OH264311   3.213   4.581  12.980  0.1346  0.0150 -0.1216
14299TIP3    H164312   3.247   4.641  12.914  1.1003 -0.8532 -0.4461
14299TIP3    H264313   3.288   4.525  13.002 -1.5507 -3.6900 -2.7303
14300TIP3   OH264314   0.169   0.012   5.396  0.3841  0.2205  0.1521
14300TIP3    H164315   0.199   0.025   5.306  0.5326 -0.8122  0.0398
14300TIP3    H264316   0.174   0.099   5.436 -0.1955  0.8037 -0.9881
14301TIP3   OH264317   6.166   2.486   5.135 -0.4327 -0.0648 -0.2885
14301TIP3    H164318   6.173   2.447   5.048  1.1775 -0.2023 -0.1259
14301TIP3    H264319   6.206   2.572   5.127 -0.6598  0.0958  0.2253
14302TIP3   OH264320   6.446   3.655  15.617 -0.0449  0.4125 -0.1871
14302TIP3    H164321   6.381   3.605  15.567  0.4518  0.0598 -0.4879
14302TIP3    H264322   6.396   3.693  15.689 -0.5540 -0.0015 -0.3122
14303TIP3   OH264323   6.279   0.976   0.188  0.1591  0.4440 -0.0647
14303TIP3    H164324   6.231   0.998   0.268  0.3479  2.1062 -0.3726
14303TIP3    H264325   6.368   0.957   0.218  0.2257  1.0446  0.1397
14304TIP3   OH264326   0.702   5.070  15.079 -0.2180  0.3141  0.0632
14304TIP3    H164327   0.754   5.006  15.127  0.3346  0.8257  0.1691
14304TIP3    H264328   0.721   5.153  15.124  0.7004  0.8912 -1.3335
14305TIP3   OH264329   5.667   2.075   2.411 -0.4703  0.1423  0.6225
14305TIP3    H164330   5.730   2.136   2.371 -0.2386 -0.4183  0.1020
14305TIP3    H264331   5.597   2.131   2.445 -0.9707  0.6322 -1.0932
14306TIP3   OH264332   1.051   1.324  16.578  0.1623  0.1683 -0.4691
14306TIP3    H164333   1.029   1.415  16.559  1.5748  0.2089 -2.1906
14306TIP3    H264334   1.120   1.329  16.644 -1.1542  0.2128  0.9798
14307TIP3   OH264335   5.963   0.015   1.698  0.2531 -0.7968 -0.7289
14307TIP3    H164336   5.873  -0.019   1.692  0.5778 -1.9441  0.4419
14307TIP3    H264337   5.960   0.076   1.773  0.9101 -2.5326  0.7820
14308TIP3   OH264338   2.234   0.660   2.536 -0.4664  0.2464  0.6176
14308TIP3    H164339   2.269   0.609   2.609 -0.5711 -2.2764 -0.9511
14308TIP3    H264340   2.141   0.668   2.556 -0.1659  1.3481  1.6900
14309TIP3   OH264341   1.158   5.547  14.534  0.6624  0.0549 -0.0314
14309TIP3    H164342   1.193   5.458  14.541  0.9685  0.1057 -0.8323
14309TIP3    H264343   1.169   5.570  14.442 -0.1726  0.6156 -0.0003
14310TIP3   OH264344   4.040   6.138   3.967  0.3406  0.3266 -0.4077
14310TIP3    H164345   4.096   6.068   3.936  1.4524  1.3058 -0.6893
14310TIP3    H264346   4.024   6.117   4.059  2.1163  0.5894  0.0033
14311TIP3   OH264347   4.426   1.194   5.314  0.3511 -0.7746  0.2786
14311TIP3    H164348   4.464   1.204   5.402 -0.1651  0.9308  0.3497
14311TIP3    H264349   4.500   1.208   5.255  0.6495 -1.6826  0.4125
14312TIP3   OH264350   4.004   6.435  14.468  0.2005 -0.4844 -0.3120
14312TIP3    H164351   4.034   6.369  14.405  1.0501 -0.1919 -0.2404
14312TIP3    H264352   4.067   6.428  14.541 -0.3562 -0.3440  0.1860
14313TIP3   OH264353   6.583   6.507   3.981  0.6884  0.3432  0.8186
14313TIP3    H164354   6.593   6.586   4.033  1.6941  0.8212 -0.0613
14313TIP3    H264355   6.668   6.463   3.988  0.4475 -0.1767  0.5375
14314TIP3   OH264356   3.011   0.165  16.753  0.4868  0.2457  1.0332
14314TIP3    H164357   3.081   0.166  16.688 -1.1841  1.4680 -0.8564
14314TIP3    H264358   2.933   0.193  16.705 -1.5082 -1.8290  2.8538
14315TIP3   OH264359   2.168   5.982  14.802 -0.1613 -0.2855 -0.1280
14315TIP3    H164360   2.115   6.061  14.789 -0.0303 -0.1417  0.1795
14315TIP3    H264361   2.169   5.971  14.897 -1.7461 -1.7290 -0.2246
14316TIP3   OH264362   3.217   6.103   5.516 -0.5109  0.3018 -0.2926
14316TIP3    H164363   3.161   6.180   5.513 -2.5290 -1.0473  0.4682
14316TIP3    H264364   3.306   6.138   5.527 -1.3092  2.4974 -0.3703
14317TIP3   OH264365   0.878   4.907   6.290 -0.2196  0.1680 -0.5424
14317TIP3    H164366   0.798   4.868   6.325 -0.5651 -1.5208 -2.9865
14317TIP3    H264367   0.936   4.916   6.366 -2.0503 -0.2427  0.9773
14318TIP3   OH264368   3.297   5.774  12.879 -0.0832 -0.9664 -0.3749
14318TIP3    H164369   3.296   5.869  12.879 -0.7875 -0.9641 -1.0002
14318TIP3    H264370   3.383   5.751  12.843  0.5040 -0.5872  0.7440
14319TIP3   OH264371   0.935   0.382   2.112 -0.3325 -0.5026 -0.1949
14319TIP3    H164372   0.914   0.423   2.028  0.2641  0.5685  0.1584
14319TIP3    H264373   0.917   0.450   2.177 -0.2507 -1.1334  0.4968
14320TIP3   OH264374   5.936   2.413  12.371  0.3326 -0.3723 -0.4931
14320TIP3    H164375   5.976   2.405  12.457  0.2523  0.0276 -0.4170
14320TIP3    H264376   5.915   2.323  12.345  3.1373 -0.8404 -1.4272
14321TIP3   OH264377   6.001   4.314   3.694  0.6804 -0.1784 -0.3620
14321TIP3    H164378   5.948   4.308   3.773  1.2553  0.9224  0.1394
14321TIP3    H264379   5.940   4.341   3.626  0.3025 -0.5045 -0.1578
14322TIP3   OH264380   4.303   5.373   1.866  0.4884  0.3867 -0.1823
14322TIP3    H164381   4.276   5.459   1.834  0.1095  0.1610 -0.4783
14322TIP3    H264382   4.310   5.319   1.787 -0.9817 -0.3228  0.1250
14323TIP3   OH264383   6.325   4.629  16.066  0.0264  0.4440 -0.3465
14323TIP3    H164384   6.285   4.681  16.136 -3.2815  0.5548 -2.1226
14323TIP3    H264385   6.391   4.688  16.028  0.7457  0.9637  1.5992
14324TIP3   OH264386   4.534   3.873   5.590  0.5161  0.1907 -0.7264
14324TIP3    H164387   4.471   3.804   5.611  1.6500 -0.8946 -0.8119
14324TIP3    H264388   4.618   3.828   5.583  1.2756  1.5765 -0.8498
14325TIP3   OH264389   2.260   4.348  10.447  0.2484 -0.3629 -0.6405
14325TIP3    H164390   2.218   4.416  10.394  0.4492 -0.5583 -1.0585
14325TIP3    H264391   2.246   4.267  10.398 -2.7657 -1.2247  1.3729
14326TIP3   OH264392   6.037   4.868   1.152 -0.3343  0.0202 -0.1823
14326TIP3    H164393   6.132   4.879   1.143 -0.4171  0.5026 -0.5290
14326TIP3    H264394   6.026   4.824   1.236  0.2312 -0.5637 -0.4052
14327TIP3   OH264395   2.450   5.049   3.257  0.5155  0.5623  0.4033
14327TIP3    H164396   2.508   4.975   3.236 -0.7074 -0.1831 -0.4610
14327TIP3    H264397   2.466   5.067   3.350  0.1103 -1.4462  0.8904
14328TIP3   OH264398   1.077   2.781  13.164 -0.8553 -0.0269  0.3750
14328TIP3    H164399   1.151   2.722  13.180  0.4219  1.4802  0.2290
14328TIP3    H264400   1.022   2.772  13.242 -1.4942 -2.4797 -0.2763
14329TIP3   OH264401   5.756   4.948   4.924  0.2615  0.1965  0.5884
14329TIP3    H164402   5.724   4.937   5.013 -0.3142  1.2127  0.5335
14329TIP3    H264403   5.676   4.967   4.873  0.5956 -0.2525 -0.1144
14330TIP3   OH264404   1.903   1.944  11.351  0.1195 -0.0556  0.1556
14330TIP3    H164405   1.950   1.861  11.346  0.4082  0.1617 -1.9843
14330TIP3    H264406   1.971   2.010  11.367  0.0142 -0.1276  0.9174
14331TIP3   OH264407   1.444   1.154   2.843  0.1667  0.1464 -0.6694
14331TIP3    H164408   1.531   1.186   2.819 -0.4464  1.4596 -1.2498
14331TIP3    H264409   1.418   1.097   2.771  1.0674 -1.3580  0.1416
14332TIP3   OH264410   3.254   3.530  12.936  0.1826  0.6787 -0.5217
14332TIP3    H164411   3.277   3.569  13.020  0.7189 -0.1248 -0.2860
14332TIP3    H264412   3.161   3.549  12.925  0.1167  0.8071  0.2364
14333TIP3   OH264413   0.182   3.341   3.723 -0.0184 -0.6287 -0.1318
14333TIP3    H164414   0.195   3.382   3.638 -0.1148  1.1579  0.6734
14333TIP3    H264415   0.207   3.250   3.710  1.1871 -0.1021 -1.7505
14334TIP3   OH264416   6.144   1.849  11.966 -0.1095  0.4438  0.4036
14334TIP3    H164417   6.138   1.929  11.915  0.7871  0.8635  0.9301
14334TIP3    H264418   6.054   1.824  11.984 -0.3892  1.3091  0.2091
14335TIP3   OH264419   4.640   2.130  15.323  0.4070 -0.0145 -0.3982
14335TIP3    H164420   4.648   2.054  15.380  1.7389  1.1456  1.0844
14335TIP3    H264421   4.688   2.199  15.369  0.8602  1.2225 -2.5840
14336TIP3   OH264422   1.836   5.545   4.948  0.1393 -0.0623  0.3595
14336TIP3    H164423   1.849   5.452   4.929 -0.3786 -0.1542  0.4251
14336TIP3    H264424   1.843   5.588   4.862 -0.9617 -0.3322  0.1104
14337TIP3   OH264425   3.144   4.940   2.366 -0.2886 -0.3887  0.4558
14337TIP3    H164426   3.197   4.969   2.292 -1.1323  0.5672  0.2018
14337TIP3    H264427   3.134   5.018   2.421 -0.5230 -0.8303  1.0560
14338TIP3   OH264428   0.601   3.387  16.507 -0.4997 -0.7644  0.1551
14338TIP3    H164429   0.688   3.387  16.466  0.3009  0.8125  1.7319
14338TIP3    H264430   0.584   3.295  16.528  0.6641 -1.1280 -0.4257
14339TIP3   OH264431   0.739   0.104  13.894  0.2640 -0.3576 -0.0145
14339TIP3    H164432   0.699   0.048  13.827 -0.4688 -0.4357  0.4808
14339TIP3    H264433   0.759   0.186  13.847 -1.6373  0.1596 -0.0115
14340TIP3   OH264434   6.729   3.051   2.661 -0.3861 -0.0519 -0.5007
14340TIP3    H164435   6.796   3.000   2.707  1.0970  0.9241 -1.5010
14340TIP3    H264436   6.708   2.998   2.584  0.0999  0.1565 -0.7848
14341TIP3   OH264437   5.700   1.765  16.646 -0.1398  0.6973  0.3169
14341TIP3    H164438   5.730   1.724  16.728 -0.4478  0.3386  0.2516
14341TIP3    H264439   5.656   1.695  16.599  0.6322  0.7187 -0.4695
14342TIP3   OH264440   4.323   6.544  11.172  0.1665  0.4340 -0.4121
14342TIP3    H164441   4.403   6.533  11.122 -0.2865 -1.1549 -0.8661
14342TIP3    H264442   4.254   6.553  11.106  0.0604  2.9991 -0.0311
14343TIP3   OH264443   5.312   3.833   1.852  0.1682 -0.8655 -0.1115
14343TIP3    H164444   5.268   3.860   1.772 -0.0793 -1.0216 -0.0275
14343TIP3    H264445   5.405   3.830   1.828  0.6545  2.9385  0.6197
14344TIP3   OH264446   1.117   3.798   4.709  0.0957  0.1516  0.4915
14344TIP3    H164447   1.198   3.762   4.674 -0.9319  0.1157 -2.0644
14344TIP3    H264448   1.101   3.876   4.656 -1.3043  0.4257  1.2784
14345TIP3   OH264449   3.406   0.972   1.768  0.2295  0.1588  0.6664
14345TIP3    H164450   3.495   0.984   1.734 -0.6918  0.8784 -1.7515
14345TIP3    H264451   3.371   1.061   1.775 -0.1267 -0.0733  2.2550
14346TIP3   OH264452   0.576   5.065   1.632  0.0289  0.3268  0.1606
14346TIP3    H164453   0.529   5.029   1.708  0.7497 -1.6576 -0.2851
14346TIP3    H264454   0.550   5.009   1.559  2.8141 -0.6823 -0.1562
14347TIP3   OH264455   0.856   5.749  17.290  0.2462 -0.2195  0.4717
14347TIP3    H164456   0.921   5.682  17.273  4.3030  3.4592 -0.1834
14347TIP3    H264457   0.807   5.758  17.208  1.5096 -0.5259 -0.3296
14348TIP3   OH264458   4.375   0.533  11.815 -0.8156 -0.2353 -0.0321
14348TIP3    H164459   4.401   0.594  11.745  0.6692 -1.1243 -0.3143
14348TIP3    H264460   4.402   0.577  11.896  0.0670 -0.3895 -0.2231
14349TIP3   OH264461   1.997   4.217  15.097 -0.7478 -0.0495  0.0063
14349TIP3    H164462   2.012   4.130  15.134  0.6599 -0.4470 -1.3845
14349TIP3    H264463   1.969   4.270  15.171 -1.1186 -1.5525  0.9904
14350TIP3   OH264464   3.979   3.449   5.082  0.2799  0.0751 -0.1104
14350TIP3    H164465   4.058   3.492   5.048  0.0477  0.9724  0.4454
14350TIP3    H264466   4.011   3.387   5.147  0.5777 -0.1233 -0.4422
14351TIP3   OH264467   0.190   5.502  13.162 -0.8156  0.1469 -0.0378
14351TIP3    H164468   0.266   5.470  13.210  1.0422 -1.4592 -3.6375
14351TIP3    H264469   0.115   5.484  13.219  1.1079 -2.0385  1.9811
14352TIP3   OH264470   2.988   0.437  14.834 -0.1240 -0.3765 -0.2461
14352TIP3    H164471   2.893   0.449  14.836 -0.1090 -0.3740  0.5498
14352TIP3    H264472   3.017   0.457  14.923  0.5732 -0.7798 -0.3763
14353TIP3   OH264473   2.591   4.898   3.654  0.1423  0.2436 -0.1462
14353TIP3    H164474   2.519   4.942   3.698 -0.1215 -0.0586 -0.2773
14353TIP3    H264475   2.614   4.955   3.581  0.5193  0.6996  0.3187
14354TIP3   OH264476   6.643   5.110   4.795 -0.9312  0.2624  0.1572
14354TIP3    H164477   6.564   5.100   4.849 -0.1673 -1.4221  1.0192
14354TIP3    H264478   6.671   5.020   4.777  1.2522  0.8294  0.5464
14355TIP3   OH264479   1.436   6.365   0.447  0.1188 -0.0906  0.3153
14355TIP3    H164480   1.340   6.365   0.449 -0.0628 -3.3294 -1.1671
14355TIP3    H264481   1.462   6.337   0.535 -0.2709  0.5925  0.6579
14356TIP3   OH264482   1.072   5.771  16.875 -0.5557  0.1661  0.1972
14356TIP3    H164483   1.071   5.702  16.809 -1.3389 -0.1339  0.5224
14356TIP3    H264484   1.120   5.734  16.949 -0.1726  0.3022  0.0190
14357TIP3   OH264485   1.486   4.171  16.450  0.1324  0.1016 -0.0832
14357TIP3    H164486   1.398   4.160  16.486 -0.0716  0.6565 -0.3873
14357TIP3    H264487   1.481   4.130  16.364  0.0474  0.4875 -0.2656
14358TIP3   OH264488   3.907   2.399  15.391 -0.2562 -0.5664  0.1621
14358TIP3    H164489   3.965   2.448  15.332 -0.3266 -0.5072  0.1425
14358TIP3    H264490   3.966   2.338  15.436 -0.2342 -0.7591 -0.1214
14359TIP3   OH264491   2.804   4.090   0.262 -0.0272  0.2432 -0.0717
14359TIP3    H164492   2.776   4.117   0.175 -1.1666  0.3669  0.3106
14359TIP3    H264493   2.898   4.074   0.254  0.5419  3.1995 -0.6044
14360TIP3   OH264494   2.832   2.025   5.069 -0.3083 -0.6243  0.1467
14360TIP3    H164495   2.825   2.060   4.981  1.3651 -0.5834 -0.0060
14360TIP3    H264496   2.743   1.999   5.093 -1.1660  1.4078 -0.6891
14361TIP3   OH264497   5.722   4.204   5.803 -0.1366 -0.3692 -0.0607
14361TIP3    H164498   5.640   4.202   5.852  0.0608  0.0265  0.2978
14361TIP3    H264499   5.695   4.222   5.712 -0.5783 -2.1347 -0.3052
14362TIP3   OH264500   1.630   6.047   3.085  0.1824 -0.3828 -0.0482
14362TIP3    H164501   1.642   5.952   3.093  0.5859 -0.2050  1.9272
14362TIP3    H264502   1.704   6.084   3.133 -0.0668  0.9473 -0.6587
14363TIP3   OH264503   2.813   2.740   2.455  0.0094  1.0293 -0.4953
14363TIP3    H164504   2.870   2.683   2.507  0.4149  0.5096 -1.4957
14363TIP3    H264505   2.840   2.829   2.479  0.0542  0.7974  0.3267
14364TIP3   OH264506   0.294   3.317   2.485 -0.0751 -0.4689  0.1355
14364TIP3    H164507   0.315   3.361   2.568 -0.7410 -1.8902  1.0928
14364TIP3    H264508   0.364   3.345   2.426  0.2668  0.8039  1.0820
14365TIP3   OH264509   3.240   3.333  11.927 -0.5232  0.8901  0.0396
14365TIP3    H164510   3.225   3.239  11.936  0.0603  0.5654 -1.9199
14365TIP3    H264511   3.330   3.341  11.896 -0.3298  2.1616  0.8261
14366TIP3   OH264512   3.741   6.421   2.781  0.5308  0.0440  0.1709
14366TIP3    H164513   3.725   6.417   2.875  3.4938 -0.0853  0.7685
14366TIP3    H264514   3.669   6.473   2.746 -0.1287  0.9114  2.6529
14367TIP3   OH264515   2.723   3.795  15.847 -0.4405  0.3932  0.0210
14367TIP3    H164516   2.690   3.859  15.909 -2.3339  1.1177 -1.6107
14367TIP3    H264517   2.800   3.835  15.808 -0.8368  1.1346 -0.0185
14368TIP3   OH264518   4.663   2.291   1.625  0.1964  0.0459  0.1317
14368TIP3    H164519   4.572   2.270   1.606  0.4943 -1.5819  0.3579
14368TIP3    H264520   4.683   2.245   1.706  1.8759 -1.7243 -1.1630
14369TIP3   OH264521   5.578   0.025   4.994  0.1761  0.6403  0.1146
14369TIP3    H164522   5.673   0.025   4.977  0.1706 -0.7067 -0.0477
14369TIP3    H264523   5.571  -0.011   5.083 -0.2352 -0.5509 -0.3815
14370TIP3   OH264524   4.613   0.240  14.846  0.0158 -0.3775 -0.1528
14370TIP3    H164525   4.605   0.317  14.902  0.6832 -0.1171 -0.4082
14370TIP3    H264526   4.539   0.184  14.871 -0.2292  0.1551  0.3248
14371TIP3   OH264527   3.896   4.902  12.453  0.1697 -0.8209 -0.3234
14371TIP3    H164528   3.858   4.973  12.403  0.9419 -0.9688 -1.1294
14371TIP3    H264529   3.936   4.844  12.388 -0.0286 -1.7485  0.3462
14372TIP3   OH264530   5.278   6.524  14.860 -0.4692 -0.0868  0.2940
14372TIP3    H164531   5.260   6.518  14.954 -2.5150  0.1661 -0.0287
14372TIP3    H264532   5.244   6.442  14.824  0.4807 -0.2679 -0.2193
14373TIP3   OH264533   1.518   0.509  16.807  0.2170 -0.1992  0.2288
14373TIP3    H164534   1.541   0.521  16.899  0.0484  0.2874  0.2138
14373TIP3    H264535   1.463   0.431  16.806  0.4644 -0.3779  0.4990
14374TIP3   OH264536   1.382   0.993  12.414  0.1709  0.8708 -0.2478
14374TIP3    H164537   1.341   0.908  12.432  0.7469  0.6927  0.2710
14374TIP3    H264538   1.334   1.055  12.470  0.9773  0.5662  0.7993
14375TIP3   OH264539   5.293   3.297   0.125  0.0947  0.2515  0.0313
14375TIP3    H164540   5.253   3.245   0.195  1.9941 -2.5542 -0.8385
14375TIP3    H264541   5.328   3.375   0.170 -0.0328 -0.7499  1.9517
14376TIP3   OH264542   4.327   2.491  15.171 -0.5605  0.6015  0.2996
14376TIP3    H164543   4.250   2.435  15.180 -0.2326 -0.1458 -1.3085
14376TIP3    H264544   4.392   2.452  15.229 -0.3782 -0.6517 -0.7029
14377TIP3   OH264545   3.092   1.865  15.075 -0.0038  0.2237 -1.1319
14377TIP3    H164546   3.033   1.901  15.141  0.1110  0.3583 -1.1008
14377TIP3    H264547   3.037   1.807  15.022  0.0319 -0.3603 -0.5495
14378TIP3   OH264548   5.642   0.240  10.333  0.8784 -0.4573  0.0760
14378TIP3    H164549   5.589   0.161  10.336  1.1189 -0.5979  1.1403
14378TIP3    H264550   5.582   0.310  10.357 -0.4860  0.4453 -4.9136
14379TIP3   OH264551   4.335   0.725   0.273 -0.2776 -0.4606  0.4139
14379TIP3    H164552   4.412   0.781   0.261 -0.6176  0.8175  3.3841
14379TIP3    H264553   4.336   0.667   0.197  1.5310  1.8981 -1.5322
14380TIP3   OH264554   4.953   2.825  17.401  0.3179  0.4659 -0.6636
14380TIP3    H164555   4.933   2.879  17.324 -0.8302 -0.2998 -0.9347
14380TIP3    H264556   4.895   2.857  17.469  1.8165  1.5988  0.1286
14381TIP3   OH264557   1.625   1.968   5.460 -0.0141 -0.0646  0.4494
14381TIP3    H164558   1.643   2.062   5.460  1.1165 -0.2534 -0.5380
14381TIP3    H264559   1.694   1.931   5.406 -1.7527 -1.2154 -1.0939
14382TIP3   OH264560   1.074   1.516  12.414  0.6793  0.0833 -0.0849
14382TIP3    H164561   1.112   1.441  12.459  1.3514  0.2879 -0.2959
14382TIP3    H264562   0.980   1.510  12.431  0.9152  0.1926  1.4098
14383TIP3   OH264563   5.689   4.066  16.179 -0.6970 -0.2040 -0.0164
14383TIP3    H164564   5.657   4.023  16.259 -0.8853  1.0228  0.5891
14383TIP3    H264565   5.777   4.096  16.202 -0.4422 -0.5403 -0.5415
14384TIP3   OH264566   5.009   1.801  17.141  0.0185 -0.2112  0.2053
14384TIP3    H164567   5.068   1.771  17.072 -1.1565  0.8351 -1.3085
14384TIP3    H264568   4.960   1.722  17.166  0.2185 -0.5337 -0.3983
14385TIP3   OH264569   2.352   1.762   5.116 -0.3108 -0.1400  0.2741
14385TIP3    H164570   2.275   1.804   5.156 -1.2210 -0.8948 -0.6370
14385TIP3    H264571   2.355   1.676   5.157 -0.3387 -0.3501 -0.1637
14386TIP3   OH264572   6.703   0.166   2.215  0.0492  0.0384 -0.3762
14386TIP3    H164573   6.692   0.115   2.295 -1.3162  1.2160  0.2259
14386TIP3    H264574   6.685   0.104   2.144 -1.2640 -0.4070  0.3309
14387TIP3   OH264575   0.941   0.112  12.708 -0.2260  0.5602  0.6213
14387TIP3    H164576   0.911   0.192  12.664 -1.2873  0.1410  0.5381
14387TIP3    H264577   0.937   0.134  12.801  0.3688  0.8969  0.5709
14388TIP3   OH264578   1.926   4.331  14.187 -0.2748  0.6482 -0.1013
14388TIP3    H164579   1.937   4.242  14.221  1.4639  1.1890  0.9008
14388TIP3    H264580   1.925   4.320  14.092  1.9011 -0.3265 -0.0697
14389TIP3   OH264581   0.491   1.423  16.984  0.3148  0.3928  0.0322
14389TIP3    H164582   0.415   1.370  16.959  0.8196  0.7088 -2.4647
14389TIP3    H264583   0.455   1.507  17.012 -0.3916 -0.5988  2.2757
14390TIP3   OH264584   3.365   2.560  12.105 -0.7098 -0.5432  0.7558
14390TIP3    H164585   3.438   2.501  12.122  0.9486  0.0531 -3.3329
14390TIP3    H264586   3.291   2.502  12.086  0.0605 -1.2670 -0.0777
14391TIP3   OH264587   5.945   5.465  14.854 -0.2880  0.1062 -0.2950
14391TIP3    H164588   5.908   5.383  14.886  1.0440 -0.2560  0.4217
14391TIP3    H264589   5.948   5.455  14.759  1.6638 -1.5614 -0.1421
14392TIP3   OH264590   0.720   0.761  13.661 -0.4848 -0.0706  0.3426
14392TIP3    H164591   0.702   0.855  13.660  3.0276  0.7776  1.0301
14392TIP3    H264592   0.737   0.739  13.569  0.6643  0.5087  0.3913
14393TIP3   OH264593   3.901   3.186   2.678 -0.7484 -0.5883  0.8084
14393TIP3    H164594   3.981   3.219   2.719  0.2411 -2.9159  0.9422
14393TIP3    H264595   3.913   3.203   2.585 -0.0792 -0.9307  0.8261
14394TIP3   OH264596   6.074   0.535  10.648  0.6460  0.1655 -0.3694
14394TIP3    H164597   6.051   0.515  10.738  2.3297  2.0749  0.5684
14394TIP3    H264598   6.013   0.604  10.622  0.2007 -0.3413 -0.7148
14395TIP3   OH264599   5.331   3.200   1.468 -0.1580  0.3405  0.0262
14395TIP3    H164600   5.369   3.113   1.459  1.8527  1.0225  1.1702
14395TIP3    H264601   5.349   3.243   1.384 -0.2402 -0.0295 -0.1792
14396TIP3   OH264602   0.816   3.653  14.721  0.2003 -0.2738  0.1456
14396TIP3    H164603   0.742   3.708  14.746  0.4210  0.6975 -1.2633
14396TIP3    H264604   0.800   3.631  14.629  1.0630 -1.0458  0.1646
14397TIP3   OH264605   6.450   0.714   5.393 -0.2221  0.6795  0.1172
14397TIP3    H164606   6.441   0.702   5.488  0.6844  0.9657  0.2468
14397TIP3    H264607   6.516   0.651   5.367  0.3008  1.3210 -0.1485
14398TIP3   OH264608   6.300   3.000  16.674  0.1560  0.2844 -0.0418
14398TIP3    H164609   6.325   3.041  16.756 -0.4137 -0.2597  0.4193
14398TIP3    H264610   6.332   2.910  16.682  0.6522  0.3983 -0.6829
14399TIP3   OH264611   6.432   3.845  13.998 -0.0882  0.1845 -0.1514
14399TIP3    H164612   6.345   3.806  14.002 -0.0708  0.0170 -1.0561
14399TIP3    H264613   6.483   3.795  14.061 -0.3447 -0.5595 -0.5174
14400TIP3   OH264614   5.749   0.982   6.232 -0.2842  0.0044  0.0582
14400TIP3    H164615   5.703   1.042   6.291 -0.2156  0.5306 -0.4173
14400TIP3    H264616   5.693   0.904   6.229 -1.8277  1.0885 -1.4834
14401TIP3   OH264617   0.464   3.699   6.039  0.4054  0.0034  0.3515
14401TIP3    H164618   0.454   3.771   6.101  0.8243 -0.6688  1.2144
14401TIP3    H264619   0.438   3.737   5.955 -2.6909  0.2647  1.3010
14402TIP3   OH264620   4.094   5.170  16.213  0.2720  0.5439 -0.0702
14402TIP3    H164621   4.135   5.134  16.291 -0.6900  0.1431  0.2659
14402TIP3    H264622   4.147   5.138  16.141  0.1843 -0.5122  0.3103
14403TIP3   OH264623   1.967   3.760   5.449 -0.2763  0.3940  0.4420
14403TIP3    H164624   1.887   3.810   5.465  0.2021  1.0006  1.0024
14403TIP3    H264625   1.940   3.669   5.455 -0.8143  0.5932  1.2838
14404TIP3   OH264626   0.063   0.012   1.560  0.0224 -0.0771 -0.1350
14404TIP3    H164627  -0.020   0.027   1.516 -0.7960 -0.4296  1.2401
14404TIP3    H264628   0.057  -0.077   1.594  0.5161  0.2624  0.8932
14405TIP3   OH264629   0.492   5.517   2.737  0.0303  0.2674 -0.3558
14405TIP3    H164630   0.485   5.427   2.706 -0.7021  0.0104  0.5067
14405TIP3    H264631   0.578   5.547   2.707  0.5154 -0.9052 -0.1634
14406TIP3   OH264632   5.673   4.978   6.370 -0.1636 -0.4674 -0.2358
14406TIP3    H164633   5.619   4.900   6.383  1.1774 -1.5079 -0.6596
14406TIP3    H264634   5.748   4.947   6.320  0.6834  0.9874  0.0707
14407TIP3   OH264635   0.904   1.501   4.043 -0.8355  0.0635 -0.1346
14407TIP3    H164636   0.943   1.514   3.956 -0.6562 -1.5674 -0.3160
14407TIP3    H264637   0.976   1.519   4.104 -1.2241  2.2216 -0.2439
14408TIP3   OH264638   1.513   6.139  12.463 -0.3948 -0.2010 -0.7582
14408TIP3    H164639   1.436   6.085  12.448  0.0492 -0.6375 -1.5200
14408TIP3    H264640   1.479   6.218  12.506 -1.2321 -0.4836 -0.8846
14409TIP3   OH264641   0.068   3.031  14.397  0.1173  0.2265 -0.3208
14409TIP3    H164642  -0.016   2.988  14.415 -0.5861  1.6041 -0.2508
14409TIP3    H264643   0.062   3.115  14.441  2.5075 -0.5785  1.7914
14410TIP3   OH264644   6.447   4.586  14.694  0.0633  0.0412  0.1409
14410TIP3    H164645   6.454   4.539  14.777  0.3268  0.8122  0.5613
14410TIP3    H264646   6.538   4.605  14.670 -0.0387  0.2440 -0.0830
14411TIP3   OH264647   4.017   3.968   5.826 -0.1724 -0.1288 -0.6503
14411TIP3    H164648   4.016   4.063   5.819 -1.3844 -0.1827 -1.6594
14411TIP3    H264649   3.927   3.942   5.806  0.0378 -1.4639  0.0324
14412TIP3   OH264650   3.096   6.442  15.442 -0.3536  1.1579 -0.2967
14412TIP3    H164651   3.155   6.494  15.389  1.5888 -0.6339 -0.0226
14412TIP3    H264652   3.035   6.402  15.379  0.4369  0.9187 -0.9201
14413TIP3   OH264653   5.193   4.965   3.877 -0.2049 -0.2658 -0.6648
14413TIP3    H164654   5.211   5.057   3.895  0.8441 -0.9539  2.4443
14413TIP3    H264655   5.132   4.939   3.947 -2.2428 -1.4839 -2.7437
14414TIP3   OH264656   5.058   2.570   2.149 -0.1458  0.2018  0.0219
14414TIP3    H164657   5.005   2.648   2.159 -2.4164 -1.1457 -0.8697
14414TIP3    H264658   5.086   2.571   2.057 -0.1523 -0.0064  0.0168
14415TIP3   OH264659   6.219   1.182  15.753 -0.1567  0.0713 -0.2189
14415TIP3    H164660   6.211   1.130  15.833  0.3905 -1.3636 -1.0505
14415TIP3    H264661   6.224   1.117  15.683 -0.4577  1.2901 -1.4114
14416TIP3   OH264662   4.559   2.387   5.524  0.5467  0.5830  0.0706
14416TIP3    H164663   4.616   2.336   5.467 -1.2244  0.4183 -1.6891
14416TIP3    H264664   4.597   2.474   5.525 -0.1036  0.9780 -2.6160
14417TIP3   OH264665   0.187   1.507  12.657  0.3898 -0.3643  0.4318
14417TIP3    H164666   0.229   1.430  12.619 -0.0927  0.1984 -1.3175
14417TIP3    H264667   0.107   1.520  12.606 -0.6042  0.1188  2.0135
14418TIP3   OH264668   0.668   6.037   5.841 -0.1242  0.0727 -0.1003
14418TIP3    H164669   0.718   6.117   5.825  0.6312 -0.5850 -1.1069
14418TIP3    H264670   0.727   5.982   5.893 -0.5466  0.0495  0.3696
14419TIP3   OH264671   1.662   2.419  11.310 -0.2633 -0.1137  0.0226
14419TIP3    H164672   1.706   2.483  11.254 -0.6110  1.4813  1.4984
14419TIP3    H264673   1.568   2.435  11.295 -0.3668 -0.8954 -0.2384
14420TIP3   OH264674   1.543   4.425  17.129 -0.1668  0.3439  0.8049
14420TIP3    H164675   1.614   4.378  17.172 -0.3303  1.8558  2.8623
14420TIP3    H264676   1.568   4.426  17.036  0.2569 -2.9351  0.7665
14421TIP3   OH264677   1.581   2.823  12.512 -0.3281 -0.6920  0.1436
14421TIP3    H164678   1.613   2.752  12.568  0.9212 -0.1073  0.2040
14421TIP3    H264679   1.660   2.872  12.488 -1.1392  0.5283 -0.1061
14422TIP3   OH264680   5.665   3.530  14.824  0.1685  0.6077 -0.5834
14422TIP3    H164681   5.597   3.469  14.795 -2.0598  2.0518  1.2940
14422TIP3    H264682   5.627   3.616  14.811  1.0420  1.4240  1.8746
14423TIP3   OH264683   3.050   6.249  11.794 -0.3289  0.2773 -0.1975
14423TIP3    H164684   3.129   6.293  11.763 -0.3676 -0.9538 -2.2253
14423TIP3    H264685   3.080   6.161  11.819 -1.0836 -0.2842 -1.2319
14424TIP3   OH264686   4.607   6.344  11.627  0.4150  0.0291  0.4698
14424TIP3    H164687   4.624   6.259  11.588 -1.1466 -0.4498  0.7530
14424TIP3    H264688   4.682   6.398  11.602  0.3831 -0.7934 -1.5718
14425TIP3   OH264689   0.014   2.631   0.691 -0.1739  0.9084  0.4352
14425TIP3    H164690   0.040   2.540   0.682  0.3977  0.9622  1.4290
14425TIP3    H264691   0.033   2.671   0.606 -2.1284 -0.2899 -0.6329
14426TIP3   OH264692   1.998   6.232  13.368 -0.1297 -0.4650 -0.1146
14426TIP3    H164693   2.052   6.237  13.447  0.0458 -1.1541 -0.1858
14426TIP3    H264694   2.027   6.152  13.324  3.0379  2.0412 -3.2537
14427TIP3   OH264695   3.607   0.999  16.762  0.9457  0.4318  0.4635
14427TIP3    H164696   3.517   0.970  16.776  1.2670 -0.4298  0.7964
14427TIP3    H264697   3.599   1.091  16.738  0.0509  0.6923  1.6968
14428TIP3   OH264698   4.535   1.917   5.155 -0.0388 -0.2484  0.2117
14428TIP3    H164699   4.519   1.862   5.078 -0.4422  1.2593 -0.8244
14428TIP3    H264700   4.509   1.862   5.229  0.1027 -1.6414 -0.7212
14429TIP3   OH264701   2.743   1.876   4.744 -0.6062 -0.1938 -0.0264
14429TIP3    H164702   2.799   1.801   4.767 -1.2692 -0.3448  1.1858
14429TIP3    H264703   2.722   1.862   4.652  1.5293  0.0022 -0.5988
14430TIP3   OH264704   2.977   1.112  13.530 -0.5363  0.2756 -0.2875
14430TIP3    H164705   2.920   1.135  13.604 -0.1383 -4.1563  1.7047
14430TIP3    H264706   3.057   1.162  13.546 -0.9130  0.3654  1.5932
14431TIP3   OH264707   0.287   4.351   1.496  0.0768 -0.1429 -0.3951
14431TIP3    H164708   0.326   4.436   1.478 -1.6822  0.7775 -0.0565
14431TIP3    H264709   0.207   4.350   1.444 -0.0672 -1.5017 -0.1937
14432TIP3   OH264710   4.304   2.097  14.464  0.3159 -0.1834  0.2027
14432TIP3    H164711   4.264   2.132  14.544 -0.9716 -0.4375 -0.3067
14432TIP3    H264712   4.331   2.008  14.488  1.7011  0.4028  0.8958
14433TIP3   OH264713   3.537   6.380   3.575  0.6426  0.0757  0.3301
14433TIP3    H164714   3.583   6.296   3.582 -0.1479 -0.3333  0.8261
14433TIP3    H264715   3.565   6.430   3.652 -0.3229 -0.4844  1.0719
14434TIP3   OH264716   0.878   1.024   2.679 -0.5951 -0.5691  0.1833
14434TIP3    H164717   0.923   0.943   2.656 -3.5326 -2.1828 -0.3506
14434TIP3    H264718   0.879   1.076   2.599 -1.9089 -1.7357 -0.6214
14435TIP3   OH264719   1.750   3.232   0.798  0.2442  0.0445 -0.1275
14435TIP3    H164720   1.734   3.162   0.860  0.5613 -0.0044 -0.1001
14435TIP3    H264721   1.820   3.284   0.837  1.0817 -0.5152 -0.8657
14436TIP3   OH264722   4.064   5.834   1.517  0.2984  0.5344  0.0614
14436TIP3    H164723   4.097   5.923   1.501 -1.1310  1.6432  2.7140
14436TIP3    H264724   3.988   5.825   1.458  1.3183  0.4283 -1.3002
14437TIP3   OH264725   0.051   1.448  15.618  0.0016  0.1082  0.2437
14437TIP3    H164726  -0.010   1.522  15.624 -1.4121 -1.1170  2.0427
14437TIP3    H264727  -0.000   1.379  15.575  0.6016 -0.4895  0.4737
14438TIP3   OH264728   0.686   4.456   1.470  0.1642  0.3042 -0.3105
14438TIP3    H164729   0.732   4.510   1.534  0.9022  0.8332 -1.2517
14438TIP3    H264730   0.593   4.470   1.488  0.3577  1.0029  0.1730
14439TIP3   OH264731   1.006   3.353   0.613 -0.5839 -0.3217  0.2585
14439TIP3    H164732   1.079   3.297   0.640 -0.3424  0.4727  1.3281
14439TIP3    H264733   1.043   3.412   0.548 -0.1943  0.2121  0.9419
14440TIP3   OH264734   2.153   5.365  15.280 -0.2594  0.2750  0.2437
14440TIP3    H164735   2.113   5.331  15.200 -0.5625 -1.1724  0.9874
14440TIP3    H264736   2.170   5.288  15.334 -1.4285  1.3262  2.2290
14441TIP3   OH264737   3.144   5.743  13.175 -0.6632  0.2187  0.0708
14441TIP3    H164738   3.137   5.671  13.113  1.1521 -0.7172  0.8901
14441TIP3    H264739   3.224   5.789  13.149  0.7505 -0.8379  2.2990
14442TIP3   OH264740   0.187   4.791  14.642 -0.0633  0.2963 -0.4423
14442TIP3    H164741   0.179   4.876  14.599  1.7243  1.0685  0.6429
14442TIP3    H264742   0.179   4.810  14.735  1.2926 -0.5582 -0.1214
14443TIP3   OH264743   6.530   1.335  15.779 -0.3199 -0.4235  0.2887
14443TIP3    H164744   6.608   1.293  15.815 -0.3934  0.0282  0.9872
14443TIP3    H264745   6.559   1.423  15.755 -0.3553 -0.6057 -0.4615
14444TIP3   OH264746   5.384   3.540   3.462  0.1796 -0.0509 -0.2569
14444TIP3    H164747   5.448   3.576   3.402  0.3914 -1.3582 -0.8573
14444TIP3    H264748   5.432   3.474   3.513 -0.4372 -0.3004  0.0216
14445TIP3   OH264749   3.266   1.947  11.568 -0.1060  0.2830  0.2160
14445TIP3    H164750   3.253   2.040  11.589 -1.7352  0.7986 -2.6283
14445TIP3    H264751   3.261   1.943  11.473 -0.2213 -2.7770  0.2648
14446TIP3   OH264752   1.467   3.386   0.468  0.3245 -0.0460  0.2094
14446TIP3    H164753   1.504   3.452   0.409  0.6469  0.5019  1.0167
14446TIP3    H264754   1.392   3.350   0.420  1.1171 -0.2621 -0.9174
14447TIP3   OH264755   1.675   3.335   2.226 -0.4522 -0.3382 -0.3964
14447TIP3    H164756   1.759   3.329   2.182 -0.4331 -0.9359 -0.2895
14447TIP3    H264757   1.682   3.411   2.283 -0.1539 -0.1095 -0.7363
14448TIP3   OH264758   5.285   2.448   3.876 -0.4148 -0.3285 -0.0177
14448TIP3    H164759   5.353   2.504   3.838  0.7418 -1.6097  0.0627
14448TIP3    H264760   5.321   2.421   3.961 -2.4288  1.4992  1.5265
14449TIP3   OH264761   1.429   6.333  16.213  0.2399 -0.1005  0.2024
14449TIP3    H164762   1.375   6.365  16.285  0.4984 -0.6113  0.6322
14449TIP3    H264763   1.377   6.264  16.172  0.8740 -1.1769  1.1371
14450TIP3   OH264764   2.443   4.230  11.224 -0.3494  0.0846 -0.8237
14450TIP3    H164765   2.368   4.281  11.191  0.3535  1.2269 -0.7034
14450TIP3    H264766   2.515   4.254  11.166  0.0469 -0.6552 -0.6509
14451TIP3   OH264767   6.380   5.420   5.599  0.5128 -0.7591  0.0475
14451TIP3    H164768   6.371   5.487   5.666  1.4169 -0.4782 -0.0950
14451TIP3    H264769   6.301   5.367   5.607 -0.7603  0.9394 -0.5377
14452TIP3   OH264770   3.775   0.472  13.294 -0.0601  0.1353  0.3051
14452TIP3    H164771   3.828   0.474  13.374  1.2053  1.1089 -0.5132
14452TIP3    H264772   3.824   0.526  13.232 -0.1211 -1.9704 -1.6896
14453TIP3   OH264773   6.731   3.052  13.396  0.4219 -0.1975  0.1560
14453TIP3    H164774   6.745   2.996  13.472 -2.4767 -2.4087 -0.7486
14453TIP3    H264775   6.747   2.995  13.321 -1.1595  0.5437 -0.8059
14454TIP3   OH264776   1.893   6.268   6.232  0.2567 -0.6166  0.2804
14454TIP3    H164777   1.865   6.322   6.158 -0.5936  0.5304  1.3982
14454TIP3    H264778   1.832   6.290   6.303  1.4690 -1.1470  1.5369
14455TIP3   OH264779   1.117   6.707  13.689  0.1066 -0.5569  0.2826
14455TIP3    H164780   1.207   6.731  13.669  0.3737 -0.7794  1.1921
14455TIP3    H264781   1.066   6.746  13.618  0.8771 -0.1551 -0.0648
14456TIP3   OH264782   0.196   2.014  13.231  0.6440 -0.1633 -0.0720
14456TIP3    H164783   0.171   2.054  13.148  0.9136  0.0218 -0.0646
14456TIP3    H264784   0.188   1.920  13.216  1.4023 -0.1575 -0.5379
14457TIP3   OH264785   6.447   2.738  13.049  0.3608  0.1890 -0.1961
14457TIP3    H164786   6.453   2.672  12.979  0.5621  0.2985 -0.2820
14457TIP3    H264787   6.472   2.691  13.128 -0.5264 -0.1161 -0.0808
14458TIP3   OH264788   0.688   3.381  10.855  0.4063  0.0355 -0.3260
14458TIP3    H164789   0.602   3.421  10.850 -0.2456 -1.1756  0.7726
14458TIP3    H264790   0.743   3.435  10.797 -1.3532  0.0556 -2.0575
14459TIP3   OH264791   3.012   2.553  13.706  0.1309 -0.4990 -0.5538
14459TIP3    H164792   3.058   2.578  13.787  0.0376  0.2654 -0.7313
14459TIP3    H264793   2.969   2.471  13.728  1.6981 -1.3185 -0.4225
14460TIP3   OH264794   0.685   6.023   1.474 -0.1082 -0.0192 -0.1751
14460TIP3    H164795   0.739   6.092   1.513 -1.4325  1.0663 -0.1831
14460TIP3    H264796   0.597   6.060   1.472 -0.8078 -1.6213 -0.4538
14461TIP3   OH264797   0.007   0.060  12.834 -0.4652  0.5035 -0.0600
14461TIP3    H164798   0.033   0.071  12.743 -1.3196  1.8232 -0.1795
14461TIP3    H264799   0.088   0.039  12.880 -0.0111 -0.1009 -1.0922
14462TIP3   OH264800   1.556   3.341  14.319  0.3145  0.6296  0.3691
14462TIP3    H164801   1.638   3.373  14.282  0.7954  1.3703  1.9766
14462TIP3    H264802   1.582   3.288  14.393 -0.6306 -0.4840 -0.0666
14463TIP3   OH264803   0.912   0.309  11.350  0.7930 -0.2489 -0.4106
14463TIP3    H164804   0.953   0.258  11.280  1.3376  0.0761 -0.3294
14463TIP3    H264805   0.902   0.246  11.422  1.1923 -0.3216 -0.4143
14464TIP3   OH264806   1.408   0.948   3.043 -0.1469  0.1189  0.6539
14464TIP3    H164807   1.495   0.925   3.009  0.5507 -0.3461  2.5633
14464TIP3    H264808   1.389   1.034   3.006  0.7632 -0.1420 -0.4578
14465TIP3   OH264809   0.210   3.358   3.440  0.2742  0.2564  0.4979
14465TIP3    H164810   0.211   3.453   3.427  1.5187  0.2170  0.1940
14465TIP3    H264811   0.278   3.324   3.382 -0.0982 -0.8216  0.6558
14466TIP3   OH264812   6.066   5.481  15.937 -0.1842 -0.2672 -0.4980
14466TIP3    H164813   6.122   5.404  15.927  1.0623  0.2456  1.7099
14466TIP3    H264814   5.980   5.446  15.959  0.3341 -1.0740  0.3281
14467TIP3   OH264815   3.356   3.307   5.667  0.5980  0.4940  0.1815
14467TIP3    H164816   3.391   3.243   5.728 -0.0994 -0.1048 -0.0345
14467TIP3    H264817   3.309   3.370   5.722 -0.8552 -0.5735  0.2143
14468TIP3   OH264818   5.717   5.020  16.731 -0.0553 -0.3025 -0.0446
14468TIP3    H164819   5.800   5.041  16.687 -0.5567  1.8663 -0.0549
14468TIP3    H264820   5.725   5.059  16.818 -0.9221 -0.4195  0.0952
14469TIP3   OH264821   3.256   5.990  15.551 -0.2131  0.2800 -0.2675
14469TIP3    H164822   3.183   6.005  15.491 -0.5459  0.3833  0.1593
14469TIP3    H264823   3.261   6.070  15.603  0.6419  0.5560 -0.7448
14470TIP3   OH264824   1.123   0.436   3.455 -0.1899 -0.6184 -0.3298
14470TIP3    H164825   1.115   0.341   3.460 -0.9556 -0.6498 -1.6776
14470TIP3    H264826   1.057   0.469   3.517 -0.5126 -0.9545 -0.4937
14471TIP3   OH264827   4.378   5.699  12.107 -0.6063 -0.2931 -0.2810
14471TIP3    H164828   4.456   5.727  12.061  2.0812 -3.1457  2.0671
14471TIP3    H264829   4.355   5.773  12.163  0.3444  0.6358 -1.0791
14472TIP3   OH264830   3.528   2.742  15.457 -0.2640  0.3204  0.0015
14472TIP3    H164831   3.551   2.765  15.367 -1.1494  1.4039  0.0275
14472TIP3    H264832   3.588   2.794  15.510 -1.2654  1.4887  0.0408
14473TIP3   OH264833   6.351   2.480  12.117 -0.6055 -0.1371 -0.3188
14473TIP3    H164834   6.265   2.523  12.114 -0.8250 -0.6065 -0.8084
14473TIP3    H264835   6.406   2.535  12.062  0.0144  1.4347  1.7190
14474TIP3   OH264836   1.536   3.486  16.158 -0.4028  0.3528  0.4401
14474TIP3    H164837   1.481   3.431  16.102  0.2922  0.9792 -0.9077
14474TIP3    H264838   1.623   3.446  16.154 -0.5219 -0.0585  1.7474
14475TIP3   OH264839   2.384   5.697  11.366  0.1809 -0.0940 -0.6431
14475TIP3    H164840   2.305   5.728  11.321 -1.3865 -1.5323  0.9723
14475TIP3    H264841   2.444   5.772  11.362 -0.3937  0.3314 -3.7503
14476TIP3   OH264842   1.770   1.664   2.377  0.3341  0.3009 -0.1256
14476TIP3    H164843   1.853   1.704   2.404 -0.2760  1.6449 -0.1584
14476TIP3    H264844   1.795   1.603   2.308  1.1077  2.2452 -1.6817
14477TIP3   OH264845   4.527   1.440  15.268 -0.0471  0.3632 -0.6362
14477TIP3    H164846   4.611   1.438  15.315  0.2443  0.5761 -1.1389
14477TIP3    H264847   4.484   1.358  15.293  0.0741  0.4981  0.0443
14478TIP3   OH264848   5.962   0.914   4.418  0.1880 -0.5782 -0.8382
14478TIP3    H164849   5.951   0.838   4.475 -0.5573 -0.3101 -0.6130
14478TIP3    H264850   5.874   0.930   4.383 -0.0090  1.1160  0.3084
14479TIP3   OH264851   3.201   2.259   2.307  0.5974  0.1703 -0.4918
14479TIP3    H164852   3.154   2.176   2.299 -1.0819  0.6313  2.8971
14479TIP3    H264853   3.286   2.235   2.344  0.1911 -0.0902  0.2936
14480TIP3   OH264854   0.856   1.097   2.056 -0.2486  0.6704  0.7537
14480TIP3    H164855   0.915   1.021   2.050  1.5343  1.8501  2.2459
14480TIP3    H264856   0.800   1.090   1.978 -0.3359 -2.2939  0.9744
14481TIP3   OH264857   1.655   5.216   5.291 -0.0765 -0.4797  0.2197
14481TIP3    H164858   1.687   5.205   5.201  1.1388 -1.8622  0.7939
14481TIP3    H264859   1.666   5.131   5.332  0.5300  0.4134  2.0399
14482TIP3   OH264860   6.686   1.901   4.703 -0.2464 -0.5503 -0.2953
14482TIP3    H164861   6.672   1.846   4.779 -1.0758 -1.5039 -1.1014
14482TIP3    H264862   6.625   1.867   4.637 -0.4566  1.0318 -0.9802
14483TIP3   OH264863   1.650   1.741  14.687  0.1326 -0.1684  0.3937
14483TIP3    H164864   1.669   1.832  14.662  2.2281 -0.7645 -0.3776
14483TIP3    H264865   1.611   1.749  14.775  0.6487  1.4609  0.5197
14484TIP3   OH264866   4.756   5.212  12.010  0.1960 -0.5886 -0.2264
14484TIP3    H164867   4.774   5.129  12.054  0.5335 -0.9929 -1.1158
14484TIP3    H264868   4.702   5.189  11.935  0.4038 -0.0146 -0.5579
14485TIP3   OH264869   4.806   6.232   5.505 -0.1235  0.2366 -0.5721
14485TIP3    H164870   4.828   6.146   5.469  2.4281  0.4889  0.2018
14485TIP3    H264871   4.789   6.215   5.598  1.5565  0.6660 -0.1520
14486TIP3   OH264872   4.360   3.609  11.789  0.1530  0.5674  0.2474
14486TIP3    H164873   4.400   3.696  11.784 -0.6164  0.9278  0.2432
14486TIP3    H264874   4.332   3.590  11.700  3.1856 -1.1071 -0.4823
14487TIP3   OH264875   0.492   1.766   2.194  0.2055  0.5875 -0.7302
14487TIP3    H164876   0.488   1.789   2.101 -0.2397 -0.0324 -0.8771
14487TIP3    H264877   0.582   1.783   2.219  1.2900 -2.2787 -2.1365
14488TIP3   OH264878   6.324   3.422  14.078 -0.4761  0.2628 -0.5500
14488TIP3    H164879   6.262   3.351  14.062 -0.9491  0.7474 -0.9031
14488TIP3    H264880   6.284   3.475  14.147 -0.3201  0.4117 -0.5714
14489TIP3   OH264881   6.150   1.430  13.997  0.3011 -0.6289  0.1701
14489TIP3    H164882   6.162   1.336  14.012  3.0268 -0.1725  1.4388
14489TIP3    H264883   6.173   1.442  13.904 -0.2736 -1.2213 -0.0590
14490TIP3   OH264884   4.802   4.018  16.957  0.1523 -0.2911 -0.0307
14490TIP3    H164885   4.863   3.952  16.989 -0.2899 -0.2497  0.9557
14490TIP3    H264886   4.723   3.970  16.935 -0.2685 -0.0792  0.9561
14491TIP3   OH264887   3.047   0.672  15.566 -0.3350 -0.4842 -0.3781
14491TIP3    H164888   3.044   0.675  15.662 -0.1755 -1.4071 -0.3409
14491TIP3    H264889   3.139   0.689  15.545 -0.2491 -0.9126 -0.3440
14492TIP3   OH264890   0.265   6.094   5.390  0.8445  0.2693  0.0683
14492TIP3    H164891   0.321   6.127   5.460  0.5620  0.8774  0.0115
14492TIP3    H264892   0.282   5.999   5.389  1.2844  0.3354  0.5658
14493TIP3   OH264893   2.260   3.375  15.784 -0.4762  1.0884 -0.6612
14493TIP3    H164894   2.328   3.435  15.815 -0.4810  0.5918  0.3718
14493TIP3    H264895   2.230   3.330  15.864 -1.3119  0.5860 -1.2428
14494TIP3   OH264896   5.848   2.428   3.950  0.3902  0.4097 -0.0292
14494TIP3    H164897   5.846   2.357   3.885  1.2684  0.9160 -0.6193
14494TIP3    H264898   5.858   2.383   4.034 -0.4953 -0.2373 -0.2437
14495TIP3   OH264899   2.268   5.991  12.143 -0.2913 -0.5946 -0.0906
14495TIP3    H164900   2.213   5.933  12.195  0.5283 -1.7485 -0.4630
14495TIP3    H264901   2.330   5.933  12.099 -0.8675  0.3388 -2.2957
14496TIP3   OH264902   2.444   3.608   2.435 -0.1437 -0.1120  0.2157
14496TIP3    H164903   2.488   3.527   2.412 -2.8985 -0.6950 -4.1787
14496TIP3    H264904   2.505   3.677   2.410  0.9301 -0.7971  0.8731
14497TIP3   OH264905   6.378   5.947  15.790  0.7079 -0.1910 -0.5502
14497TIP3    H164906   6.394   5.901  15.872  1.5341  1.9300  0.5261
14497TIP3    H264907   6.306   5.898  15.749  0.3500 -1.3467  1.3551
14498TIP3   OH264908   0.529   3.014  13.968 -0.6026  0.0438 -0.4588
14498TIP3    H164909   0.464   2.952  14.001  0.6735 -0.5495  1.0763
14498TIP3    H264910   0.570   3.051  14.046  0.0274  1.3574 -1.3705
14499TIP3   OH264911   4.419   0.107  16.781 -0.0530 -0.0580  0.5837
14499TIP3    H164912   4.456   0.171  16.720 -0.8192 -0.0645  0.0918
14499TIP3    H264913   4.419   0.025  16.732 -0.1498 -0.1844  0.7951
14500TIP3   OH264914   4.917   6.179   3.002  0.1860 -0.3501 -0.0602
14500TIP3    H164915   4.992   6.181   2.941 -0.2148  0.1481 -0.5557
14500TIP3    H264916   4.945   6.233   3.076  0.0077  0.5578 -0.6366
14501TIP3   OH264917   2.390   6.268   0.060  0.3257 -0.0798 -0.2902
14501TIP3    H164918   2.344   6.199   0.108  0.0882  0.8334  0.8420
14501TIP3    H264919   2.483   6.252   0.078  0.1894  1.1190  1.7827
14502TIP3   OH264920   3.818   1.445   5.936  1.2196  0.0021  0.2927
14502TIP3    H164921   3.846   1.494   6.013  1.0772 -0.7010  0.8010
14502TIP3    H264922   3.856   1.493   5.862  0.9053  1.0011  0.7522
14503TIP3   OH264923   6.048   0.513  16.133 -0.1661  0.0655 -0.5914
14503TIP3    H164924   5.997   0.524  16.214  1.9437 -1.2147  1.0291
14503TIP3    H264925   6.014   0.432  16.094 -0.7385  0.3253 -0.6438
14504TIP3   OH264926   6.738   1.551   1.773  0.1887  0.1481 -0.1421
14504TIP3    H164927   6.793   1.629   1.768 -0.2524  0.3921 -2.4159
14504TIP3    H264928   6.721   1.528   1.682 -1.6672 -1.2120  0.4809
14505TIP3   OH264929   1.683   6.074  14.046  0.3753  0.1190 -0.2774
14505TIP3    H164930   1.740   6.141  14.085  0.9825 -1.6166  1.9985
14505TIP3    H264931   1.743   6.007  14.015 -0.3390 -1.0607  0.8265
14506TIP3   OH264932   5.640   2.846  13.397 -0.6459 -0.0845  0.5448
14506TIP3    H164933   5.635   2.898  13.477  0.4133 -1.8484  1.8153
14506TIP3    H264934   5.575   2.777  13.408 -1.1698  0.2131 -0.5652
14507TIP3   OH264935   5.343   0.814  11.866 -0.1921 -0.1132 -0.3745
14507TIP3    H164936   5.399   0.764  11.807  0.2378  0.5396 -0.5302
14507TIP3    H264937   5.345   0.904  11.831 -0.0880  0.2391  0.5188
14508TIP3   OH264938   6.000   3.366   2.843 -0.0636 -0.4481 -0.0508
14508TIP3    H164939   5.952   3.284   2.849 -0.3357 -0.1924  2.0465
14508TIP3    H264940   6.056   3.356   2.766 -0.8525 -2.1630 -0.4487
14509TIP3   OH264941   5.848   0.770   3.095 -0.5260 -0.3331  0.1996
14509TIP3    H164942   5.924   0.712   3.091 -1.5704 -1.6577 -1.2111
14509TIP3    H264943   5.884   0.853   3.126  0.6544 -2.2679  4.8833
14510TIP3   OH264944   5.486   2.435   1.873  0.8886 -0.5111  0.0024
14510TIP3    H164945   5.445   2.521   1.866 -0.2375 -0.9176  1.2148
14510TIP3    H264946   5.570   2.451   1.917  0.1820 -0.1501  1.2645
14511TIP3   OH264947   2.625   2.304   4.854  0.1914  0.2653  0.1907
14511TIP3    H164948   2.708   2.272   4.819  0.4407 -1.8301  2.4526
14511TIP3    H264949   2.558   2.246   4.816  0.0200  0.4853  0.1533
14512TIP3   OH264950   3.020   0.089   1.451  0.1876 -0.4198 -0.0658
14512TIP3    H164951   3.050   0.168   1.496 -0.3438  0.0466 -0.5053
14512TIP3    H264952   2.934   0.072   1.487  0.8422 -1.5936  0.9927
14513TIP3   OH264953   5.645   3.024  12.679 -0.5388 -0.3935  0.1364
14513TIP3    H164954   5.669   3.111  12.710 -0.5313 -0.5784  0.6505
14513TIP3    H264955   5.553   3.033  12.652 -0.3269 -0.0497 -0.4910
14514TIP3   OH264956   1.109   5.838   1.854  0.1528  0.0824 -0.4324
14514TIP3    H164957   1.060   5.758   1.871 -1.5474  1.3254  0.8402
14514TIP3    H264958   1.043   5.905   1.836  1.4884  1.3242 -1.0300
14515TIP3   OH264959   2.082   2.191   5.624 -0.1913 -0.1133 -0.2648
14515TIP3    H164960   2.051   2.257   5.561  0.9209 -0.7021 -1.4749
14515TIP3    H264961   2.172   2.218   5.644 -0.2597 -0.3977  0.4327
14516TIP3   OH264962   2.334   5.632   4.113 -0.3592 -0.2383 -0.5971
14516TIP3    H164963   2.291   5.694   4.172 -0.7130 -0.4104 -0.6690
14516TIP3    H264964   2.417   5.673   4.090 -0.0176 -0.3701  0.3792
14517TIP3   OH264965   3.205   4.619  13.496  0.3947 -0.2383  0.6300
14517TIP3    H164966   3.149   4.565  13.440  4.1030 -2.6186 -1.1992
14517TIP3    H264967   3.190   4.708  13.465 -1.1186 -0.9579 -0.9385
14518TIP3   OH264968   1.374   5.983   5.558  0.2237  0.5910 -0.1926
14518TIP3    H164969   1.380   5.908   5.618 -1.5540  1.5300  1.2559
14518TIP3    H264970   1.327   5.948   5.482  0.6672 -0.1101 -0.1543
14519TIP3   OH264971   1.066   0.621   4.094 -0.3938 -0.2348  0.2523
14519TIP3    H164972   1.062   0.717   4.090 -0.2394 -0.2608 -0.8426
14519TIP3    H264973   0.976   0.593   4.080 -0.3851 -0.2471  0.2183
14520TIP3   OH264974   1.465   4.404  16.233 -0.2386  0.0419 -0.0525
14520TIP3    H164975   1.501   4.385  16.320 -1.0726  1.4954  0.6457
14520TIP3    H264976   1.439   4.319  16.198 -3.1457 -0.3270  2.5885
14521TIP3   OH264977   5.205   0.542   5.060  0.1594 -0.1598  0.5063
14521TIP3    H164978   5.175   0.458   5.094  0.5381 -1.1672 -1.4953
14521TIP3    H264979   5.251   0.520   4.979  2.8106  1.6855  1.3558
14522TIP3   OH264980   2.467   5.368   5.376 -0.6132 -0.0839 -0.4370
14522TIP3    H164981   2.430   5.329   5.455 -0.2826 -0.7874 -0.6244
14522TIP3    H264982   2.559   5.343   5.377 -0.0609  1.8709  0.1505
14523TIP3   OH264983   1.499   4.456  15.408  0.3913 -0.6415 -0.2050
14523TIP3    H164984   1.433   4.502  15.357  0.3037 -0.4104  0.1141
14523TIP3    H264985   1.536   4.523  15.466  0.5275 -0.8872 -0.0030
14524TIP3   OH264986   4.679   0.393  11.707 -0.1983 -0.3376  0.2347
14524TIP3    H164987   4.655   0.451  11.779  0.9168  0.9511 -0.3943
14524TIP3    H264988   4.676   0.448  11.629  1.4424 -0.9603 -0.3055
14525TIP3   OH264989   1.180   3.463  11.473  0.2556 -0.3024  0.4846
14525TIP3    H164990   1.089   3.470  11.500  0.1199 -1.8976  0.5198
14525TIP3    H264991   1.177   3.429  11.384  0.8109 -0.7464  0.6236
14526TIP3   OH264992   1.253   3.174  11.489 -0.6272 -0.2864 -0.1320
14526TIP3    H164993   1.210   3.220  11.416  1.7380  0.5554 -1.0988
14526TIP3    H264994   1.321   3.235  11.518  1.5695 -2.5148 -0.3691
14527TIP3   OH264995   2.546   1.852  16.379  0.1478 -0.0263  0.4813
14527TIP3    H164996   2.522   1.934  16.422  2.1979  0.7429  0.2401
14527TIP3    H264997   2.566   1.877  16.289 -0.0867 -0.9509  0.1651
14528TIP3   OH264998   6.349   0.581   5.607 -0.1521 -0.2332 -0.0928
14528TIP3    H164999   6.400   0.643   5.660 -0.1272 -0.8527  0.6177
14528TIP3    H265000   6.358   0.498   5.652 -1.5407 -0.4235 -0.1394
14529TIP3   OH265001   0.434   5.024   1.862  0.0667  0.6066  0.3637
14529TIP3    H165002   0.455   4.989   1.949  0.4930 -0.9211 -0.3224
14529TIP3    H265003   0.358   4.974   1.833 -0.1352  1.1744 -0.1167
14530TIP3   OH265004   5.382   1.089   3.920 -0.2245 -0.0853  0.1853
14530TIP3    H165005   5.473   1.062   3.907 -0.4024  0.0624 -1.6047
14530TIP3    H265006   5.372   1.167   3.866 -1.2317  0.3320  0.9415
14531TIP3   OH265007   3.213   4.152   1.916  0.5861  0.3500 -0.5312
14531TIP3    H165008   3.139   4.180   1.861 -1.0711 -1.7819  0.4732
14531TIP3    H265009   3.215   4.057   1.907  2.7397  0.2857  0.1138
14532TIP3   OH265010   5.349   0.125  16.473 -0.7623 -0.0854 -0.7632
14532TIP3    H165011   5.267   0.086  16.503 -0.3540 -0.1060  0.3816
14532TIP3    H265012   5.370   0.078  16.393 -1.6886 -0.3204 -0.8800
14533TIP3   OH265013   4.706   3.513  16.889 -0.4835  0.3135  0.5187
14533TIP3    H165014   4.733   3.542  16.977  0.2487 -0.8566  0.7142
14533TIP3    H265015   4.613   3.535  16.884 -0.2623  1.5048  1.1105
14534TIP3   OH265016   6.019   1.918   5.918  0.5776 -0.3075 -0.3501
14534TIP3    H165017   6.113   1.920   5.934  0.4241 -0.0525  0.5882
14534TIP3    H265018   5.991   1.832   5.950 -0.0531  0.9543  2.9162
14535TIP3   OH265019   0.154   2.518  15.184 -0.0758 -0.3751  0.0752
14535TIP3    H165020   0.063   2.541  15.197 -0.4737 -1.3491 -0.8231
14535TIP3    H265021   0.183   2.483  15.268 -1.1399 -1.9641 -0.1787
14536TIP3   OH265022   6.587   1.946   0.349  0.0520  0.8265  0.3137
14536TIP3    H165023   6.645   1.914   0.280  1.5531  2.4268  0.7780
14536TIP3    H265024   6.646   1.978   0.417 -1.3971  1.6138  1.2458
14537TIP3   OH265025   0.501   6.610  16.435  0.0330  0.3752 -0.1268
14537TIP3    H165026   0.492   6.569  16.349 -1.8098  1.1583 -0.3576
14537TIP3    H265027   0.460   6.696  16.424  0.3612  0.7436  1.3649
14538TIP3   OH265028   4.381   3.350   3.787  0.2854 -0.1303 -0.4438
14538TIP3    H165029   4.359   3.271   3.738  1.6052 -0.5648 -0.3918
14538TIP3    H265030   4.446   3.395   3.732 -0.3991  0.8938 -0.4441
14539TIP3   OH265031   4.800   3.635  17.147  0.5654  0.1274  0.2355
14539TIP3    H165032   4.855   3.704  17.110  1.2629  0.6890  2.2129
14539TIP3    H265033   4.862   3.574  17.187 -0.1698 -0.2765  0.7722
14540TIP3   OH265034   2.534   0.767  12.641  0.5877 -1.0528  0.5728
14540TIP3    H165035   2.629   0.772  12.653  0.3466  1.2033  2.0880
14540TIP3    H265036   2.521   0.687  12.589  3.3871 -0.8266 -0.6894
14541TIP3   OH265037   1.032   1.182  13.036  0.4240 -0.3034  0.1387
14541TIP3    H165038   1.126   1.183  13.021  0.2533 -1.3506 -1.2418
14541TIP3    H265039   0.999   1.258  12.987  0.6500  0.8020  1.6443
14542TIP3   OH265040   3.353   4.545   1.820 -0.1211  0.3317  0.4224
14542TIP3    H165041   3.276   4.568   1.767  1.2115  0.5997 -1.5208
14542TIP3    H265042   3.369   4.453   1.799 -0.0258  0.2235  0.9728
14543TIP3   OH265043   6.107   6.203   3.126 -0.3721  0.3677  0.3912
14543TIP3    H165044   6.113   6.126   3.183  0.2782 -0.4738 -0.7597
14543TIP3    H265045   6.023   6.192   3.081  1.6599 -2.3708 -3.3164
14544TIP3   OH265046   5.908   4.303  15.985  0.5643 -0.5344  0.1239
14544TIP3    H165047   5.841   4.326  16.049  0.5557  0.0187 -0.0797
14544TIP3    H265048   5.975   4.255  16.035  1.2983  1.1883  0.8535
14545TIP3   OH265049   2.916   2.698   4.623 -0.5385 -0.1850 -0.1135
14545TIP3    H165050   2.851   2.653   4.570  0.0203  0.4885 -1.3930
14545TIP3    H265051   2.999   2.685   4.576  0.3003 -1.0736  1.5033
14546TIP3   OH265052   0.448   2.802   0.723 -0.6254  0.2493 -0.4968
14546TIP3    H165053   0.423   2.825   0.812  0.4584  2.7436 -0.7696
14546TIP3    H265054   0.448   2.706   0.723 -0.7970  0.1650  2.1190
14547TIP3   OH265055   5.316   6.015   4.589  0.1000  0.8443 -0.3869
14547TIP3    H165056   5.362   6.071   4.652 -1.7305 -0.0698  1.8895
14547TIP3    H265057   5.339   5.926   4.615 -1.7121  0.4210 -0.1213
14548TIP3   OH265058   6.429   0.947  17.248 -0.1971 -0.2556  0.3339
14548TIP3    H165059   6.467   0.895  17.177  1.1372  0.6636  0.3334
14548TIP3    H265060   6.468   0.910  17.328  0.8753  0.7854  0.3233
14549TIP3   OH265061   2.605   4.683   0.182 -0.0008  0.2311 -0.1862
14549TIP3    H165062   2.627   4.768   0.222  0.0777  0.4074 -0.6032
14549TIP3    H265063   2.661   4.677   0.105  1.2845 -0.9965  0.8022
14550TIP3   OH265064   5.767   0.328  12.344  0.0779  0.1643  0.6112
14550TIP3    H165065   5.798   0.365  12.427  0.9997  0.4229  0.1723
14550TIP3    H265066   5.791   0.236  12.348 -0.5602  0.0116  0.9435
14551TIP3   OH265067   3.045   5.110  13.843  0.3336 -0.1170  0.2077
14551TIP3    H165068   3.081   5.187  13.888 -1.8549  0.4046  1.1918
14551TIP3    H265069   2.982   5.146  13.781  1.1251 -1.0250 -1.1879
14552TIP3   OH265070   2.433   3.372   0.571 -0.1728 -1.1273 -0.5099
14552TIP3    H165071   2.414   3.440   0.507 -1.7361 -1.1007 -0.0807
14552TIP3    H265072   2.373   3.301   0.549 -0.4512 -1.2838  0.6361
14553TIP3   OH265073   4.229   1.656   2.582  0.2986  0.1859  0.5166
14553TIP3    H165074   4.241   1.572   2.625 -1.8106  0.2922  1.4325
14553TIP3    H265075   4.207   1.717   2.653 -0.0932  1.0858 -0.3458
14554TIP3   OH265076   6.066   2.838  15.342 -0.1112  0.4978  0.3331
14554TIP3    H165077   6.057   2.930  15.316  0.0197  1.1570  2.4404
14554TIP3    H265078   6.111   2.797  15.269  2.8611  2.8350  0.6683
14555TIP3   OH265079   3.097   2.559   3.175 -0.4767 -0.2745 -0.2255
14555TIP3    H165080   3.175   2.515   3.140 -2.5137 -3.3213 -1.3413
14555TIP3    H265081   3.120   2.578   3.266  0.8532 -3.1973  0.1693
14556TIP3   OH265082   1.146   5.043  16.583 -0.2128  0.3227 -0.2627
14556TIP3    H165083   1.170   5.065  16.493  1.7096  1.4290  0.4591
14556TIP3    H265084   1.198   4.965  16.604 -2.7235 -1.6831 -0.9252
14557TIP3   OH265085   3.917   2.607   1.101  0.3860  0.1158 -0.1535
14557TIP3    H165086   3.996   2.562   1.070  0.4970 -0.0243  0.3225
14557TIP3    H265087   3.896   2.563   1.183  0.1638  0.5588  0.0261
14558TIP3   OH265088   6.696   0.455  16.088 -0.0815  0.0885 -0.0303
14558TIP3    H165089   6.758   0.388  16.113  1.0235  0.0408 -2.5940
14558TIP3    H265090   6.733   0.495  16.009 -1.7491  2.2554  0.1623
14559TIP3   OH265091   2.004   3.421   3.240  0.0933 -0.1140  0.2201
14559TIP3    H165092   2.076   3.483   3.254  0.3205 -0.3270  0.0174
14559TIP3    H265093   2.007   3.364   3.317  0.3918 -0.3612  0.0304
14560TIP3   OH265094   0.546   1.072  16.160 -0.0568  0.1434 -0.5864
14560TIP3    H165095   0.598   1.019  16.220 -0.1358  0.6271 -0.0845
14560TIP3    H265096   0.610   1.111  16.101  0.4290  2.3050  1.2280
14561TIP3   OH265097   4.044   1.273  16.689  0.2717 -0.6113  0.3526
14561TIP3    H165098   4.051   1.184  16.654  1.6323 -1.4299  2.5256
14561TIP3    H265099   3.974   1.313  16.637  0.5026 -2.4915 -1.5613
14562TIP3   OH265100   1.974   2.169  15.897  0.4285  0.2710  0.6259
14562TIP3    H165101   1.995   2.076  15.887 -0.0787  0.3026 -1.0102
14562TIP3    H265102   2.017   2.195  15.979 -0.2426 -1.6249  1.6376
14563TIP3   OH265103   4.310   6.556  13.486 -0.1139 -0.0692  0.0645
14563TIP3    H165104   4.399   6.520  13.493 -0.2152 -0.2466  0.5254
14563TIP3    H265105   4.322   6.651  13.493  0.0083 -0.1142  0.5208
14564TIP3   OH265106   4.792   0.403   5.153  0.3213 -0.4980  0.2205
14564TIP3    H165107   4.777   0.496   5.171  0.5156 -0.6070  0.9885
14564TIP3    H265108   4.744   0.357   5.221  2.2807 -0.8910  1.4283
14565TIP3   OH265109   5.745   3.178   4.307 -0.1546 -0.3572 -0.5451
14565TIP3    H165110   5.658   3.218   4.310 -0.3669 -0.8717  0.5854
14565TIP3    H265111   5.802   3.242   4.348 -0.4156 -0.9621  0.8321
14566TIP3   OH265112   1.606   6.297  17.036  0.5545  0.2588  0.9941
14566TIP3    H165113   1.515   6.268  17.044  0.8660 -0.4699  2.1221
14566TIP3    H265114   1.616   6.319  16.943 -0.4119 -0.8838  0.5864
14567TIP3   OH265115   4.036   1.439  15.554 -0.3681  0.0669 -0.7805
14567TIP3    H165116   4.122   1.398  15.563 -1.1257 -1.1302  2.3387
14567TIP3    H265117   4.054   1.527  15.522  2.2485  0.4644  1.4193
14568TIP3   OH265118   6.366   0.053  14.908  0.2616  0.0323  0.5187
14568TIP3    H165119   6.319   0.086  14.984  0.7025 -1.0015  1.2582
14568TIP3    H265120   6.398   0.132  14.864 -1.3694  0.7151  0.4894
14569TIP3   OH265121   6.731   1.788  15.183 -0.2615 -0.9631  0.2523
14569TIP3    H165122   6.818   1.789  15.222 -0.2567 -0.5500  0.2341
14569TIP3    H265123   6.700   1.878  15.190  1.1009  0.0164 -3.6885
14570TIP3   OH265124   3.409   2.001  12.025  0.0872 -0.3350  0.8125
14570TIP3    H165125   3.499   1.973  12.005 -0.1092 -1.2713  1.2261
14570TIP3    H265126   3.356   1.962  11.956  0.1837  1.6663 -0.4727
14571TIP3   OH265127   4.109   1.121   2.733 -0.1208  0.1955 -0.0014
14571TIP3    H165128   4.053   1.122   2.655 -0.1686  1.3089  0.0365
14571TIP3    H265129   4.064   1.063   2.794 -1.1275  0.9028 -0.0552
14572TIP3   OH265130   5.444   3.297   1.900  0.1139  0.1692 -0.6534
14572TIP3    H165131   5.464   3.244   1.977 -1.1115  1.1376  0.3790
14572TIP3    H265132   5.452   3.388   1.931  1.7908  0.6267 -2.2674
14573TIP3   OH265133   3.607   6.384   5.427 -0.2504 -0.2848 -0.7481
14573TIP3    H165134   3.624   6.301   5.472 -0.4243  0.8084  1.4439
14573TIP3    H265135   3.691   6.406   5.386 -0.2496 -1.6011 -1.4996
14574TIP3   OH265136   0.978   1.969   6.658 -0.4656 -0.2022 -0.0618
14574TIP3    H165137   1.073   1.983   6.662 -0.4545  0.1074 -1.1208
14574TIP3    H265138   0.968   1.895   6.598 -0.7987 -1.5975  1.6468
14575TIP3   OH265139   3.277   0.920  13.411  0.0075  0.0215  0.9305
14575TIP3    H165140   3.209   0.867  13.452 -1.1512  0.7410  0.0030
14575TIP3    H265141   3.348   0.922  13.476 -1.3403  0.2673  2.4527
14576TIP3   OH265142   2.084   0.243   3.120  0.2166 -0.1594  0.1548
14576TIP3    H165143   2.045   0.255   3.206 -3.7293 -0.3435 -1.3924
14576TIP3    H265144   2.057   0.155   3.093  2.5797 -0.6920 -0.7945
14577TIP3   OH265145   4.861   1.241   5.772  0.2244  0.1865  0.0869
14577TIP3    H165146   4.956   1.239   5.777  0.4183 -1.3081 -2.4716
14577TIP3    H265147   4.833   1.161   5.816  0.1885  0.1219 -0.0564
14578TIP3   OH265148   0.234   1.959  14.227  0.4255  0.1455  0.0747
14578TIP3    H165149   0.229   2.051  14.199  0.9632  0.2338  0.2616
14578TIP3    H265150   0.149   1.922  14.201 -0.6626  1.2241  1.8726
14579TIP3   OH265151   1.357   4.835   3.853  0.2670  0.3269  0.1944
14579TIP3    H165152   1.285   4.774   3.839 -0.5145  1.3248 -0.3097
14579TIP3    H265153   1.435   4.781   3.857 -0.4460 -0.7278  0.1728
14580TIP3   OH265154   2.832   4.053  12.817  0.1912  0.4336 -0.3293
14580TIP3    H165155   2.874   4.016  12.740  1.6837  0.5733  0.3836
14580TIP3    H265156   2.895   4.117  12.851 -0.8539  1.1003  0.4472
14581TIP3   OH265157   3.075   0.091   2.739 -0.6818 -0.2678  0.1277
14581TIP3    H165158   3.012   0.037   2.692 -0.0073  0.5200 -1.7646
14581TIP3    H265159   3.078   0.174   2.691  1.0687  0.0659  0.7136
14582TIP3   OH265160   3.277   5.989  10.919  0.0133  0.7154  0.1323
14582TIP3    H165161   3.367   6.007  10.891  1.1941 -1.9952  1.7886
14582TIP3    H265162   3.262   5.898  10.893 -1.0524  0.0992  2.6141
14583TIP3   OH265163   3.266   2.169   3.265 -0.3467 -0.1278  0.1814
14583TIP3    H165164   3.172   2.159   3.272 -0.1076 -1.7434  1.6188
14583TIP3    H265165   3.289   2.237   3.329 -0.1414 -2.6090  2.9114
14584TIP3   OH265166   5.632   5.259   0.514  0.1277 -0.2736 -0.1667
14584TIP3    H165167   5.621   5.307   0.432 -1.9125  0.0464  0.2462
14584TIP3    H265168   5.595   5.172   0.496  0.3659 -0.4533  0.2001
14585TIP3   OH265169   1.505   5.596  16.293  0.3629  0.2335 -0.3387
14585TIP3    H165170   1.470   5.674  16.336 -1.7076 -1.5645  1.4948
14585TIP3    H265171   1.546   5.546  16.364  0.5312 -0.9342 -1.2315
14586TIP3   OH265172   3.750   5.966  16.064  0.4690 -0.3356  0.1585
14586TIP3    H165173   3.693   6.043  16.066 -0.0122 -0.6286 -1.0372
14586TIP3    H265174   3.737   5.930  15.976  0.7161 -1.7649  0.6917
14587TIP3   OH265175   1.449   6.451  11.367 -0.0705 -0.0376 -0.0498
14587TIP3    H165176   1.488   6.364  11.362  0.2601  0.1340 -0.6237
14587TIP3    H265177   1.449   6.482  11.277  0.9241  1.0267  0.2878
14588TIP3   OH265178   1.697   6.352  15.537  0.2208  0.3076 -0.3375
14588TIP3    H165179   1.681   6.289  15.608 -1.1591  3.2937  2.2276
14588TIP3    H265180   1.791   6.365  15.537  0.2194  0.4501  1.1678
14589TIP3   OH265181   5.770   6.583  14.412  0.2018  0.3825  0.4704
14589TIP3    H165182   5.862   6.562  14.431  0.4349  2.1117  1.4768
14589TIP3    H265183   5.751   6.659  14.467 -1.2094  1.3494 -1.2322
14590TIP3   OH265184   2.259   6.745   0.904  0.1069  0.4855  0.4787
14590TIP3    H165185   2.350   6.762   0.928  0.2127  0.7499 -0.1128
14590TIP3    H265186   2.209   6.774   0.981  0.4675  1.0098  0.5227
14591TIP3   OH265187   3.138   5.296   2.805 -0.2400  0.1992 -0.2736
14591TIP3    H165188   3.148   5.379   2.851  1.2530  2.2351 -3.8649
14591TIP3    H265189   3.205   5.239   2.843 -0.1336  1.1946  1.0991
14592TIP3   OH265190   6.571   5.393  12.681 -0.6725 -0.6482  0.8036
14592TIP3    H165191   6.623   5.313  12.673 -0.9364 -0.6862 -1.0543
14592TIP3    H265192   6.512   5.377  12.754 -0.5476 -2.0594  0.6132
14593TIP3   OH265193   5.230   5.345  16.255 -0.4327 -0.0531 -0.0298
14593TIP3    H165194   5.181   5.351  16.337 -1.6051 -0.7993 -0.6521
14593TIP3    H265195   5.173   5.388  16.191  1.8124  3.4132  0.0466
14594TIP3   OH265196   6.462   2.149   1.530  0.0668 -0.5030  0.4770
14594TIP3    H165197   6.400   2.077   1.541 -0.8884  0.3760  1.1321
14594TIP3    H265198   6.528   2.116   1.469 -0.1430 -2.0398  1.0513
14595TIP3   OH265199   0.670   3.771   5.549  0.7325  0.4123 -0.3081
14595TIP3    H165200   0.705   3.704   5.491  1.4932  0.5078  0.0280
14595TIP3    H265201   0.575   3.766   5.538  0.7698 -0.8111 -0.1718
14596TIP3   OH265202   0.934   4.004  13.169  0.6113 -0.7659  0.1872
14596TIP3    H165203   0.921   3.910  13.169 -1.2593 -0.5293  0.2790
14596TIP3    H265204   0.931   4.029  13.261 -1.6834 -0.2967  0.0299
14597TIP3   OH265205   2.790   0.057  16.209  0.1614 -0.1169 -0.5765
14597TIP3    H165206   2.695   0.071  16.218  0.2944  1.1144 -0.9016
14597TIP3    H265207   2.798  -0.007  16.138 -0.4669 -1.6292  0.6447
14598TIP3   OH265208   4.695   3.321  12.603 -0.0001  0.1817  0.4175
14598TIP3    H165209   4.661   3.232  12.610  1.0251 -0.1001  3.2514
14598TIP3    H265210   4.774   3.312  12.550 -0.2999 -0.4772  0.0723
14599TIP3   OH265211   5.159   5.457  12.600 -0.1310  0.7878  1.1214
14599TIP3    H165212   5.128   5.372  12.567  1.7301  0.1294  0.9595
14599TIP3    H265213   5.151   5.516  12.525  2.0357 -0.1769  0.0571
14600TIP3   OH265214   5.254   3.775  12.396 -0.3281 -0.0271 -0.0511
14600TIP3    H165215   5.286   3.828  12.469 -0.1061 -0.7620  0.4000
14600TIP3    H265216   5.249   3.686  12.431 -2.2416 -0.0531 -0.3227
14601TIP3   OH265217   0.480   6.346   1.170 -0.6256  0.1412  0.2321
14601TIP3    H165218   0.450   6.370   1.258  0.8563 -0.2460  0.8764
14601TIP3    H265219   0.434   6.264   1.150 -2.5002  1.2417 -0.2320
14602TIP3   OH265220   0.471   5.148   3.655  0.0736 -0.5218  0.4636
14602TIP3    H165221   0.433   5.212   3.715 -0.5619  0.6006 -1.0658
14602TIP3    H265222   0.562   5.177   3.645  0.1210 -0.5835  0.6976
14603TIP3   OH265223   0.477   3.758  15.948  0.5821 -0.3648 -0.2249
14603TIP3    H165224   0.539   3.784  15.880 -0.6248 -2.2890 -2.1834
14603TIP3    H265225   0.444   3.673  15.920  0.6782 -1.7228  3.2770
14604TIP3   OH265226   5.281   0.987  13.265  0.0678 -0.1821 -0.1594
14604TIP3    H165227   5.217   0.919  13.243 -1.5571  1.1397  0.2850
14604TIP3    H265228   5.276   0.995  13.360  0.6365  0.1973 -0.1565
14605TIP3   OH265229   5.077   5.752   4.155 -0.2472  0.0945 -0.3611
14605TIP3    H165230   5.041   5.694   4.222  0.5056 -1.5131 -1.2955
14605TIP3    H265231   5.024   5.734   4.077  0.2330  0.4047 -0.7602
14606TIP3   OH265232   5.138   5.606  13.686 -0.1650 -0.0131 -0.3220
14606TIP3    H165233   5.071   5.586  13.621  2.0034  0.5839 -2.9180
14606TIP3    H265234   5.202   5.535  13.677  1.2072  1.1975 -0.3763
14607TIP3   OH265235   2.299   0.240   2.167 -0.0378  0.4283 -0.1761
14607TIP3    H165236   2.300   0.275   2.256  0.0030  0.4170 -0.1720
14607TIP3    H265237   2.278   0.315   2.112 -1.1642  0.2142 -0.0560
14608TIP3   OH265238   1.382   3.617  11.617 -0.2343  0.1438 -0.0444
14608TIP3    H165239   1.355   3.601  11.708  0.8157  0.7847  0.4071
14608TIP3    H265240   1.342   3.546  11.567  0.3926 -1.1112  1.1456
14609TIP3   OH265241   3.055   4.762  12.746  0.0047 -0.1161  0.0886
14609TIP3    H165242   3.118   4.825  12.709  1.0192  0.4675  2.6049
14609TIP3    H265243   3.093   4.676  12.725 -0.4188  0.1050 -1.7499
14610TIP3   OH265244   1.633   0.536  14.628  0.0199 -0.0169  0.7236
14610TIP3    H165245   1.621   0.444  14.653 -0.6898 -0.2592 -0.4175
14610TIP3    H265246   1.555   0.557  14.576  1.4441  0.3968 -1.3657
14611TIP3   OH265247   1.045   3.749   2.415  0.8364 -0.0968  0.1468
14611TIP3    H165248   1.108   3.721   2.349  1.9310 -0.0499  1.1276
14611TIP3    H265249   1.006   3.668   2.447  0.7921 -0.1680 -0.0841
14612TIP3   OH265250   2.559   5.589   1.597 -0.7399 -0.4068  0.6649
14612TIP3    H165251   2.621   5.660   1.616  0.3760 -1.0860 -0.3483
14612TIP3    H265252   2.579   5.521   1.661 -1.1014 -0.2464  0.9550
14613TIP3   OH265253   0.506   2.512  14.461 -0.0686 -0.5520 -1.1802
14613TIP3    H165254   0.480   2.580  14.523 -1.3015 -0.0003 -2.2430
14613TIP3    H265255   0.437   2.446  14.467  0.1666 -0.8264 -1.4651
14614TIP3   OH265256   4.991   1.548   0.262 -0.3615  0.0257 -0.4081
14614TIP3    H165257   5.080   1.518   0.280 -0.5266 -1.1777 -1.3962
14614TIP3    H265258   5.000   1.606   0.186 -0.2978  0.7844  0.1735
14615TIP3   OH265259   2.915   3.146  12.249 -0.3719  0.2464 -0.3452
14615TIP3    H165260   2.885   3.068  12.203  1.4145  0.0450 -1.2993
14615TIP3    H265261   2.905   3.126  12.342 -2.9372  0.1807 -0.5880
14616TIP3   OH265262   4.836   1.015   2.161 -0.6735 -0.2177  0.8054
14616TIP3    H165263   4.777   1.090   2.172 -0.9808 -0.2892 -0.2000
14616TIP3    H265264   4.852   0.983   2.249 -1.0345  0.6550  1.1983
14617TIP3   OH265265   6.596   0.664  14.463  0.3435  0.3004 -0.7333
14617TIP3    H165266   6.512   0.676  14.418  0.4236  0.0936 -0.9406
14617TIP3    H265267   6.603   0.569  14.477 -0.0529  0.4293  0.4393
14618TIP3   OH265268   1.992   0.851   3.393  0.0428 -0.2944  0.2817
14618TIP3    H165269   1.901   0.872   3.372 -0.3337 -2.2289 -0.2759
14618TIP3    H265270   2.039   0.933   3.383 -1.3911  0.4237 -0.9338
14619TIP3   OH265271   0.902   0.854   1.477 -0.5099  0.0232  0.0404
14619TIP3    H165272   0.870   0.853   1.567 -1.1376 -0.5004 -0.1800
14619TIP3    H265273   0.838   0.908   1.430 -1.3120 -1.3325 -0.4777
14620TIP3   OH265274   4.575   3.085   0.956 -0.4489  0.1892 -0.1509
14620TIP3    H165275   4.594   3.061   0.865  0.2967  1.2533 -0.2918
14620TIP3    H265276   4.480   3.076   0.964 -0.8380  2.2280 -1.7034
14621TIP3   OH265277   1.063   0.788  15.575  0.3296 -0.1720 -0.4293
14621TIP3    H165278   1.121   0.788  15.499 -2.9780  1.3523 -3.2548
14621TIP3    H265279   1.034   0.879  15.583 -2.6250 -1.0222 -0.1555
14622TIP3   OH265280   6.045   2.802  13.066 -0.6268  0.2121 -0.3870
14622TIP3    H165281   6.018   2.764  13.149  1.3392  1.2857  0.8147
14622TIP3    H265282   6.028   2.733  13.002 -2.1671 -0.6443  0.8872
14623TIP3   OH265283   0.519   4.893   3.031  0.5507 -0.1615  0.7259
14623TIP3    H165284   0.501   4.986   3.016  1.1688 -0.1964 -0.3386
14623TIP3    H265285   0.455   4.867   3.096  0.0725  0.9073  0.7132
14624TIP3   OH265286   0.881   4.921  16.874  0.7598  0.0081  0.1909
14624TIP3    H165287   0.907   4.862  16.945  0.0459 -0.4406  0.0853
14624TIP3    H265288   0.795   4.953  16.899 -0.7305 -2.2030 -1.6799
14625TIP3   OH265289   1.096   6.561  13.907 -0.2383 -0.1615  0.5569
14625TIP3    H165290   1.064   6.472  13.893 -2.6435  0.7213 -0.2255
14625TIP3    H265291   1.092   6.602  13.821 -1.6051  1.3548  1.2645
14626TIP3   OH265292   0.145   6.657   2.825  0.1300  0.1798 -0.6519
14626TIP3    H165293   0.182   6.636   2.910 -0.5627  1.2010 -0.0780
14626TIP3    H265294   0.058   6.617   2.826  0.7716 -1.3565 -1.6087
14627TIP3   OH265295   6.364   2.242   3.083  0.7635  0.1107  0.2677
14627TIP3    H165296   6.381   2.148   3.085 -1.2526 -0.2692  1.7001
14627TIP3    H265297   6.436   2.280   3.134  0.5085 -0.8728  1.4095
14628TIP3   OH265298   3.955   4.372   5.110  0.1709  0.4232 -0.4781
14628TIP3    H165299   3.873   4.336   5.146 -1.7097  2.5012 -2.3227
14628TIP3    H265300   4.016   4.371   5.183 -1.2368 -1.9073  0.8010
14629TIP3   OH265301   4.384   0.659   4.914 -0.5469  0.2508  0.5990
14629TIP3    H165302   4.295   0.680   4.942 -0.6468 -0.2049  0.6308
14629TIP3    H265303   4.430   0.743   4.916 -1.1648  0.6263 -0.1223
14630TIP3   OH265304   4.705   6.614   3.389  0.1515  0.5868  0.8105
14630TIP3    H165305   4.653   6.536   3.373 -0.0101  0.6805  0.8788
14630TIP3    H265306   4.779   6.584   3.441  1.4724 -0.0089 -1.2852
14631TIP3   OH265307   6.735   6.607  10.475 -0.9839 -0.2006  0.5840
14631TIP3    H165308   6.785   6.541  10.427 -0.2664  1.1137 -0.5318
14631TIP3    H265309   6.645   6.594  10.445 -0.9341 -1.0067  0.7664
14632TIP3   OH265310   4.684   1.811  15.677  0.6035  0.5541  0.2324
14632TIP3    H165311   4.763   1.757  15.666  1.7149  1.6318  2.3132
14632TIP3    H265312   4.663   1.804  15.770 -2.2232 -0.2200 -0.3745
14633TIP3   OH265313   2.668   1.614  15.757 -0.1121  0.1137  0.3980
14633TIP3    H165314   2.674   1.541  15.819 -0.0104  1.0188  1.4905
14633TIP3    H265315   2.737   1.598  15.693 -1.9518 -2.3081 -1.1543
14634TIP3   OH265316   2.346   3.548   0.374  0.3826 -0.3810 -0.0451
14634TIP3    H165317   2.395   3.601   0.310 -1.2561  0.6009 -0.5367
14634TIP3    H265318   2.309   3.612   0.435  1.4037 -1.2678  1.5814
14635TIP3   OH265319   4.217   5.942   5.930 -0.5802 -0.1902  0.3461
14635TIP3    H165320   4.221   5.970   6.021  4.7381  2.7161 -0.3211
14635TIP3    H265321   4.157   6.004   5.889 -1.0459  0.1305  1.4796
14636TIP3   OH265322   2.191   6.573   4.628  0.1913  0.1632  0.6806
14636TIP3    H165323   2.256   6.567   4.558  0.3089  1.6994  0.6242
14636TIP3    H265324   2.136   6.495   4.616  2.0246 -1.2273  0.7847
14637TIP3   OH265325   6.376   6.173   0.733 -0.0997  0.4461  0.0065
14637TIP3    H165326   6.364   6.226   0.811 -0.2710 -1.7104  1.5282
14637TIP3    H265327   6.461   6.201   0.698  0.7166  0.4140  1.8453
14638TIP3   OH265328   6.108   0.249  17.181 -0.3819 -0.1795 -0.0268
14638TIP3    H165329   6.028   0.222  17.226  1.4997 -1.7211  2.6769
14638TIP3    H265330   6.156   0.300  17.246  2.2672 -2.0577 -0.3355
14639TIP3   OH265331   1.018   2.206  11.308 -0.0056 -0.1054 -0.4778
14639TIP3    H165332   1.112   2.216  11.322  0.1111  0.4863 -1.5928
14639TIP3    H265333   0.986   2.163  11.387  1.4283 -1.5996 -0.6739
14640TIP3   OH265334   2.252   4.454   6.134 -0.2758  0.1148 -0.2270
14640TIP3    H165335   2.334   4.503   6.135  0.0501 -0.4268  0.5016
14640TIP3    H265336   2.225   4.450   6.226 -1.5672  1.0178 -0.5468
14641TIP3   OH265337   2.810   6.103   1.453  0.3432  0.1801  0.5104
14641TIP3    H165338   2.842   6.016   1.476 -0.5845 -0.2969  0.0851
14641TIP3    H265339   2.796   6.099   1.358 -0.3539  0.5553  0.5881
14642TIP3   OH265340   2.351   5.958  14.606  0.0258  0.1049  0.4073
14642TIP3    H165341   2.411   6.015  14.654 -0.8925  1.4980 -0.0204
14642TIP3    H265342   2.295   5.920  14.673  1.8755 -1.9209  0.9143
14643TIP3   OH265343   2.475   3.043  17.183  0.0052 -0.1959  0.1084
14643TIP3    H165344   2.547   3.076  17.236 -0.4796 -0.7654  1.1394
14643TIP3    H265345   2.404   3.026  17.245 -0.6016 -0.8221 -0.7216
14644TIP3   OH265346   1.451   0.922   1.843 -0.4602  0.1880 -0.4474
14644TIP3    H165347   1.494   0.907   1.758 -1.2056  0.2582 -0.8521
14644TIP3    H265348   1.419   1.012   1.838  0.8338  0.7317  0.5369
14645TIP3   OH265349   1.607   0.565   5.275 -0.1617 -0.1241  0.1792
14645TIP3    H165350   1.693   0.574   5.234 -0.0466  0.9598  0.6295
14645TIP3    H265351   1.607   0.631   5.344 -1.4401  0.0156  0.0579
14646TIP3   OH265352   2.418   4.518   1.255  0.0232 -0.1662  0.0755
14646TIP3    H165353   2.435   4.612   1.261 -0.3833 -0.0917  0.0935
14646TIP3    H265354   2.409   4.501   1.161 -1.1315  0.0413  0.1369
14647TIP3   OH265355   5.001   0.512   2.208 -0.2136  0.7175 -0.3397
14647TIP3    H165356   4.913   0.516   2.170  0.0741  1.5539 -0.9440
14647TIP3    H265357   5.031   0.603   2.210  0.5015  0.4841  0.2020
14648TIP3   OH265358   4.279   4.496   6.034  0.3403 -0.0984 -0.0149
14648TIP3    H165359   4.356   4.511   6.088  0.3651 -0.4584  0.0501
14648TIP3    H265360   4.213   4.556   6.070  0.5077  0.0235  0.0936
14649TIP3   OH265361   6.550   2.421  12.792  0.5062  0.6965  0.2427
14649TIP3    H165362   6.552   2.386  12.703 -0.4198 -0.6228  0.7152
14649TIP3    H265363   6.456   2.431  12.811  0.6658  0.0322  1.4297
14650TIP3   OH265364   2.604   5.919  12.800 -0.5611 -0.2057 -0.3496
14650TIP3    H165365   2.545   5.891  12.870 -0.7737 -0.3142 -0.5736
14650TIP3    H265366   2.674   5.966  12.846 -0.9121  0.0772 -0.1034
14651TIP3   OH265367   3.271   2.331  15.195  0.3000  0.3489 -0.4781
14651TIP3    H165368   3.348   2.346  15.141  0.2728  0.6259 -0.4410
14651TIP3    H265369   3.284   2.386  15.273 -0.2945  1.0084 -0.8267
14652TIP3   OH265370   2.256   2.419  15.903 -0.0083  0.6615  0.2024
14652TIP3    H165371   2.297   2.360  15.840 -0.3266  1.6131 -0.9567
14652TIP3    H265372   2.243   2.500  15.854  0.2075  1.6255  1.6671
14653TIP3   OH265373   3.219   5.675  14.399 -0.2442  0.0108 -0.5196
14653TIP3    H165374   3.220   5.724  14.481 -0.7357  0.7397 -0.9381
14653TIP3    H265375   3.196   5.740  14.332 -0.5566 -0.7151 -1.1401
14654TIP3   OH265376   4.075   3.121   0.625 -0.2939 -0.0494 -0.2407
14654TIP3    H165377   4.047   3.109   0.715  1.4054  0.0221  0.3377
14654TIP3    H265378   4.097   3.214   0.619  0.7415 -0.2923 -0.3627
14655TIP3   OH265379   3.577   2.804  15.193  0.4596 -0.0888 -0.2371
14655TIP3    H165380   3.605   2.749  15.119  2.0871 -1.8857  1.5600
14655TIP3    H265381   3.631   2.883  15.186 -0.9217  0.7420 -2.0994
14656TIP3   OH265382   2.387   6.117   1.849 -0.4732 -0.7509 -0.3405
14656TIP3    H165383   2.299   6.134   1.817 -0.3217 -0.1763 -0.4720
14656TIP3    H265384   2.420   6.203   1.874  0.2410 -0.8940 -0.7800
14657TIP3   OH265385   1.185   2.972   1.448 -0.7307  0.3428 -0.2645
14657TIP3    H165386   1.183   2.967   1.353 -0.1237  1.6622 -0.3661
14657TIP3    H265387   1.267   2.929   1.473 -0.8849  0.0068 -0.3212
14658TIP3   OH265388   6.385   3.330   1.543  0.1478 -0.8467 -0.2926
14658TIP3    H165389   6.343   3.309   1.460 -1.6148 -1.8103  0.7726
14658TIP3    H265390   6.403   3.244   1.582 -0.3099 -0.4053  0.9119
14659TIP3   OH265391   2.365   6.315   1.547  0.2947 -0.0030 -0.1245
14659TIP3    H165392   2.373   6.296   1.453  0.1745 -0.7814  0.0137
14659TIP3    H265393   2.322   6.400   1.550 -2.8132 -1.4053 -0.7940
14660TIP3   OH265394   3.460   3.843   4.647  0.9767  0.0851  0.0394
14660TIP3    H165395   3.512   3.774   4.688  1.1664  1.3973  2.1706
14660TIP3    H265396   3.383   3.853   4.704  1.6734  2.5710  0.7052
14661TIP3   OH265397   0.086   6.416   0.980 -0.2664 -0.1977 -0.0840
14661TIP3    H165398   0.021   6.347   0.984 -0.1295 -0.2853  3.4887
14661TIP3    H265399   0.170   6.370   0.975 -0.2757 -0.1991 -0.2436
14662TIP3   OH265400   4.752   2.209   2.184 -0.1067  0.1992 -0.2290
14662TIP3    H165401   4.658   2.209   2.162 -0.2380 -0.0559  0.3309
14662TIP3    H265402   4.758   2.155   2.262  0.2410  1.8333  0.9104
14663TIP3   OH265403   1.335   3.898  14.517 -0.1837 -0.0650 -0.1657
14663TIP3    H165404   1.263   3.863  14.463 -0.1159 -0.5604  0.0535
14663TIP3    H265405   1.324   3.853  14.601  0.5080 -0.3029 -0.2005
14664TIP3   OH265406   2.618   0.611  14.084 -0.3568 -0.5692 -0.6267
14664TIP3    H165407   2.659   0.691  14.051 -0.1477 -0.2789  0.3112
14664TIP3    H265408   2.524   0.630  14.086 -0.2631 -0.1542  0.0849
14665TIP3   OH265409   3.606   6.031  12.513  0.0941 -0.0951  0.2262
14665TIP3    H165410   3.627   6.122  12.533 -1.5776  0.6306 -1.0698
14665TIP3    H265411   3.580   5.993  12.597  0.9126  0.5608  0.7976
14666TIP3   OH265412   5.638   2.221  13.023  0.5825  0.2808 -0.3722
14666TIP3    H165413   5.611   2.135  13.058 -1.3027  0.6354 -0.8343
14666TIP3    H265414   5.705   2.200  12.958 -0.9884 -1.0471 -1.6643
14667TIP3   OH265415   2.897   5.062  16.320 -0.0900  0.0627  0.0046
14667TIP3    H165416   2.945   5.003  16.262 -0.5471 -1.5979  1.2329
14667TIP3    H265417   2.965   5.103  16.374  0.1833  0.1663 -0.4148
14668TIP3   OH265418   2.042   5.102   2.058 -0.3694 -1.2335 -0.3225
14668TIP3    H165419   2.105   5.163   2.096 -1.8905  0.9677 -1.1934
14668TIP3    H265420   1.978   5.086   2.127 -0.4719 -1.1378 -0.3965
14669TIP3   OH265421   6.422   5.769  15.305 -0.6669  0.1808 -0.3793
14669TIP3    H165422   6.391   5.731  15.388 -1.2702  0.5110 -0.4460
14669TIP3    H265423   6.379   5.855  15.301  1.0533  1.0991  0.0046
14670TIP3   OH265424   5.433   3.455  15.204  0.6152 -0.4311  0.1641
14670TIP3    H165425   5.398   3.433  15.118 -1.3377 -1.5479  1.1784
14670TIP3    H265426   5.469   3.373  15.237 -0.9831 -0.6699  1.4203
14671TIP3   OH265427   1.500   2.970   1.342 -0.5495  0.7476  0.0651
14671TIP3    H165428   1.525   3.052   1.384  0.4472  0.9007 -0.8148
14671TIP3    H265429   1.568   2.908   1.367 -0.8160  0.4170 -0.0162
14672TIP3   OH265430   2.451   5.183  13.438  0.2266  0.5755  0.2387
14672TIP3    H165431   2.542   5.209  13.426  0.3254 -0.3464 -1.3021
14672TIP3    H265432   2.413   5.251  13.494  2.0968  0.4311  1.7915
14673TIP3   OH265433   2.301   1.561  13.546 -0.6269 -0.1217 -0.2122
14673TIP3    H165434   2.310   1.580  13.453  0.4283  0.2391 -0.0504
14673TIP3    H265435   2.227   1.501  13.551 -0.5324 -0.3545 -1.3110
14674TIP3   OH265436   4.759   0.056   0.554 -0.6888 -0.4117 -0.0207
14674TIP3    H165437   4.831   0.036   0.613  0.2001  3.0168  0.2835
14674TIP3    H265438   4.770  -0.003   0.480  3.3614  0.8798 -0.6531
14675TIP3   OH265439   0.296   4.520  11.517  0.4895 -0.6236 -0.0553
14675TIP3    H165440   0.368   4.583  11.521  0.1057 -0.1217 -0.9067
14675TIP3    H265441   0.330   4.443  11.563 -0.0357  1.1500  3.6842
14676TIP3   OH265442   2.979   4.422   6.106 -0.4545 -0.5653 -0.2917
14676TIP3    H165443   2.980   4.516   6.123 -0.3870 -0.7439  0.7530
14676TIP3    H265444   3.036   4.411   6.030 -0.8207  0.2849 -0.7006
14677TIP3   OH265445   1.263   3.572  12.979  0.0768 -0.2106 -0.1703
14677TIP3    H165446   1.312   3.601  13.056 -0.4420 -0.1182  0.1265
14677TIP3    H265447   1.219   3.492  13.007 -1.8811  0.9663  0.3490
14678TIP3   OH265448   4.785   2.945   0.161  0.2395 -0.6208 -0.9493
14678TIP3    H165449   4.797   3.026   0.211 -0.7572 -1.0219 -0.0225
14678TIP3    H265450   4.701   2.957   0.116 -0.0284 -1.2231 -0.6203
14679TIP3   OH265451   4.827   2.664   4.353  0.3524 -0.1180  0.8928
14679TIP3    H165452   4.763   2.724   4.392  1.0756 -0.4120  2.6275
14679TIP3    H265453   4.831   2.690   4.261 -1.4183  0.6379  0.9898
14680TIP3   OH265454   5.341   3.550   5.180  0.0911  0.1873  0.3811
14680TIP3    H165455   5.305   3.497   5.251 -0.3154 -0.1428 -0.0556
14680TIP3    H265456   5.376   3.627   5.223 -0.6447  0.2547  0.8902
14681TIP3   OH265457   3.835   5.700   2.626  0.2111  0.2409 -0.0486
14681TIP3    H165458   3.913   5.734   2.671  0.0393 -0.4526  0.7959
14681TIP3    H265459   3.832   5.748   2.543  0.4325  1.6749  0.7544
14682TIP3   OH265460   1.586   2.243  13.884 -0.0030 -0.3055  0.1285
14682TIP3    H165461   1.646   2.271  13.814  1.7558 -2.9018  0.4663
14682TIP3    H265462   1.613   2.293  13.961  2.3549 -1.9149  0.4598
14683TIP3   OH265463   6.044   6.123  16.731  0.2576  0.4235 -0.2147
14683TIP3    H165464   6.040   6.108  16.826  1.3920  1.1455 -0.0465
14683TIP3    H265465   6.014   6.213  16.720  0.5209  0.4717 -0.5120
14684TIP3   OH265466   4.686   5.228   4.026 -0.1808  0.3973 -0.3728
14684TIP3    H165467   4.617   5.293   4.013 -0.5582  0.1614  0.3732
14684TIP3    H265468   4.640   5.150   4.056  0.3720  0.0994 -0.2900
14685TIP3   OH265469   3.939   1.695   6.513  0.1632 -0.3538 -0.2034
14685TIP3    H165470   3.902   1.615   6.476  1.9393 -0.2956 -2.2979
14685TIP3    H265471   3.958   1.750   6.437  1.5555  0.8886  0.9888
14686TIP3   OH265472   1.296   4.143  15.736 -0.4384  0.3129 -0.9914
14686TIP3    H165473   1.339   4.137  15.651  0.0410 -0.9491 -0.6878
14686TIP3    H265474   1.355   4.194  15.791  0.0162 -0.2399 -0.9654
14687TIP3   OH265475   2.612   1.981   5.255 -0.6179 -0.0920 -0.0904
14687TIP3    H165476   2.604   1.886   5.262 -0.4110 -0.0616  0.7346
14687TIP3    H265477   2.622   2.010   5.346  1.2124  0.5349 -0.4530
14688TIP3   OH265478   3.986   3.440  12.923 -0.1264  0.0810 -0.3647
14688TIP3    H165479   3.927   3.396  12.861  3.1111 -1.3245 -2.7849
14688TIP3    H265480   3.968   3.533  12.912 -1.9617 -0.2919 -0.8620
14689TIP3   OH265481   3.059   5.014   0.504 -0.6825  0.2715 -0.5051
14689TIP3    H165482   3.115   5.079   0.463  2.4410 -1.1457  1.2015
14689TIP3    H265483   3.019   5.060   0.578 -0.1222  0.7921 -0.5199
14690TIP3   OH265484   5.063   5.561   2.112 -0.4641 -0.5219 -0.2593
14690TIP3    H165485   4.992   5.498   2.100 -0.3733 -0.5041 -0.9104
14690TIP3    H265486   5.020   5.644   2.129 -0.6194 -0.3027 -1.6756
14691TIP3   OH265487   6.623   2.151  12.445 -0.0559  0.2508 -0.3875
14691TIP3    H165488   6.574   2.220  12.399 -1.0589  0.4035  0.8672
14691TIP3    H265489   6.565   2.075  12.441  0.0397  0.1456  0.2525
14692TIP3   OH265490   0.986   4.518   5.535  0.6396  0.6027  0.2853
14692TIP3    H165491   1.008   4.608   5.509  3.8719  0.3487  1.6711
14692TIP3    H265492   1.009   4.465   5.459  0.2576  0.7911  0.0350
14693TIP3   OH265493   0.995   2.109   2.142 -0.2205 -0.0296  0.2067
14693TIP3    H165494   1.042   2.097   2.225 -0.3458  0.2402  0.3175
14693TIP3    H265495   1.064   2.115   2.076 -0.1390 -3.4482 -0.1880
14694TIP3   OH265496   0.649   3.097  14.234  0.2508  0.6084 -0.1140
14694TIP3    H165497   0.705   3.020  14.219 -0.4974  0.6395 -3.9064
14694TIP3    H265498   0.574   3.062  14.283  1.2802 -0.4045  0.8171
14695TIP3   OH265499   0.300   5.848  11.550 -0.3808 -0.0724  0.4012
14695TIP3    H165500   0.262   5.776  11.600 -0.9456  0.7114  1.1335
14695TIP3    H265501   0.330   5.808  11.469 -2.2010 -0.8485  0.0548
14696TIP3   OH265502   2.899   2.019  13.815 -0.0229 -0.1824  0.2297
14696TIP3    H165503   2.838   1.967  13.867 -0.1867  2.0267  2.4633
14696TIP3    H265504   2.985   1.995  13.848  0.0017 -0.2317  0.1270
14697TIP3   OH265505   1.249   4.768   5.742 -0.8468 -0.2356 -0.0584
14697TIP3    H165506   1.324   4.820   5.772  1.2831 -2.9634 -0.2564
14697TIP3    H265507   1.274   4.737   5.655 -2.3868 -0.9363 -0.2969
14698TIP3   OH265508   1.699   4.726   2.449  0.0931 -0.5154  0.0811
14698TIP3    H165509   1.654   4.810   2.451  0.7722 -0.1550  1.3853
14698TIP3    H265510   1.630   4.661   2.433 -0.3238  0.3282 -1.8346
14699TIP3   OH265511   6.464   3.813   0.807 -0.2617 -0.3130 -0.0224
14699TIP3    H165512   6.556   3.803   0.831 -0.1675 -0.0603 -0.2729
14699TIP3    H265513   6.431   3.882   0.864  0.2976  1.2191 -1.4577
14700TIP3   OH265514   1.852   6.349   3.790 -0.1801 -0.4085 -0.2227
14700TIP3    H165515   1.937   6.310   3.768  0.0994 -0.2550  0.5698
14700TIP3    H265516   1.819   6.383   3.706  1.3279  1.0788 -0.2793
14701TIP3   OH265517   1.678   6.021  13.237  0.8951 -0.6238  0.4560
14701TIP3    H165518   1.653   6.070  13.315 -0.9832  0.1383 -0.5539
14701TIP3    H265519   1.747   6.073  13.196  1.5241 -0.7698  1.2966
14702TIP3   OH265520   3.219   2.097   1.136  0.4188 -0.5756  0.2350
14702TIP3    H165521   3.286   2.081   1.202 -0.0937  0.0905  0.9341
14702TIP3    H265522   3.266   2.141   1.065  0.5120  1.2282  1.3264
14703TIP3   OH265523   1.952   4.316  14.666  0.0672 -0.3216  0.4836
14703TIP3    H165524   2.046   4.303  14.653 -0.2564 -0.5376 -2.1794
14703TIP3    H265525   1.926   4.245  14.725  1.2955 -1.2376 -0.0426
14704TIP3   OH265526   3.333   0.614  13.540 -0.2397  0.1669 -0.3059
14704TIP3    H165527   3.372   0.621  13.452 -0.8625 -2.2091 -0.8411
14704TIP3    H265528   3.406   0.632  13.599  0.9886 -1.1841 -1.3158
14705TIP3   OH265529   2.212   4.456  10.709 -0.4135 -0.0060  0.4983
14705TIP3    H165530   2.194   4.395  10.781  0.1446 -0.2287  0.4514
14705TIP3    H265531   2.229   4.400  10.634 -0.3072  0.2157  0.3552
14706TIP3   OH265532   1.831   5.996   1.088  0.0903 -0.6004 -0.8172
14706TIP3    H165533   1.801   6.052   1.016  0.4120 -0.2785 -0.7087
14706TIP3    H265534   1.925   6.015   1.095 -0.2829  0.9647  1.0319
14707TIP3   OH265535   2.033   0.020  14.947 -0.1131  0.1207  0.7493
14707TIP3    H165536   2.089  -0.054  14.923  0.0390  0.2942  0.5645
14707TIP3    H265537   1.971   0.027  14.875 -0.8537 -0.5397  1.3079
14708TIP3   OH265538   0.285   5.468  15.705 -0.0558  0.2087  0.4094
14708TIP3    H165539   0.262   5.540  15.647 -0.3962  0.7083  1.1408
14708TIP3    H265540   0.377   5.483  15.728  0.0968 -0.0251 -0.0439
14709TIP3   OH265541   1.717   4.000   4.243  0.4038  0.4735 -0.5596
14709TIP3    H165542   1.767   3.922   4.219  0.5046  0.8141 -1.5091
14709TIP3    H265543   1.780   4.072   4.236  0.9672  0.4386  2.5560
14710TIP3   OH265544   4.149   4.036  15.840  0.3962 -0.3366 -0.6321
14710TIP3    H165545   4.198   4.055  15.760  0.1179  0.2017 -0.6809
14710TIP3    H265546   4.159   3.942  15.853  1.7483 -0.1875 -0.4349
14711TIP3   OH265547   2.567   1.680   6.261 -0.2165  0.3334 -0.5086
14711TIP3    H165548   2.510   1.756   6.278 -0.4397  0.0689 -0.0735
14711TIP3    H265549   2.534   1.612   6.318 -0.0786 -0.1319 -0.9785
14712TIP3   OH265550   3.944   2.670   1.939  0.3451  0.1608 -0.0848
14712TIP3    H165551   3.963   2.690   2.031  1.9759 -1.6999  0.0592
14712TIP3    H265552   3.950   2.575   1.934  2.0555  0.3028 -2.4346
14713TIP3   OH265553   4.841   2.749  12.772 -0.0371  0.3971 -0.1066
14713TIP3    H165554   4.745   2.747  12.764 -0.0636  1.2346 -0.1349
14713TIP3    H265555   4.868   2.658  12.762 -0.7911  0.2195 -0.6472
14714TIP3   OH265556   4.014   3.025  12.134  0.3353  0.1060 -0.1914
14714TIP3    H165557   4.067   2.951  12.164  1.1061  0.1401 -1.4257
14714TIP3    H265558   4.051   3.100  12.180  0.3905 -0.0923  0.0906
14715TIP3   OH265559   4.909   4.229   4.920 -0.2524  0.3322  0.4362
14715TIP3    H165560   4.900   4.172   4.843  0.1256  0.0919  0.5692
14715TIP3    H265561   4.818   4.246   4.947 -0.4053  0.8090 -0.3444
14716TIP3   OH265562   0.964   3.964   0.650 -0.3159  0.3857  0.4319
14716TIP3    H165563   1.057   3.985   0.654  0.2498 -1.5940 -1.1593
14716TIP3    H265564   0.924   4.042   0.612  0.3839  1.8981  2.5725
14717TIP3   OH265565   3.297   2.489   0.030  0.6947  0.3803  0.4817
14717TIP3    H165566   3.357   2.557  -0.001  2.0623 -1.0416 -0.0698
14717TIP3    H265567   3.342   2.447   0.103 -0.1465  0.0539  0.8345
14718TIP3   OH265568   3.174   4.401   4.732 -0.5039 -0.1122 -0.1903
14718TIP3    H165569   3.167   4.307   4.718  0.8861 -0.5442  1.6750
14718TIP3    H265570   3.218   4.410   4.816 -0.3026  2.2216 -0.4720
14719TIP3   OH265571   5.175   0.191  10.454  0.0277 -0.4337 -0.6909
14719TIP3    H165572   5.204   0.234  10.374  0.1854 -1.3166 -1.1287
14719TIP3    H265573   5.256   0.160  10.495 -0.1095 -0.6975 -0.6162
14720TIP3   OH265574   4.329   3.229   3.215 -0.0538  0.2750 -0.6435
14720TIP3    H165575   4.333   3.181   3.133  0.1249  1.1800 -1.1789
14720TIP3    H265576   4.386   3.305   3.201 -0.0362  0.4520  0.3092
14721TIP3   OH265577   6.195   0.114  12.853  0.1222 -0.2772 -0.0250
14721TIP3    H165578   6.271   0.137  12.799  2.0724  0.4698  2.8293
14721TIP3    H265579   6.204   0.020  12.869  1.7308  0.1526  1.9830
14722TIP3   OH265580   5.243   3.493  16.799 -0.2402  0.3828  0.1153
14722TIP3    H165581   5.150   3.487  16.775 -0.3067  0.6504  0.2930
14722TIP3    H265582   5.276   3.404  16.790  0.1147  0.7009 -2.3996
14723TIP3   OH265583   4.698   3.483  11.470 -0.2314  0.5791  0.0799
14723TIP3    H165584   4.628   3.433  11.429 -1.1251  2.0807 -0.3038
14723TIP3    H265585   4.693   3.570  11.429  0.9199  1.1620  1.0843
14724TIP3   OH265586   1.486   5.077   0.009 -0.6687 -0.1047  0.2001
14724TIP3    H165587   1.536   5.148   0.048  0.3255 -2.2274  3.1355
14724TIP3    H265588   1.552   5.016  -0.025 -0.9790 -2.8905  4.0217
14725TIP3   OH265589   4.873   1.081   1.372 -0.2936 -0.6838 -0.6964
14725TIP3    H165590   4.880   1.033   1.455 -0.1785  0.8195  0.2068
14725TIP3    H265591   4.950   1.137   1.371 -1.2887  0.7223 -0.8810
14726TIP3   OH265592   6.025   5.480   1.524 -0.5609  0.2268  0.1300
14726TIP3    H165593   6.071   5.560   1.548 -0.2883  0.5809 -1.4778
14726TIP3    H265594   5.937   5.508   1.501 -0.9650 -0.1741  1.0914
14727TIP3   OH265595   0.333   0.005  12.297  0.2668  0.1013  0.5633
14727TIP3    H165596   0.315  -0.078  12.342 -0.0593  1.0573  2.2951
14727TIP3    H265597   0.250   0.052  12.302  0.0341  0.0249 -1.6505
14728TIP3   OH265598   5.300   1.485  15.286 -0.3732  0.0606 -0.1764
14728TIP3    H165599   5.274   1.417  15.224  0.5999  0.1426 -0.6947
14728TIP3    H265600   5.226   1.493  15.346 -0.9397 -0.6860 -0.7647
14729TIP3   OH265601   1.112   2.394   2.479  0.7219  0.4175 -0.0825
14729TIP3    H165602   1.155   2.381   2.395 -1.3965  0.7813 -1.3073
14729TIP3    H265603   1.024   2.357   2.466 -0.6475  3.0421  0.9808
14730TIP3   OH265604   6.162   0.451   5.943 -0.4492  0.3791  0.5033
14730TIP3    H165605   6.200   0.482   6.026  1.7481  1.7520 -0.8910
14730TIP3    H265606   6.167   0.356   5.949  0.4743  0.4622  1.6360
14731TIP3   OH265607   2.910   5.251  13.559  0.1280 -0.1712 -0.0577
14731TIP3    H165608   2.847   5.228  13.628  0.9613  0.2626  0.8723
14731TIP3    H265609   2.876   5.333  13.522  0.8371  0.8263  1.3910
14732TIP3   OH265610   3.227   3.125  16.537  0.2029 -0.3571  0.2766
14732TIP3    H165611   3.261   3.084  16.616  0.5573  1.0551  0.8903
14732TIP3    H265612   3.163   3.189  16.569  0.3257  0.2088 -0.5804
14733TIP3   OH265613   3.726   2.326   3.732  0.5099 -0.0536 -0.9632
14733TIP3    H165614   3.732   2.406   3.679  0.6335 -0.9834 -2.4232
14733TIP3    H265615   3.673   2.266   3.678 -1.2614 -0.3238  0.9334
14734TIP3   OH265616   2.113   5.185   6.631 -0.0228  0.1140  0.0605
14734TIP3    H165617   2.150   5.127   6.564  2.5200  0.7106  0.8119
14734TIP3    H265618   2.076   5.126   6.697  1.2488 -0.6459  0.1316
14735TIP3   OH265619   0.920   6.176  15.344 -0.1307  0.0838 -0.2616
14735TIP3    H165620   0.977   6.117  15.295 -0.9639 -0.7321 -0.2872
14735TIP3    H265621   0.926   6.260  15.298  1.5096  0.1965  0.1040
14736TIP3   OH265622   5.234   3.206   1.743  0.3586  0.4861 -0.2620
14736TIP3    H165623   5.274   3.170   1.664 -0.7620 -1.3208 -0.0679
14736TIP3    H265624   5.305   3.207   1.807  0.2528 -2.5967  0.0571
14737TIP3   OH265625   4.976   0.964  13.424  0.3441  0.5564 -0.4788
14737TIP3    H165626   5.063   0.981  13.458  0.3504 -0.1589 -0.1237
14737TIP3    H265627   4.990   0.934  13.334  0.7106 -2.2744  0.4197
14738TIP3   OH265628   4.934   4.522   5.333 -0.4163  0.6583  0.8858
14738TIP3    H165629   4.952   4.611   5.304  0.8022  0.4461  0.9550
14738TIP3    H265630   4.940   4.527   5.428 -1.6164  0.7538  0.9753
14739TIP3   OH265631   0.317   1.527   0.904  0.4201  0.1300  0.1174
14739TIP3    H165632   0.371   1.452   0.879 -0.1051 -0.0457 -0.5220
14739TIP3    H265633   0.236   1.517   0.853  0.3018  1.0768  0.0925
14740TIP3   OH265634   0.462   4.530  16.413 -0.8438  0.0064 -0.1157
14740TIP3    H165635   0.414   4.489  16.486 -0.2403 -0.9541 -0.2542
14740TIP3    H265636   0.527   4.586  16.456 -1.8006  1.0196  0.0722
14741TIP3   OH265637   5.357   5.953   5.174  0.2744 -0.4612  0.5531
14741TIP3    H165638   5.339   5.860   5.182 -2.9609 -0.2575 -2.1866
14741TIP3    H265639   5.282   5.988   5.126  1.7876  3.4193  0.6661
14742TIP3   OH265640   6.738   1.678   6.003 -0.0253  0.7044 -0.4060
14742TIP3    H165641   6.809   1.616   6.021 -1.8201 -1.0459  1.1724
14742TIP3    H265642   6.739   1.738   6.078 -1.4010 -0.5996  0.7370
14743TIP3   OH265643   5.142   3.728   2.851  0.0645  0.1179  0.2382
14743TIP3    H165644   5.198   3.725   2.929 -1.6713 -0.8712  1.5374
14743TIP3    H265645   5.135   3.637   2.823  0.5112  0.4456 -0.9838
14744TIP3   OH265646   2.322   0.954   2.241 -0.0316 -0.6062 -0.0897
14744TIP3    H165647   2.377   0.898   2.295  0.3054  0.1765  0.4039
14744TIP3    H265648   2.369   0.962   2.158  1.4230  1.3003  0.8506
14745TIP3   OH265649   5.083   3.361  14.633  0.0892 -0.4074 -0.4830
14745TIP3    H165650   5.074   3.421  14.707 -0.8194 -2.7522  1.4462
14745TIP3    H265651   5.019   3.392  14.569 -0.9065  0.2753  0.7844
14746TIP3   OH265652   1.503   0.342  16.210  0.1528 -0.4395 -0.0024
14746TIP3    H165653   1.434   0.348  16.143  0.8410 -0.5086 -0.7248
14746TIP3    H265654   1.557   0.420  16.196  0.3451 -0.4913  0.4325
14747TIP3   OH265655   3.769   4.353  17.295 -0.0227 -0.2026  0.2819
14747TIP3    H165656   3.777   4.399  17.212  1.8203 -0.5298  0.2359
14747TIP3    H265657   3.676   4.357  17.317 -0.2361  1.5159 -0.8495
14748TIP3   OH265658   6.351   2.746   4.998 -0.1859  0.0207 -0.3873
14748TIP3    H165659   6.260   2.742   5.027 -0.3883  0.4440 -0.9541
14748TIP3    H265660   6.351   2.705   4.911  0.0938  0.3764 -0.5558
14749TIP3   OH265661   4.986   2.001   1.295 -0.0225 -0.4947 -0.5870
14749TIP3    H165662   5.061   1.980   1.350 -0.3482  0.1275  0.1103
14749TIP3    H265663   4.937   1.919   1.290 -0.3205 -0.4089  0.5886
14750TIP3   OH265664   6.501   2.037   1.129 -0.2747  0.2841 -0.3080
14750TIP3    H165665   6.539   2.069   1.047  0.1580 -2.3890 -1.2635
14750TIP3    H265666   6.576   2.026   1.187 -0.7041  3.3340  0.9968
14751TIP3   OH265667   2.005   4.639   3.688 -0.0581  0.4017 -0.0773
14751TIP3    H165668   1.991   4.701   3.616 -0.4485 -0.5356 -0.8265
14751TIP3    H265669   1.968   4.557   3.656  1.2690 -0.4584  0.5410
14752TIP3   OH265670   5.417   2.635   1.231 -0.1093  0.1219 -0.2363
14752TIP3    H165671   5.426   2.626   1.326 -0.8839 -0.5315 -0.2130
14752TIP3    H265672   5.325   2.619   1.214  0.0510  0.0781 -1.1196
14753TIP3   OH265673   5.859   1.901  14.134  0.0509 -0.6268  0.7570
14753TIP3    H165674   5.910   1.942  14.063 -2.0644 -0.3630 -0.6871
14753TIP3    H265675   5.923   1.846  14.180  1.6472 -0.3095 -0.9615
14754TIP3   OH265676   3.909   2.502   3.015  0.2712  0.2633 -0.4802
14754TIP3    H165677   3.863   2.565   2.961 -0.2825  0.1304 -0.1644
14754TIP3    H265678   3.861   2.420   3.003 -0.9796  0.6275  1.6149
14755TIP3   OH265679   6.661   1.655   4.849 -0.3978  0.5104  0.1869
14755TIP3    H165680   6.700   1.568   4.845  1.6015  1.3787 -1.3376
14755TIP3    H265681   6.567   1.640   4.844 -0.1818 -1.5838  1.2259
14756TIP3   OH265682   3.786   0.419  14.683  0.2338 -0.4246  0.2748
14756TIP3    H165683   3.840   0.376  14.749 -0.7171 -0.1214  1.2715
14756TIP3    H265684   3.714   0.358  14.668 -0.9163  0.6107  1.4099
14757TIP3   OH265685   1.182   5.875  14.882  0.1003 -0.3543 -0.2838
14757TIP3    H165686   1.102   5.823  14.888  0.6319 -1.1641  0.0016
14757TIP3    H265687   1.237   5.828  14.819  0.8541 -0.5135  0.4736
14758TIP3   OH265688   3.246   0.527   4.797 -0.2402  0.1458 -0.0267
14758TIP3    H165689   3.229   0.501   4.888 -0.4072 -2.6267 -0.7531
14758TIP3    H265690   3.162   0.558   4.765 -0.8552 -1.3325  0.0688
14759TIP3   OH265691   4.650   1.420   2.381  0.3171 -0.5571  0.2367
14759TIP3    H165692   4.646   1.456   2.469 -1.1730  1.1080 -0.4420
14759TIP3    H265693   4.690   1.334   2.391  1.0083 -0.0272  2.3918
14760TIP3   OH265694   6.197   0.626   2.195 -0.2830  0.5222  0.2671
14760TIP3    H165695   6.133   0.555   2.198 -0.0309  0.2019 -1.1833
14760TIP3    H265696   6.145   0.705   2.178 -0.5318  0.6644  1.5887
14761TIP3   OH265697   2.788   0.710  13.891 -0.3876  0.4441 -0.0734
14761TIP3    H165698   2.772   0.760  13.811  0.1653  1.0832  0.2092
14761TIP3    H265699   2.851   0.763  13.941 -1.5585  0.6351  1.3025
14762TIP3   OH265700   4.109   2.616  15.298 -0.2710  0.3223 -0.1146
14762TIP3    H165701   4.170   2.648  15.232  0.4852 -1.1083 -0.1439
14762TIP3    H265702   4.023   2.647  15.268  0.1548  0.3771 -1.3234
14763TIP3   OH265703   6.160   3.323  12.964 -0.0337  0.1428 -0.2099
14763TIP3    H165704   6.172   3.337  12.869 -0.0578  1.7352 -0.0193
14763TIP3    H265705   6.128   3.234  12.972  0.3655 -0.1604 -1.6797
14764TIP3   OH265706   6.231   4.996   1.554 -0.4701 -0.0980  0.3039
14764TIP3    H165707   6.311   4.982   1.505 -0.9875 -3.6725  0.1769
14764TIP3    H265708   6.243   5.081   1.597  1.7547  1.2156 -2.5631
14765TIP3   OH265709   2.425   5.000  14.513  0.0147 -0.1845  0.2362
14765TIP3    H165710   2.517   5.017  14.529  0.1998 -1.4651  0.6151
14765TIP3    H265711   2.424   4.916  14.466 -0.9440 -0.1231  0.1299
14766TIP3   OH265712   2.696   0.211  12.950  0.3101  0.1068  0.2215
14766TIP3    H165713   2.686   0.292  13.001 -1.4980  0.4079 -0.5179
14766TIP3    H265714   2.756   0.235  12.879  0.7115  0.4619  0.6773
14767TIP3   OH265715   6.289   1.409   1.111  0.1827  0.1472  0.3713
14767TIP3    H165716   6.201   1.446   1.121 -0.8095 -2.1539  0.7022
14767TIP3    H265717   6.343   1.484   1.084 -1.7037  1.7748  0.8361
14768TIP3   OH265718   3.736   2.992  12.333 -0.3743  0.0182 -0.0051
14768TIP3    H165719   3.820   2.974  12.290 -0.9990 -0.4769 -1.0387
14768TIP3    H265720   3.755   2.981  12.427  0.7251 -0.0375 -0.2160
14769TIP3   OH265721   6.466   2.082  16.647 -0.0054 -0.1160 -0.8395
14769TIP3    H165722   6.393   2.135  16.680  0.3138  0.0962 -0.4599
14769TIP3    H265723   6.496   2.032  16.723  0.4607  0.0545 -0.9024
14770TIP3   OH265724   2.002   2.206  14.664 -0.4695  0.1194 -0.3420
14770TIP3    H165725   2.051   2.133  14.627 -0.5246  0.0133 -0.2094
14770TIP3    H265726   2.016   2.279  14.604 -0.2206  0.0656 -0.3481
14771TIP3   OH265727   4.258   4.809   5.053  0.5419 -0.5299  0.0482
14771TIP3    H165728   4.266   4.736   5.114  1.4421 -1.0672 -0.6696
14771TIP3    H265729   4.166   4.809   5.026 -0.1154  0.3383  2.1082
14772TIP3   OH265730   2.559   2.567   4.834  0.2661 -0.4125  0.0371
14772TIP3    H165731   2.587   2.476   4.844 -2.0029 -1.1028  0.5888
14772TIP3    H265732   2.641   2.616   4.821  1.7413 -2.1901  2.0368
14773TIP3   OH265733   5.437   1.122  16.731  0.3517  0.5246  0.2236
14773TIP3    H165734   5.514   1.090  16.779 -0.8823 -3.1133  0.0643
14773TIP3    H265735   5.419   1.053  16.667 -1.4217  2.6079 -1.6483
14774TIP3   OH265736   4.452   5.771   4.993  0.3704 -0.2027 -0.0894
14774TIP3    H165737   4.436   5.817   5.076 -0.7761 -0.2327 -0.2766
14774TIP3    H265738   4.475   5.682   5.019  1.1908  0.0867  0.2251
14775TIP3   OH265739   0.208   1.737  16.619  0.7136 -0.1356  0.8291
14775TIP3    H165740   0.114   1.748  16.604  0.9269 -0.5361 -1.1022
14775TIP3    H265741   0.230   1.805  16.682 -0.7583  0.3552  0.8611
14776TIP3   OH265742   3.984   1.612  16.558  0.4319 -0.1242 -0.4852
14776TIP3    H165743   3.966   1.521  16.537  1.0248 -0.6020  0.9605
14776TIP3    H265744   3.947   1.625  16.645  0.1412  1.0928 -0.7671
14777TIP3   OH265745   4.950   0.965  17.317  0.5230 -0.0026 -0.0988
14777TIP3    H165746   4.905   0.951  17.234 -2.1284  1.0542  1.0686
14777TIP3    H265747   4.956   1.060  17.325  0.6980 -0.0884  0.9419
14778TIP3   OH265748   1.886   2.136  15.384 -0.7481 -0.6779  0.2536
14778TIP3    H165749   1.807   2.099  15.343 -0.7650 -1.0525  0.6111
14778TIP3    H265750   1.951   2.066  15.378  0.5768  0.6325 -2.7996
14779TIP3   OH265751   1.124   1.210  16.341 -0.2360 -0.5337 -0.0175
14779TIP3    H165752   1.069   1.200  16.418 -0.8046 -1.2648 -0.5042
14779TIP3    H265753   1.092   1.145  16.279  1.1888 -1.0019 -0.3124
14780TIP3   OH265754   0.065   2.498  11.402 -0.0479  0.2010 -0.0138
14780TIP3    H165755  -0.019   2.473  11.440 -0.6156  0.8880 -0.7573
14780TIP3    H265756   0.061   2.464  11.312  1.1387 -1.1385  0.4092
14781TIP3   OH265757   0.674   2.802   3.012 -0.0319 -0.2270  0.3873
14781TIP3    H165758   0.581   2.824   3.017 -0.5742 -1.1614 -2.9637
14781TIP3    H265759   0.716   2.882   2.979  0.3445  0.1006  1.6178
14782TIP3   OH265760   2.858   5.195   3.359  0.0666  0.2911 -0.2782
14782TIP3    H165761   2.779   5.237   3.392 -1.2571 -3.0353  1.2614
14782TIP3    H265762   2.893   5.257   3.295 -1.6076  3.6114  1.7393
14783TIP3   OH265763   5.900   3.136   2.598  0.1095  0.2029 -0.4121
14783TIP3    H165764   5.900   3.123   2.503  1.4337 -0.5343 -0.3339
14783TIP3    H265765   5.889   3.230   2.610  0.9469  0.4262 -1.3302
14784TIP3   OH265766   6.208   1.112  12.618 -0.3746  0.4867  0.1432
14784TIP3    H165767   6.118   1.089  12.593  0.1053 -2.3304  0.7329
14784TIP3    H265768   6.253   1.028  12.627  2.2067  1.7996  0.4023
14785TIP3   OH265769   5.397   2.869   5.254  0.2451  0.4492 -0.1345
14785TIP3    H165770   5.380   2.918   5.173  0.0651  1.5194  0.5246
14785TIP3    H265771   5.468   2.918   5.297  1.6609 -1.1704 -0.5092
14786TIP3   OH265772   3.486   2.479   5.396  1.1677 -0.8591  0.0792
14786TIP3    H165773   3.530   2.512   5.474 -2.4239  0.1398  1.9138
14786TIP3    H265774   3.528   2.525   5.323  1.1968  2.3190  1.9225
14787TIP3   OH265775   2.547   5.331   6.662 -0.3533 -0.3623 -0.6362
14787TIP3    H165776   2.522   5.305   6.573  1.0003 -3.4954 -0.2553
14787TIP3    H265777   2.468   5.367   6.700 -1.3420 -0.2538 -2.6770
14788TIP3   OH265778   2.793   5.186   4.361  0.2065 -0.0613 -0.4938
14788TIP3    H165779   2.852   5.130   4.310 -0.0192 -0.1095 -0.7032
14788TIP3    H265780   2.743   5.234   4.295  0.8832  0.9162 -0.3279
14789TIP3   OH265781   6.570   2.854  11.552 -0.2873  0.0393 -0.2150
14789TIP3    H165782   6.528   2.861  11.637  0.5403  0.2686  0.1894
14789TIP3    H265783   6.628   2.778  11.560 -0.1617  0.0970 -0.5490
14790TIP3   OH265784   4.543   3.446  16.419 -0.2426  0.5440  0.5523
14790TIP3    H165785   4.585   3.391  16.353  0.4949  0.8105  0.7870
14790TIP3    H265786   4.456   3.408  16.431 -0.1442  0.1094 -0.0984
14791TIP3   OH265787   2.450   0.300  16.596 -0.3763  0.2404  0.1111
14791TIP3    H165788   2.422   0.389  16.615 -1.3427 -0.1712  0.6962
14791TIP3    H265789   2.483   0.303  16.506 -2.9954  0.6323 -0.9067
14792TIP3   OH265790   2.529   4.809  11.743 -0.2076  0.3231 -0.0716
14792TIP3    H165791   2.498   4.852  11.823 -2.4082 -0.6223 -0.3478
14792TIP3    H265792   2.455   4.814  11.683  1.2124  0.5202 -1.8917
14793TIP3   OH265793   0.340   2.750  13.169 -0.5479  0.2247 -0.4631
14793TIP3    H165794   0.268   2.713  13.118  0.0661  0.5836 -1.6145
14793TIP3    H265795   0.380   2.815  13.111  0.2217  0.5885  0.4468
14794TIP3   OH265796   0.533   4.428   3.856  0.0969 -0.4719 -0.0379
14794TIP3    H165797   0.620   4.430   3.897  0.0206 -0.9785  0.1500
14794TIP3    H265798   0.496   4.514   3.876 -0.1057 -0.8531  1.3214
14795TIP3   OH265799   5.310   6.213   2.148  0.0751  0.0796  0.3188
14795TIP3    H165800   5.375   6.144   2.137  0.4935  0.5508 -0.2189
14795TIP3    H265801   5.331   6.254   2.232  3.4834  3.2898 -1.8163
14796TIP3   OH265802   0.251   1.483   6.012 -0.2360  0.3240 -0.7245
14796TIP3    H165803   0.276   1.574   5.997  1.0139  0.2794  0.8328
14796TIP3    H265804   0.327   1.443   6.054 -1.6230 -0.7825  0.9124
14797TIP3   OH265805   6.657   4.469  15.176  0.1986  0.1182  0.0200
14797TIP3    H165806   6.744   4.492  15.209 -0.5263  1.3143  1.2394
14797TIP3    H265807   6.606   4.450  15.255 -0.9089  0.4627 -0.5807
14798TIP3   OH265808   5.450   3.412   3.707 -0.0989  0.3684 -0.0283
14798TIP3    H165809   5.447   3.329   3.661 -1.9191  1.1796 -1.5280
14798TIP3    H265810   5.358   3.435   3.722  0.2492  2.8352 -1.1132
14799TIP3   OH265811   3.800   1.394   3.438  0.4613 -0.0049 -0.1603
14799TIP3    H165812   3.767   1.453   3.371 -3.0924  0.6792  1.9019
14799TIP3    H265813   3.812   1.450   3.515  0.3072 -1.4032  0.9190
14800TIP3   OH265814   3.111   6.521  14.696  0.5208 -0.2256 -0.0731
14800TIP3    H165815   3.087   6.522  14.604 -0.9727 -1.3585  0.2648
14800TIP3    H265816   3.075   6.602  14.731  3.2273  1.4632 -0.9145
14801TIP3   OH265817   2.961   3.212  14.953 -0.1846  0.3050  0.5802
14801TIP3    H165818   3.003   3.147  15.010 -1.0293 -0.6937  0.1077
14801TIP3    H265819   2.981   3.183  14.864  1.4429  2.0608  0.3158
14802TIP3   OH265820   5.241   3.707  15.568  0.3954 -0.4967  0.0611
14802TIP3    H165821   5.233   3.615  15.543 -0.0454 -0.1442 -1.1385
14802TIP3    H265822   5.199   3.712  15.654  1.0204 -1.5333  0.4466
14803TIP3   OH265823   1.899   5.718  12.830  0.2755  0.6514 -0.0525
14803TIP3    H165824   1.831   5.714  12.763  0.7598  1.4416 -0.6132
14803TIP3    H265825   1.980   5.698  12.783  0.4928  0.1164  0.5291
14804TIP3   OH265826   1.897   2.510  13.682 -0.0715 -0.2976  0.4982
14804TIP3    H165827   1.843   2.566  13.738 -0.2535 -0.1550  0.1805
14804TIP3    H265828   1.858   2.519  13.595  0.0999 -0.6618  0.3840
14805TIP3   OH265829   3.654   2.187   2.120 -0.7302 -0.0029 -0.2240
14805TIP3    H165830   3.589   2.203   2.051 -0.1567 -0.8681 -0.9902
14805TIP3    H265831   3.669   2.273   2.159 -0.4872  0.6672 -1.7134
14806TIP3   OH265832   4.606   4.666  12.796 -0.1413  1.0091 -0.6764
14806TIP3    H165833   4.618   4.608  12.721 -1.8885  0.2011 -0.3769
14806TIP3    H265834   4.687   4.718  12.799  0.6242 -0.0163 -2.1533
14807TIP3   OH265835   1.647   2.843  13.709  0.2419 -0.1533 -0.2091
14807TIP3    H165836   1.565   2.876  13.746  0.3577  0.3367 -0.3853
14807TIP3    H265837   1.701   2.921  13.697  0.9828 -0.5416  0.5064
14808TIP3   OH265838   5.449   5.270  14.438  0.1346 -0.3698  0.2880
14808TIP3    H165839   5.356   5.250  14.425 -0.8267  3.8300 -0.9751
14808TIP3    H265840   5.461   5.263  14.533 -1.3127 -1.5136  0.4318
14809TIP3   OH265841   6.258   1.345  12.470 -0.3692  0.4413 -0.2065
14809TIP3    H165842   6.270   1.268  12.525  0.2077  0.2535 -0.5860
14809TIP3    H265843   6.332   1.344  12.410  0.3926  2.0227  0.6380
14810TIP3   OH265844   0.601   0.618   1.849  0.2799 -0.0936 -0.0836
14810TIP3    H165845   0.565   0.704   1.829  3.4921  1.6243  0.6898
14810TIP3    H265846   0.635   0.586   1.765  0.2646  0.0379 -0.1408
14811TIP3   OH265847   3.301   3.790   3.117 -0.4564  0.0686  0.0537
14811TIP3    H165848   3.254   3.857   3.067 -0.4975 -0.0565 -0.0767
14811TIP3    H265849   3.394   3.810   3.104 -0.4157 -0.8597 -1.3336
14812TIP3   OH265850   3.928   3.370   1.740 -0.2648 -0.1288 -0.2557
14812TIP3    H165851   3.939   3.326   1.823 -2.1121  0.4755  0.3771
14812TIP3    H265852   3.984   3.447   1.745  0.7779 -0.8778 -0.2098
14813TIP3   OH265853   2.952   1.147  17.096  0.1998  0.3648  0.3302
14813TIP3    H165854   2.996   1.064  17.112  0.1884  0.6029  1.6786
14813TIP3    H265855   3.012   1.213  17.130  0.0330  0.8924 -0.3770
14814TIP3   OH265856   0.128   2.264   3.506  0.2946 -0.2652  0.2049
14814TIP3    H165857   0.201   2.216   3.545 -0.7400 -2.9687 -0.9154
14814TIP3    H265858   0.169   2.322   3.441  1.6086  0.6711  1.7864
14815TIP3   OH265859   4.309   4.695  16.572 -0.5010 -0.3726  0.8104
14815TIP3    H165860   4.304   4.785  16.603  2.5027 -0.0821  0.7053
14815TIP3    H265861   4.309   4.641  16.651 -1.1539 -0.2197  0.9179
14816TIP3   OH265862   5.642   5.845   4.363  0.4848  0.9020  0.4062
14816TIP3    H165863   5.720   5.848   4.307 -0.0140  0.7198 -0.3054
14816TIP3    H265864   5.588   5.776   4.325 -0.0213  1.0162  0.9081
14817TIP3   OH265865   5.702   4.685   3.474  0.1095 -0.1692 -0.3705
14817TIP3    H165866   5.609   4.667   3.458 -0.3641  2.1835 -0.6825
14817TIP3    H265867   5.702   4.765   3.526  1.9812 -0.0094 -0.5538
14818TIP3   OH265868   2.476   4.482  13.534 -0.1973  0.5404 -0.0121
14818TIP3    H165869   2.545   4.479  13.600  0.0326 -0.2276 -0.2752
14818TIP3    H265870   2.468   4.392  13.502  1.7697  1.3183 -3.1661
14819TIP3   OH265871   0.699   5.614   2.579  0.1886 -0.2972 -0.2917
14819TIP3    H165872   0.704   5.540   2.518  0.7042 -0.4546 -0.0686
14819TIP3    H265873   0.764   5.676   2.546  0.5483 -0.4329  0.1625
14820TIP3   OH265874   1.191   6.577  12.709 -0.0309  0.0394  0.5253
14820TIP3    H165875   1.226   6.499  12.751 -1.1845  0.1518  1.7394
14820TIP3    H265876   1.200   6.646  12.774 -2.2666  0.1214  0.8253
14821TIP3   OH265877   4.908   4.050   1.271  0.0275  0.3933 -0.0572
14821TIP3    H165878   4.830   4.041   1.216 -0.2656  1.1250  0.2299
14821TIP3    H265879   4.919   3.963   1.311  0.9792 -0.5468 -2.1933
14822TIP3   OH265880   1.800   1.377   4.758  0.0584  0.4424  0.4614
14822TIP3    H165881   1.746   1.385   4.837  1.7144 -0.9994  1.8020
14822TIP3    H265882   1.861   1.451   4.764 -0.9656  1.4133 -0.4800
14823TIP3   OH265883   2.332   4.552  16.683 -0.1884 -0.8183  0.0356
14823TIP3    H165884   2.381   4.539  16.764 -2.3955 -2.4186  1.2295
14823TIP3    H265885   2.369   4.489  16.621  1.6516  0.5611 -0.3319
14824TIP3   OH265886   4.731   2.995  10.884  0.2178 -0.6738  0.4249
14824TIP3    H165887   4.779   3.018  10.964  1.4033 -2.2154  0.1907
14824TIP3    H265888   4.663   3.062  10.878  0.7548  0.0981  2.1496
14825TIP3   OH265889   1.598   5.196   1.191 -0.5411  0.1616  1.0292
14825TIP3    H165890   1.645   5.271   1.227 -0.3249  1.2956 -1.4190
14825TIP3    H265891   1.525   5.235   1.142  0.5308 -1.0027 -1.7319
14826TIP3   OH265892   0.541   0.990   1.118  0.3723  0.0695 -0.2644
14826TIP3    H165893   0.521   1.065   1.173  1.6650  0.6279 -0.5214
14826TIP3    H265894   0.460   0.939   1.115 -0.1786  0.8672  0.8272
14827TIP3   OH265895   2.535   4.168   4.259 -0.5075  0.5473 -0.7729
14827TIP3    H165896   2.623   4.151   4.226 -0.1474 -0.1221  0.4591
14827TIP3    H265897   2.478   4.112   4.206 -0.1487  0.6409 -1.2663
14828TIP3   OH265898   5.531   5.656   3.426 -0.0956  0.2275 -0.4035
14828TIP3    H165899   5.545   5.672   3.519  2.9140 -1.1040 -0.4849
14828TIP3    H265900   5.597   5.710   3.382 -0.2318 -0.5504 -1.6224
14829TIP3   OH265901   3.692   2.316  16.231  0.2612  0.0431  0.3940
14829TIP3    H165902   3.651   2.255  16.293 -1.1240  0.5900  0.0646
14829TIP3    H265903   3.672   2.403  16.266  0.1266  0.3462 -0.4124
14830TIP3   OH265904   3.489   2.088  14.875 -0.0435  0.7573 -0.8954
14830TIP3    H165905   3.530   2.111  14.792 -0.1397  2.7692 -0.4396
14830TIP3    H265906   3.407   2.046  14.850  0.9350 -0.7297 -1.7926
14831TIP3   OH265907   3.150   0.364  11.066 -0.1968 -0.2286  0.0989
14831TIP3    H165908   3.219   0.372  11.000 -1.0793  1.2217 -0.6733
14831TIP3    H265909   3.147   0.449  11.109 -0.9976 -0.5262  0.6542
14832TIP3   OH265910   3.151   6.089   4.259 -0.4635  0.1689  0.2572
14832TIP3    H165911   3.234   6.054   4.293 -1.5911 -0.1183  2.9813
14832TIP3    H265912   3.169   6.182   4.245  0.4298  0.0465  0.4884
14833TIP3   OH265913   2.667   1.516   2.632  0.6374  0.0412 -0.3886
14833TIP3    H165914   2.583   1.543   2.670  0.9396 -0.6672  0.8746
14833TIP3    H265915   2.662   1.541   2.540 -0.2044  1.7344  0.0771
14834TIP3   OH265916   1.441   2.632  16.652 -0.6665 -0.4261 -0.0034
14834TIP3    H165917   1.371   2.567  16.642  0.9411 -1.9850 -1.9081
14834TIP3    H265918   1.434   2.662  16.743 -2.7889 -1.6737  0.3070
14835TIP3   OH265919   3.310   3.415  15.440 -0.1953  0.1186  0.0934
14835TIP3    H165920   3.268   3.459  15.367  0.0035  0.4100  0.1541
14835TIP3    H265921   3.367   3.349  15.399  1.1366  1.3390 -0.0873
14836TIP3   OH265922   1.566   0.098   0.809 -0.2209 -0.9438 -0.0494
14836TIP3    H165923   1.553   0.114   0.903 -0.9093 -0.2664 -0.2479
14836TIP3    H265924   1.609   0.177   0.777  0.5778 -1.4281 -0.2004
14837TIP3   OH265925   3.469   3.843  13.294  0.0382  0.5378 -0.5996
14837TIP3    H165926   3.537   3.910  13.300  0.0643  0.4465  0.1484
14837TIP3    H265927   3.481   3.790  13.372  0.5805 -0.8803 -1.6080
14838TIP3   OH265928   4.194   0.801   5.419 -0.4457 -0.5007 -0.1765
14838TIP3    H165929   4.163   0.850   5.495  1.9029  1.3628 -0.2914
14838TIP3    H265930   4.218   0.715   5.453 -2.0287 -0.6672  0.5873
14839TIP3   OH265931   2.984   0.995  15.666  0.1863  0.3502 -0.1567
14839TIP3    H165932   3.029   0.936  15.726 -0.3146  1.2757  1.1849
14839TIP3    H265933   2.892   0.969  15.671 -0.0831  1.3903  0.6726
14840TIP3   OH265934   0.035   0.944  15.339 -0.0573 -0.0104 -0.0798
14840TIP3    H165935  -0.022   0.894  15.281  0.2676 -1.2029  0.6002
14840TIP3    H265936   0.111   0.887  15.353 -0.2035  0.1664  1.6385
14841TIP3   OH265937   3.185   5.719   1.879  0.4221  0.5103  0.5483
14841TIP3    H165938   3.220   5.641   1.835  1.7857 -0.0733  2.5121
14841TIP3    H265939   3.206   5.705   1.972 -0.5167  2.6068  1.1259
14842TIP3   OH265940   0.134   1.682  14.090 -0.7495 -0.0911 -0.2209
14842TIP3    H165941   0.072   1.611  14.107  0.8143 -1.9208 -1.7538
14842TIP3    H265942   0.083   1.747  14.041 -2.2471 -0.0356  1.3406
14843TIP3   OH265943   3.949   1.703  10.571  0.3605 -0.2471  0.1497
14843TIP3    H165944   3.938   1.681  10.479  1.3206  0.1245 -0.0675
14843TIP3    H265945   3.971   1.796  10.571  1.4794 -0.4977  0.6609
14844TIP3   OH265946   1.510   3.713  11.933 -0.0462 -0.1663 -0.1300
14844TIP3    H165947   1.549   3.637  11.976 -0.8281 -1.8645 -2.2186
14844TIP3    H265948   1.422   3.684  11.910 -0.2235  1.2380 -1.3366
14845TIP3   OH265949   5.660   6.464   5.091  0.4135  0.3486  0.2433
14845TIP3    H165950   5.595   6.507   5.147 -0.2235 -2.0208  1.4600
14845TIP3    H265951   5.702   6.536   5.044 -1.3942  2.1692  1.2286
14846TIP3   OH265952   0.645   1.760  15.782  0.0103 -0.4344 -0.2787
14846TIP3    H165953   0.729   1.805  15.776 -0.3256  0.3977  0.8299
14846TIP3    H265954   0.636   1.737  15.875 -0.9635 -0.5342 -0.3826
14847TIP3   OH265955   4.371   0.269  15.864  0.2861  0.0950 -0.0378
14847TIP3    H165956   4.427   0.302  15.794 -0.9296  0.7947 -0.7203
14847TIP3    H265957   4.363   0.342  15.926  0.3055 -0.0743  0.1671
14848TIP3   OH265958   3.768   3.295   5.013 -0.2231  0.9752 -0.0287
14848TIP3    H165959   3.798   3.205   4.999  0.6801  1.4559 -1.3887
14848TIP3    H265960   3.849   3.345   5.025 -0.7237  1.5957  0.8717
14849TIP3   OH265961   2.771   3.293   0.474  0.1658  0.1326  0.5568
14849TIP3    H165962   2.724   3.303   0.391  1.0154 -0.4456 -0.0138
14849TIP3    H265963   2.784   3.382   0.506  2.2418  0.6095 -1.3425
14850TIP3   OH265964   0.807   2.888  14.202 -0.2412  0.1548 -0.1675
14850TIP3    H165965   0.805   2.819  14.136  0.1114 -0.3078  0.2981
14850TIP3    H265966   0.874   2.861  14.264 -0.6315  0.5327  0.4368
14851TIP3   OH265967   0.632   4.093  11.178  0.0708 -0.2686 -0.2370
14851TIP3    H165968   0.707   4.035  11.187 -0.6325 -1.1747 -0.1112
14851TIP3    H265969   0.567   4.059  11.239 -0.0126  1.2414  0.5807
14852TIP3   OH265970   6.655   2.142  13.454  0.1051 -0.4312 -0.4371
14852TIP3    H165971   6.666   2.187  13.371  0.2884  0.5487  0.1076
14852TIP3    H265972   6.607   2.062  13.432 -0.1533 -0.0111 -1.4236
14853TIP3   OH265973   2.617   2.243  11.364 -0.4886 -0.2918  0.1309
14853TIP3    H165974   2.533   2.271  11.401 -0.3440 -0.5664  0.6726
14853TIP3    H265975   2.647   2.174  11.422 -0.5042 -1.0939 -0.8003
14854TIP3   OH265976   2.015   6.139   0.759 -0.1320 -0.5038  0.1260
14854TIP3    H165977   2.100   6.131   0.803  0.4745  0.8238 -0.7229
14854TIP3    H265978   1.978   6.051   0.762  2.1477 -1.6109 -1.1308
14855TIP3   OH265979   4.817   5.354  15.432 -0.3613 -0.0158 -0.2063
14855TIP3    H165980   4.827   5.327  15.341  1.2421 -3.2220  0.7937
14855TIP3    H265981   4.731   5.320  15.459  0.9457 -3.0451  0.5636
14856TIP3   OH265982   4.882   0.529   5.513  0.5820 -0.9724  0.4648
14856TIP3    H165983   4.903   0.437   5.500 -1.6057 -1.5021  0.4020
14856TIP3    H265984   4.833   0.554   5.435  0.5215  0.0650  0.8144
14857TIP3   OH265985   5.160   6.265   5.241 -0.0250  0.7159 -0.7555
14857TIP3    H165986   5.142   6.193   5.180 -0.6215  0.7027 -0.5632
14857TIP3    H265987   5.156   6.343   5.186 -3.8228  1.0563 -0.2228
14858TIP3   OH265988   2.287   4.659   2.599  0.3405  0.4567 -0.1573
14858TIP3    H165989   2.349   4.612   2.545 -0.6987 -1.0246 -0.1222
14858TIP3    H265990   2.214   4.679   2.541  0.7775  2.1189 -0.1842
14859TIP3   OH265991   0.751   6.021  12.213  0.4405 -0.3183  0.1422
14859TIP3    H165992   0.750   6.085  12.285  0.0357 -0.7708  0.5528
14859TIP3    H265993   0.797   5.946  12.249 -2.9598 -2.0471  1.3222
14860TIP3   OH265994   4.236   0.062   4.593  0.1188  0.5936 -0.2022
14860TIP3    H165995   4.189   0.078   4.511 -0.4133 -0.6245 -0.1694
14860TIP3    H265996   4.217  -0.030   4.613 -1.7903  1.4456  2.5642
14861TIP3   OH265997   1.575   5.459  14.213 -0.4883  0.2405 -0.6434
14861TIP3    H165998   1.609   5.376  14.179 -1.0675  0.4226 -1.7249
14861TIP3    H265999   1.560   5.512  14.134 -1.6148  0.7955 -0.0745
14862TIP3   OH266000   6.243   1.084   1.403  0.0409  0.0435  0.1698
14862TIP3    H166001   6.164   1.029   1.404  0.1702 -0.2737 -2.1608
14862TIP3    H266002   6.298   1.048   1.473 -1.2429 -0.6815  0.8400
14863TIP3   OH266003   6.710   6.425   1.424 -0.7734 -0.0455 -0.2403
14863TIP3    H166004   6.776   6.458   1.363  0.1131 -2.7525 -0.9132
14863TIP3    H266005   6.738   6.454   1.510 -0.0045  0.7600 -0.7509
14864TIP3   OH266006   6.373   6.028  12.624 -0.3198  0.3159 -0.7083
14864TIP3    H166007   6.328   6.051  12.705 -0.2106  0.0489 -0.5684
14864TIP3    H266008   6.438   5.962  12.651 -1.1405 -0.7298 -1.2176
14865TIP3   OH266009   0.807   5.497  11.647 -0.1783 -0.1968  0.0914
14865TIP3    H166010   0.719   5.523  11.617 -0.2869 -1.0061 -0.3182
14865TIP3    H266011   0.850   5.464  11.568  1.2104  1.9947 -0.1401
14866TIP3   OH266012   0.773   5.655   4.458  0.3031 -0.2188  0.1704
14866TIP3    H166013   0.686   5.644   4.420  0.0920 -0.7519  0.7918
14866TIP3    H266014   0.821   5.576   4.433  0.9548  0.5099 -1.0190
14867TIP3   OH266015   0.097   6.391  11.396  0.8220  0.0927  0.1017
14867TIP3    H166016   0.058   6.306  11.376 -0.2358  0.8025 -0.9671
14867TIP3    H266017   0.172   6.398  11.337  0.0371  0.4995 -0.8797
14868TIP3   OH266018   2.662   0.976  13.094  0.6578  0.4333  0.1223
14868TIP3    H166019   2.723   0.961  13.165 -0.6291  1.2076  1.4634
14868TIP3    H266020   2.648   1.071  13.094  0.3228  0.4000 -0.8922
14869TIP3   OH266021   1.527   2.800   5.357 -0.1487 -0.1082 -0.0245
14869TIP3    H166022   1.594   2.732   5.353  0.8411  0.8614 -0.2224
14869TIP3    H266023   1.527   2.839   5.270 -0.0463  0.7641  0.3613
14870TIP3   OH266024   1.780   3.604  14.794  0.6268  0.1298  0.1780
14870TIP3    H166025   1.769   3.513  14.767 -1.0631  0.4269 -0.2961
14870TIP3    H266026   1.786   3.653  14.712 -0.2159  0.6085  0.3928
14871TIP3   OH266027   5.933   1.667  12.263 -0.6256  0.2859  0.7380
14871TIP3    H166028   5.923   1.604  12.192  0.0820  0.1597  0.7436
14871TIP3    H266029   5.945   1.614  12.341 -1.4673  0.4243  0.9808
14872TIP3   OH266030   6.175   5.351  11.357  0.4717 -0.3055 -0.2488
14872TIP3    H166031   6.244   5.292  11.387  0.6339 -0.8175 -1.5678
14872TIP3    H266032   6.197   5.369  11.265 -0.4182  0.5943 -0.3031
14873TIP3   OH266033   3.796   2.037   1.777  0.3174 -0.2951 -0.2059
14873TIP3    H166034   3.720   2.034   1.718 -0.1852 -1.6182  0.4626
14873TIP3    H266035   3.862   2.087   1.729 -0.4670 -0.3880 -1.4191
14874TIP3   OH266036   0.026   1.208   3.681  0.1917 -0.0281  0.4903
14874TIP3    H166037   0.114   1.171   3.682  0.4043  0.4066  2.1098
14874TIP3    H266038  -0.011   1.184   3.766 -0.9091  0.5787  0.2074
14875TIP3   OH266039   3.023   0.101  11.722 -0.2104  0.8827  0.3395
14875TIP3    H166040   2.959   0.156  11.677 -1.2014 -0.5554 -0.0873
14875TIP3    H266041   3.090   0.084  11.657 -0.3414  0.8841  0.2034
14876TIP3   OH266042   0.115   2.977   2.339 -0.3296 -0.3568 -0.5075
14876TIP3    H166043   0.104   3.066   2.303 -0.7572 -1.3023 -2.9321
14876TIP3    H266044   0.026   2.950   2.361 -0.2118 -0.2318  0.1271
14877TIP3   OH266045   5.755   1.441  11.811  0.8292  0.1764  0.5956
14877TIP3    H166046   5.743   1.346  11.817  0.6557  0.2363  1.2433
14877TIP3    H266047   5.668   1.477  11.826  1.2564  0.5132  2.5741
14878TIP3   OH266048   4.741   3.838   5.029 -0.4640 -0.3401  0.0594
14878TIP3    H166049   4.710   3.901   5.094 -2.0896  0.7074 -1.6444
14878TIP3    H266050   4.744   3.887   4.947  0.2238 -1.9661 -0.9418
14879TIP3   OH266051   0.265   2.922  12.785  0.6319 -0.0624  0.2626
14879TIP3    H166052   0.232   2.963  12.865  0.0506 -0.6255  0.3280
14879TIP3    H266053   0.340   2.870  12.813  1.1620  0.6850  0.2350
14880TIP3   OH266054   2.610   3.480  16.794 -0.0113 -0.0836  0.2562
14880TIP3    H166055   2.549   3.494  16.722 -0.3391  0.0107  0.5443
14880TIP3    H266056   2.566   3.416  16.850 -1.0523  1.8410  1.7941
14881TIP3   OH266057   2.866   0.709  12.196 -0.1295 -0.5872 -0.0053
14881TIP3    H166058   2.813   0.640  12.236 -0.9693  0.6150  1.0584
14881TIP3    H266059   2.823   0.790  12.223  0.3423  0.3430 -1.9073
14882TIP3   OH266060   4.644   1.968  16.395 -0.2042 -0.3385  0.0162
14882TIP3    H166061   4.581   2.038  16.377 -0.1350  0.1125  1.4027
14882TIP3    H266062   4.598   1.888  16.370  0.0137  0.2081 -2.3933
14883TIP3   OH266063   5.459   6.321   4.933 -0.1942 -0.6296 -0.2351
14883TIP3    H166064   5.440   6.388   4.868 -1.3306  0.1805  0.8913
14883TIP3    H266065   5.543   6.347   4.971  1.3918 -2.0565 -2.4931
14884TIP3   OH266066   3.553   2.807  12.980  0.5312 -0.1519  0.8042
14884TIP3    H166067   3.520   2.742  12.917  1.4102  1.1286 -1.0720
14884TIP3    H266068   3.474   2.848  13.015 -0.0007  1.0472 -1.6294
14885TIP3   OH266069   1.639   4.004  12.133 -0.1051  0.9573 -0.1408
14885TIP3    H166070   1.661   3.955  12.053 -2.6852  0.3371 -0.5498
14885TIP3    H266071   1.623   3.936  12.199  4.0818  1.4496  1.6983
14886TIP3   OH266072   5.722   1.862   5.732  0.2518 -0.1730  0.0599
14886TIP3    H166073   5.661   1.824   5.796  0.2109  0.7335  0.5740
14886TIP3    H266074   5.770   1.928   5.780 -0.4961  1.2579 -1.0798
14887TIP3   OH266075   3.021   5.138   2.543 -0.3845 -1.2152 -0.9241
14887TIP3    H166076   2.927   5.136   2.561 -0.4409  0.8185 -0.7767
14887TIP3    H266077   3.052   5.218   2.586  1.6864 -2.5251  0.2054
14888TIP3   OH266078   6.355   3.534  14.768  0.0140  0.4420  0.5560
14888TIP3    H166079   6.290   3.566  14.831 -1.5028  0.3229 -0.9159
14888TIP3    H266080   6.392   3.614  14.730  1.3344  0.5363  1.9007
14889TIP3   OH266081   3.161   1.634  14.174  0.4129  0.2048 -0.5341
14889TIP3    H166082   3.150   1.543  14.202  1.6599  0.5015  1.0833
14889TIP3    H266083   3.253   1.641  14.148  0.1986  0.8830 -1.1415
14890TIP3   OH266084   3.941   6.290   1.079  0.4473 -0.5212  0.0545
14890TIP3    H166085   3.984   6.234   1.143 -0.2614 -1.8963 -0.6315
14890TIP3    H266086   3.983   6.268   0.996  1.3018  1.1806  0.0083
14891TIP3   OH266087   0.971   0.516   3.155  0.9419 -0.0338 -0.0626
14891TIP3    H166088   0.942   0.478   3.072  2.4909  1.8474 -1.5550
14891TIP3    H266089   0.903   0.490   3.218 -0.1203 -1.7851 -1.8090
14892TIP3   OH266090   1.189   5.050  13.399 -0.2290  0.7753 -0.0239
14892TIP3    H166091   1.190   5.138  13.436 -2.3581  1.3373 -1.1609
14892TIP3    H266092   1.197   5.063  13.305  0.6108 -0.3380 -0.1224
14893TIP3   OH266093   0.127   6.551   1.238 -0.0812  0.1947 -0.4832
14893TIP3    H166094   0.112   6.638   1.199 -0.3975 -0.2847 -1.4729
14893TIP3    H266095   0.113   6.490   1.165  1.3394 -0.6270 -0.0963
14894TIP3   OH266096   4.577   2.784   1.198  0.1814  0.0617  0.0370
14894TIP3    H166097   4.557   2.695   1.171  2.2905 -0.5724  0.3129
14894TIP3    H266098   4.644   2.813   1.136  0.2256  1.0838  0.5462
14895TIP3   OH266099   4.307   6.087  13.952 -0.2856  0.1339 -0.6240
14895TIP3    H166100   4.345   6.169  13.920 -1.1260  0.6452 -0.3417
14895TIP3    H266101   4.213   6.103  13.954 -0.3897 -0.4888  0.3893
14896TIP3   OH266102   4.080   4.261   5.670  0.2722  0.1445  0.0870
14896TIP3    H166103   4.107   4.287   5.582 -0.0518 -0.2168 -0.1248
14896TIP3    H266104   4.153   4.209   5.703  0.0426 -0.4333 -0.3008
14897TIP3   OH266105   0.653   6.466   4.081  0.1289  0.0366 -0.0898
14897TIP3    H166106   0.606   6.382   4.084  1.3147 -0.7126 -1.5281
14897TIP3    H266107   0.594   6.528   4.124 -1.0266 -1.4098  0.4830
14898TIP3   OH266108   4.770   6.130  11.094 -0.0747  0.6976 -0.8176
14898TIP3    H166109   4.678   6.155  11.085 -0.4297  0.1016  0.8839
14898TIP3    H266110   4.772   6.039  11.064 -0.6609 -0.2642  1.8048
14899TIP3   OH266111   2.147   5.046  15.273  0.6489  0.2188 -0.3878
14899TIP3    H166112   2.056   5.021  15.259  0.8313  0.2885 -1.7994
14899TIP3    H266113   2.179   5.069  15.186  1.2803  2.6639  0.3991
14900TIP3   OH266114   3.907   1.234  15.417  0.0937  0.0908 -0.8677
14900TIP3    H166115   3.940   1.314  15.459  2.8609 -0.3252 -2.0563
14900TIP3    H266116   3.924   1.165  15.481 -0.2580  0.1273 -0.7306
14901TIP3   OH266117   2.816   1.825   1.207  0.9018  0.0968 -0.0073
14901TIP3    H166118   2.787   1.834   1.297  1.7186 -1.4276  0.4468
14901TIP3    H266119   2.858   1.739   1.204 -0.3523 -0.5402 -2.1643
14902TIP3   OH266120   1.493   3.701   3.348  0.5896  0.3488 -0.0820
14902TIP3    H166121   1.562   3.765   3.361  0.1741  0.8256 -0.1655
14902TIP3    H266122   1.464   3.678   3.436  1.7186 -0.8334  0.0063
14903TIP3   OH266123   4.649   0.887  13.823 -0.2943 -0.2981 -0.1137
14903TIP3    H166124   4.621   0.976  13.845 -0.3536  0.0588 -1.5219
14903TIP3    H266125   4.674   0.892  13.731 -2.0512 -2.1489 -0.7690
14904TIP3   OH266126   2.532   2.522   6.182 -0.4525 -0.0434 -0.3507
14904TIP3    H166127   2.460   2.578   6.210 -0.8457 -1.2776  1.2545
14904TIP3    H266128   2.490   2.446   6.141  0.0188  0.1411 -1.2076
14905TIP3   OH266129   1.740   4.893  15.662  0.0439  0.0471  0.0262
14905TIP3    H166130   1.820   4.841  15.663  0.4475  0.6435 -0.2421
14905TIP3    H266131   1.763   4.970  15.609 -1.1136 -0.4172 -1.2037
14906TIP3   OH266132   3.049   4.260  11.698  0.1693 -0.2326 -0.0449
14906TIP3    H166133   2.982   4.192  11.701  0.0387 -0.0838  0.5570
14906TIP3    H266134   3.093   4.246  11.614 -0.3154 -0.6148 -0.2426
14907TIP3   OH266135   1.081   1.267  13.288  0.0951  0.3464 -0.3760
14907TIP3    H166136   1.100   1.185  13.333  1.2732  1.7509  1.8755
14907TIP3    H266137   1.066   1.241  13.197  1.8981 -2.2049 -0.0735
14908TIP3   OH266138   2.324   5.530  12.258  0.0269 -0.3229  0.2747
14908TIP3    H166139   2.318   5.624  12.243 -1.6887 -0.5891 -0.9754
14908TIP3    H266140   2.417   5.515  12.279  0.8490  1.3184 -1.8442
14909TIP3   OH266141   2.037   3.965  12.759 -0.3288  0.1801 -0.1488
14909TIP3    H166142   2.076   3.955  12.846  0.0059  2.8029  0.0812
14909TIP3    H266143   2.065   3.887  12.711 -0.3852 -1.2502  2.0113
14910TIP3   OH266144   0.185   0.318   5.278  0.1678 -0.1938 -0.2923
14910TIP3    H166145   0.260   0.331   5.219 -0.5314 -0.1628 -1.1956
14910TIP3    H266146   0.110   0.350   5.229 -0.5612 -0.9623  0.2866
14911TIP3   OH266147   0.788   1.537   5.108  0.1867 -0.2174  0.0206
14911TIP3    H166148   0.766   1.590   5.031 -1.1109  1.8330  1.7087
14911TIP3    H266149   0.740   1.455   5.096  1.1337 -0.5568 -1.9768
14912TIP3   OH266150   1.676   3.318  13.742 -0.1305 -0.2318  0.3270
14912TIP3    H166151   1.589   3.285  13.767 -0.6852  0.0327 -1.1254
14912TIP3    H266152   1.713   3.248  13.688  0.7249 -0.4889  1.2253
14913TIP3   OH266153   3.945   4.353  14.726 -0.3834  0.0753  0.3760
14913TIP3    H166154   3.964   4.444  14.747  0.8221 -0.5889  2.4866
14913TIP3    H266155   3.861   4.335  14.767  0.4349 -0.3324  1.9349
14914TIP3   OH266156   0.711   4.767  13.306 -0.0216 -0.3069 -0.2633
14914TIP3    H166157   0.729   4.858  13.332  1.1650 -1.1420  2.1430
14914TIP3    H266158   0.790   4.739  13.260  0.5002 -0.7383  0.8712
14915TIP3   OH266159   2.518   1.041  13.655 -0.0130  0.3781  0.3262
14915TIP3    H166160   2.484   0.971  13.710 -0.7051  0.9238  0.6162
14915TIP3    H266161   2.462   1.116  13.675 -1.1270  0.2677 -2.0084
14916TIP3   OH266162   1.265   0.571  17.165  0.1838  0.1772 -0.2245
14916TIP3    H166163   1.200   0.631  17.203 -0.3250 -0.4414 -0.1130
14916TIP3    H266164   1.341   0.627  17.147  1.5073  0.1739  4.0716
14917TIP3   OH266165   5.321   6.674  12.877 -0.0216 -0.3064 -0.2240
14917TIP3    H166166   5.339   6.596  12.824  1.1507  0.1807 -0.5736
14917TIP3    H266167   5.379   6.741  12.842  0.4667  0.1618  1.3840
14918TIP3   OH266168   1.224   6.086  17.394 -0.2511 -0.4054 -0.0759
14918TIP3    H166169   1.249   6.174  17.366  2.2070 -0.8695  0.4451
14918TIP3    H266170   1.179   6.048  17.318 -2.0607  1.4962 -0.0544
14919TIP3   OH266171   3.300   5.678  10.836  0.3992  0.7614 -0.1464
14919TIP3    H166172   3.348   5.713  10.911 -0.9295  1.0561  0.5862
14919TIP3    H266173   3.344   5.718  10.760  1.0642  1.3307  0.5130
14920TIP3   OH266174   1.339   6.743   3.564 -0.0736 -0.5327 -0.8259
14920TIP3    H166175   1.316   6.817   3.508  3.2511  0.1995 -1.4548
14920TIP3    H266176   1.397   6.689   3.510  1.4570 -0.9965  1.1565
14921TIP3   OH266177   3.830   3.544  13.919 -0.4490 -0.5233 -0.8464
14921TIP3    H166178   3.779   3.474  13.878 -0.7729 -0.9118  0.1983
14921TIP3    H266179   3.837   3.518  14.011 -0.1129  0.5546 -0.5586
14922TIP3   OH266180   4.969   6.738  17.117  0.1616  0.2239  0.2950
14922TIP3    H166181   4.917   6.768  17.043 -1.0268  0.4645  1.1963
14922TIP3    H266182   4.964   6.808  17.181  0.3550 -0.3826  0.9954
14923TIP3   OH266183   6.208   5.051   3.849  0.3772 -0.3952  0.1602
14923TIP3    H166184   6.117   5.061   3.821  0.5001 -0.2050 -0.1670
14923TIP3    H266185   6.228   4.959   3.832  0.2665 -0.4232  0.1789
14924TIP3   OH266186   5.081   0.705   0.761 -0.3753 -0.7183  0.0001
14924TIP3    H166187   5.055   0.731   0.673  1.8490 -2.1268 -1.1680
14924TIP3    H266188   5.019   0.750   0.819 -0.9228  1.5548 -2.1753
14925TIP3   OH266189   3.147   5.357   3.480 -0.0418 -0.1657  0.0436
14925TIP3    H166190   3.138   5.347   3.385  1.1137 -1.5666  0.0375
14925TIP3    H266191   3.218   5.298   3.503  0.2830  0.7974  1.6809
14926TIP3   OH266192   5.672   4.187  11.524  0.1515 -0.4257 -0.1834
14926TIP3    H166193   5.689   4.093  11.532 -0.0976 -0.4675 -0.1506
14926TIP3    H266194   5.613   4.194  11.449 -1.0366 -0.4303  0.7304
14927TIP3   OH266195   3.641   0.370   0.002  0.1950 -0.0646 -0.5049
14927TIP3    H166196   3.672   0.343   0.088 -0.5129 -0.6878 -0.4390
14927TIP3    H266197   3.653   0.292  -0.053  0.8909  0.4095 -1.0387
14928TIP3   OH266198   1.188   0.198  14.394 -0.2934  0.7378 -0.0581
14928TIP3    H166199   1.237   0.117  14.378  0.4514  1.5520 -2.2728
14928TIP3    H266200   1.116   0.196  14.330 -0.1480  1.8865 -0.2861
14929TIP3   OH266201   4.634   3.337   1.948 -0.7335 -0.2784  0.1960
14929TIP3    H166202   4.593   3.280   2.013 -0.1667 -0.6143  0.2727
14929TIP3    H266203   4.655   3.278   1.875  0.7305 -0.3899  0.6636
14930TIP3   OH266204   4.819   5.280  14.069  0.2367 -0.3955  0.1216
14930TIP3    H166205   4.748   5.343  14.076  0.7958  0.1939  0.6418
14930TIP3    H266206   4.843   5.260  14.160  1.4332  0.2308 -0.0354
14931TIP3   OH266207   4.267   3.495  11.569 -0.3158  0.4005 -0.1923
14931TIP3    H166208   4.303   3.535  11.490  0.6715 -0.1507 -0.0441
14931TIP3    H266209   4.267   3.401  11.550  0.6084  0.2031  0.7249
14932TIP3   OH266210   5.565   0.120   0.508  0.1457  0.5388  0.5367
14932TIP3    H166211   5.599   0.037   0.475  0.0832  0.3031  1.0588
14932TIP3    H266212   5.542   0.102   0.599  0.0030  1.0927  0.6126
14933TIP3   OH266213   4.719   0.096   5.232  0.0716  0.6610 -0.0487
14933TIP3    H166214   4.641   0.145   5.257  0.6744  0.8146  1.7030
14933TIP3    H266215   4.685   0.015   5.194 -1.0017  0.2394  1.6598
14934TIP3   OH266216   0.733   4.958   0.806 -0.1422  0.4360 -0.3566
14934TIP3    H166217   0.791   4.882   0.811 -1.3506 -0.5480 -0.7234
14934TIP3    H266218   0.781   5.029   0.850  1.1777 -0.4241 -0.3701
14935TIP3   OH266219   6.320   5.781   3.555 -0.1329  0.0756  0.3806
14935TIP3    H166220   6.272   5.773   3.473  1.3960  0.9398 -0.6471
14935TIP3    H266221   6.342   5.692   3.580 -2.3451 -0.3719  0.9877
14936TIP3   OH266222   0.759   5.318   1.224  0.5789  0.0295  0.5095
14936TIP3    H166223   0.781   5.342   1.314  2.6276  0.8200 -0.1302
14936TIP3    H266224   0.664   5.319   1.221  0.4261 -1.3467  2.9874
14937TIP3   OH266225   5.297   4.261  16.469  0.1968  0.5651 -0.1919
14937TIP3    H166226   5.336   4.252  16.382  0.7514 -0.2952  0.1358
14937TIP3    H266227   5.369   4.242  16.529 -0.6879 -0.9418  0.4278
14938TIP3   OH266228   2.209   3.973  16.740 -0.3166 -0.4862 -0.7059
14938TIP3    H166229   2.191   4.057  16.697 -0.8262  0.1401  0.6805
14938TIP3    H266230   2.195   3.908  16.671 -2.3520  0.3907 -1.2151
14939TIP3   OH266231   6.585   3.684   2.037 -0.1906  0.0654  0.5780
14939TIP3    H166232   6.641   3.651   2.108 -0.8992  0.1082  1.1704
14939TIP3    H266233   6.530   3.610   2.014 -1.4535  0.6488  1.5783
14940TIP3   OH266234   5.156   2.223  14.412  0.5930 -0.2365 -0.3940
14940TIP3    H166235   5.176   2.298  14.468 -1.4480  1.6199 -1.9490
14940TIP3    H266236   5.231   2.218  14.353  0.3793  1.2307 -0.8472
14941TIP3   OH266237   0.791   4.921  15.298 -0.0172  0.0793 -0.1601
14941TIP3    H166238   0.764   4.834  15.269 -0.6475 -0.0567  0.7886
14941TIP3    H266239   0.886   4.915  15.309  0.1571 -0.0360 -1.5466
14942TIP3   OH266240   2.329   6.329  16.628  0.2160  0.0904 -0.7146
14942TIP3    H166241   2.331   6.236  16.605  1.4183 -0.5013  1.5652
14942TIP3    H266242   2.265   6.336  16.699  1.4104  0.6646  0.3483
14943TIP3   OH266243   1.837   4.758  14.819  0.1794 -0.1652 -0.4198
14943TIP3    H166244   1.810   4.797  14.735  0.3816  2.6744  0.7138
14943TIP3    H266245   1.887   4.680  14.794 -1.6307 -0.6791 -2.8343
14944TIP3   OH266246   0.348   1.209   0.199  0.5368  0.2785 -0.7546
14944TIP3    H166247   0.426   1.171   0.240  1.3128  0.7374 -1.7487
14944TIP3    H266248   0.380   1.245   0.117 -0.8591 -0.1082 -1.5000
14945TIP3   OH266249   0.803   2.691  17.416 -0.5304 -0.0613  0.2351
14945TIP3    H166250   0.815   2.768  17.360 -0.0715 -1.0866 -1.1083
14945TIP3    H266251   0.766   2.727  17.497  1.1467  1.7749  0.2614
14946TIP3   OH266252   1.845   2.972   4.047 -0.1787  0.0333  0.3538
14946TIP3    H166253   1.863   3.065   4.052  1.4515 -0.2418 -0.0048
14946TIP3    H266254   1.780   2.956   4.116 -0.0606  1.3223  0.7798
14947TIP3   OH266255   0.954   4.571  15.422 -0.1866 -0.4984  0.4846
14947TIP3    H166256   0.950   4.667  15.431  2.0317 -0.3871  0.8497
14947TIP3    H266257   0.887   4.551  15.357 -0.1024  1.4163 -0.2828
14948TIP3   OH266258   3.432   0.796   2.424 -0.3398  0.2560  0.3193
14948TIP3    H166259   3.366   0.852   2.465 -0.9064 -0.1430 -0.0210
14948TIP3    H266260   3.446   0.725   2.486 -0.7785 -0.0483  0.0735
14949TIP3   OH266261   3.411   6.392   4.462  0.5490 -0.2469  0.1735
14949TIP3    H166262   3.505   6.412   4.463  0.7683 -1.1787 -0.4241
14949TIP3    H266263   3.381   6.426   4.378 -0.1946  2.2582  1.3569
14950TIP3   OH266264   5.625   0.591  13.153  0.6702 -0.0647  0.5050
14950TIP3    H166265   5.701   0.625  13.106  0.9743 -1.5863 -0.1717
14950TIP3    H266266   5.635   0.496  13.149 -2.5780 -0.4888 -1.9587
14951TIP3   OH266267   5.386   5.241  11.730  0.0432  0.3663  0.3735
14951TIP3    H166268   5.374   5.250  11.825  2.2836 -0.9172  0.8633
14951TIP3    H266269   5.349   5.155  11.709  1.4608 -0.3076  0.5262
14952TIP3   OH266270   5.531   1.374  14.261  0.7783 -0.3336 -0.0301
14952TIP3    H166271   5.585   1.329  14.196  1.4528 -0.7917  0.8224
14952TIP3    H266272   5.471   1.428  14.210 -0.7651 -2.9498 -1.1622
14953TIP3   OH266273   4.041   6.399   2.269 -0.1329  0.1339 -0.7779
14953TIP3    H166274   4.095   6.446   2.205 -0.4319  0.5934 -0.6979
14953TIP3    H266275   3.985   6.467   2.307 -0.8706 -0.3560 -0.9627
14954TIP3   OH266276   0.610   0.909   2.575 -0.1274 -0.6175 -0.8636
14954TIP3    H166277   0.577   0.998   2.586 -0.6639 -1.0583  1.9158
14954TIP3    H266278   0.697   0.919   2.538 -0.0665  1.0642 -0.3092
14955TIP3   OH266279   4.463   5.724  11.782 -0.8672  0.5187 -0.1951
14955TIP3    H166280   4.508   5.748  11.863 -1.1267  0.0547  0.0857
14955TIP3    H266281   4.397   5.661  11.808 -0.4097 -0.2716 -0.8741
14956TIP3   OH266282   3.195   2.738  11.955 -0.3985 -0.6217 -0.2368
14956TIP3    H166283   3.260   2.687  12.003 -1.3468 -0.3374  1.4271
14956TIP3    H266284   3.173   2.684  11.880  2.4922 -0.2736 -1.4512
14957TIP3   OH266285   6.683   3.165   0.167 -0.1881 -0.6647 -0.4060
14957TIP3    H166286   6.754   3.226   0.182  0.4113 -1.4757  0.1414
14957TIP3    H266287   6.605   3.208   0.202  0.3871 -0.6093  0.8442
14958TIP3   OH266288   0.021   4.669   1.597  0.7234  0.0551  0.0467
14958TIP3    H166289   0.043   4.622   1.517  0.4655  0.0204 -0.0041
14958TIP3    H266290   0.056   4.757   1.583  0.2011  0.2049 -0.3297
14959TIP3   OH266291   3.682   4.294  11.603  0.1166 -0.2440  0.5794
14959TIP3    H166292   3.731   4.217  11.576 -0.6104 -0.1919 -1.0292
14959TIP3    H266293   3.747   4.354  11.638  1.2698 -0.1178 -1.6131
14960TIP3   OH266294   4.564   4.355   4.078 -0.4297  0.2674 -0.0240
14960TIP3    H166295   4.473   4.324   4.081 -0.4079 -0.0791 -2.0382
14960TIP3    H266296   4.590   4.346   3.987  2.0781 -0.9031  0.7108
14961TIP3   OH266297   3.067   3.676   4.606 -0.1657 -0.2301 -0.5238
14961TIP3    H166298   3.033   3.671   4.517  2.1034  0.5654 -1.5101
14961TIP3    H266299   3.123   3.599   4.614  0.1242  0.0314 -0.0029
14962TIP3   OH266300   1.228   6.224   0.826  0.5417  0.0128 -0.3327
14962TIP3    H166301   1.198   6.312   0.805  0.0727 -0.5181 -2.0056
14962TIP3    H266302   1.212   6.215   0.920 -1.5399  0.8949 -0.5611
14963TIP3   OH266303   6.266   3.559   0.424 -0.1756 -0.3965 -0.1729
14963TIP3    H166304   6.349   3.585   0.465 -1.5590  3.4090  0.5663
14963TIP3    H266305   6.234   3.487   0.479  2.2833 -1.6098 -0.1761
14964TIP3   OH266306   4.064   0.684   2.944  0.5783 -0.5368 -0.8903
14964TIP3    H166307   4.001   0.613   2.925 -0.8453  0.6570 -0.8245
14964TIP3    H266308   4.092   0.667   3.034  0.1057 -0.9085 -0.8062
14965TIP3   OH266309   2.342   5.416  13.535  0.1551  0.1249  0.7937
14965TIP3    H166310   2.426   5.415  13.581 -0.1556 -0.3551  1.3579
14965TIP3    H266311   2.365   5.434  13.444  1.2381 -3.3050  0.2396
14966TIP3   OH266312   2.532   0.199   6.148  0.1083 -0.7015  0.1714
14966TIP3    H166313   2.543   0.252   6.069 -1.0032  1.1757  1.1967
14966TIP3    H266314   2.457   0.143   6.129  0.8973 -1.5011 -0.6937
14967TIP3   OH266315   2.595   0.346  17.137  0.4333 -0.7579  0.1888
14967TIP3    H166316   2.598   0.355  17.042  2.3724  0.2662  0.2787
14967TIP3    H266317   2.528   0.408  17.165 -0.3746 -1.2942 -0.5166
14968TIP3   OH266318   2.660   6.198  14.507 -0.1064  0.2708 -0.6139
14968TIP3    H166319   2.753   6.215  14.492 -0.2767  0.3043 -1.7271
14968TIP3    H266320   2.658   6.124  14.568  0.6415  0.6176 -0.1643
14969TIP3   OH266321   1.245   3.323   2.285 -0.2603  0.1564  0.2154
14969TIP3    H166322   1.327   3.322   2.335  0.0593 -1.8215 -0.2673
14969TIP3    H266323   1.245   3.240   2.237 -2.0548  0.5929 -0.6279
14970TIP3   OH266324   1.210   4.547   5.118 -0.5092  0.1216 -0.3840
14970TIP3    H166325   1.191   4.466   5.166 -1.6910  0.6252  0.0309
14970TIP3    H266326   1.124   4.583   5.098 -0.0812  2.5853  1.6639
14971TIP3   OH266327   5.688   2.044  16.022  0.0430  0.2658 -0.1940
14971TIP3    H166328   5.636   2.122  16.043 -2.8609 -1.4624 -0.4176
14971TIP3    H266329   5.709   2.006  16.107 -3.3255 -1.5301 -0.0050
14972TIP3   OH266330   1.960   5.981   5.246 -0.9084  0.2639 -0.0059
14972TIP3    H166331   1.872   6.017   5.231 -2.4069 -2.7559  0.6191
14972TIP3    H266332   1.972   5.917   5.176  1.0098  0.8712 -0.2812
14973TIP3   OH266333   0.553   1.976  14.246  0.0197  0.5568  0.1207
14973TIP3    H166334   0.512   1.896  14.280 -0.2927  0.8158  0.3638
14973TIP3    H266335   0.526   2.044  14.307 -1.7811  1.3125 -1.4242
14974TIP3   OH266336   2.820   6.213  13.913 -0.6861  1.0769  0.0378
14974TIP3    H166337   2.902   6.216  13.963  1.0423 -2.1940 -2.2402
14974TIP3    H266338   2.839   6.259  13.832 -0.4724 -1.0018 -1.1623
14975TIP3   OH266339   6.091   5.342   4.549 -0.4328 -0.3219  0.0607
14975TIP3    H166340   6.141   5.264   4.572 -1.9657 -1.0344  1.0910
14975TIP3    H266341   6.014   5.308   4.504 -1.1441  0.5839  0.5738
14976TIP3   OH266342   5.906   3.630  16.206 -0.2203  0.0150  0.4104
14976TIP3    H166343   5.851   3.571  16.256  0.3980  0.2961  1.4563
14976TIP3    H266344   5.948   3.574  16.140 -0.2241 -0.5589  0.8911
14977TIP3   OH266345   0.374   4.562   0.347 -0.0678 -0.2991  0.0603
14977TIP3    H166346   0.442   4.555   0.414 -0.4860 -0.2526  0.4953
14977TIP3    H266347   0.345   4.472   0.333  1.2390 -0.5370 -1.3518
14978TIP3   OH266348   3.078   3.584   1.080  0.4940  0.5335 -0.4329
14978TIP3    H166349   3.068   3.571   0.986 -1.2237  0.4868 -0.2810
14978TIP3    H266350   3.026   3.661   1.100 -2.7141 -1.7631  1.0250
14979TIP3   OH266351   5.921   1.260  16.395 -0.0097  0.1406  0.1267
14979TIP3    H166352   5.958   1.345  16.372 -1.1696  0.7241  0.3371
14979TIP3    H266353   5.951   1.244  16.484  2.3982 -0.9455 -0.7927
14980TIP3   OH266354   2.006   4.564  16.949  0.2559 -0.0380 -0.3963
14980TIP3    H166355   1.944   4.634  16.927 -1.5527 -1.0725  1.0324
14980TIP3    H266356   2.027   4.523  16.866 -0.1746  1.0104 -1.0349
14981TIP3   OH266357   3.456   5.501  14.034  0.3376 -0.2027  0.0450
14981TIP3    H166358   3.537   5.516  14.084  0.6548 -0.5795 -0.3472
14981TIP3    H266359   3.436   5.586  13.996 -0.3289  0.2837  1.4191
14982TIP3   OH266360   1.972   5.827   0.066 -0.3032  0.2767  0.4860
14982TIP3    H166361   2.027   5.767   0.117  1.0133  0.4558 -0.6904
14982TIP3    H266362   1.956   5.901   0.125  0.3140  0.0071  1.0010
14983TIP3   OH266363   3.112   0.308   2.369 -0.4192  0.2449 -0.7415
14983TIP3    H166364   3.170   0.358   2.427 -1.0111  0.6602 -0.4892
14983TIP3    H266365   3.128   0.344   2.282 -1.3084  1.3655 -0.4765
14984TIP3   OH266366   5.630   0.360   3.173  0.4007  0.0925 -0.2830
14984TIP3    H166367   5.583   0.285   3.136  0.0948  0.6333 -1.0222
14984TIP3    H266368   5.652   0.334   3.262 -2.3255  0.2348  0.5242
14985TIP3   OH266369   3.542   2.285  16.450  0.3117  0.2117 -0.4969
14985TIP3    H166370   3.540   2.213  16.513 -0.4408  0.4394 -0.2539
14985TIP3    H266371   3.453   2.319  16.449  0.9825  2.1708  0.5731
14986TIP3   OH266372   2.946   0.538   1.944 -0.3333  0.0607  0.5215
14986TIP3    H166373   2.893   0.464   1.915 -0.9489  0.2508  1.1535
14986TIP3    H266374   3.011   0.499   2.003 -1.3847  0.1711  1.7728
14987TIP3   OH266375   6.569   0.442   2.801  0.1199  0.0906  0.0502
14987TIP3    H166376   6.638   0.508   2.809 -0.1856  0.2420  1.8152
14987TIP3    H266377   6.490   0.492   2.781 -0.0607  0.2407  1.1210
14988TIP3   OH266378   2.363   2.311   4.366 -0.4653 -0.4517  0.1806
14988TIP3    H166379   2.351   2.327   4.273 -0.6672 -0.8165  0.1426
14988TIP3    H266380   2.319   2.227   4.382  0.9788 -1.2269  0.2677
14989TIP3   OH266381   4.012   4.415   0.548  0.3015 -0.2610 -0.0466
14989TIP3    H166382   4.003   4.384   0.458 -0.9211 -1.1333  0.3436
14989TIP3    H266383   3.924   4.405   0.585  0.4385  1.4163  0.8294
14990TIP3   OH266384   5.837   6.291   0.322  0.1690  0.0387 -0.2150
14990TIP3    H166385   5.837   6.196   0.334 -2.2742  0.2019  1.9421
14990TIP3    H266386   5.786   6.305   0.242 -0.8596 -0.4482  0.3374
14991TIP3   OH266387   1.896   4.336   3.944  0.3328  0.1466 -0.2628
14991TIP3    H166388   1.925   4.425   3.964 -1.8671  0.7917  0.3350
14991TIP3    H266389   1.815   4.348   3.895 -0.1021 -1.5436  0.0016
14992TIP3   OH266390   2.791   3.454  11.126  0.7634 -0.2188 -0.4944
14992TIP3    H166391   2.858   3.516  11.097  0.2992 -0.3247 -1.8893
14992TIP3    H266392   2.796   3.382  11.063 -1.6472  0.4729 -1.6139
14993TIP3   OH266393   3.484   0.644   5.431  0.1387 -0.0808 -0.4065
14993TIP3    H166394   3.557   0.631   5.492  0.2247 -0.4465 -0.5844
14993TIP3    H266395   3.520   0.701   5.362  0.0637  0.2701 -0.1577
14994TIP3   OH266396   5.210   0.682   2.825 -0.6728 -0.2144  0.1258
14994TIP3    H166397   5.220   0.757   2.883  1.2917 -0.0076 -0.4096
14994TIP3    H266398   5.127   0.643   2.850 -1.1752  1.4548  1.2026
14995TIP3   OH266399   6.719   5.433  13.290  0.0105  0.4275  0.0886
14995TIP3    H166400   6.638   5.468  13.327 -0.0315  1.0210 -0.5424
14995TIP3    H266401   6.690   5.372  13.222  0.0902  0.9459 -0.4141
14996TIP3   OH266402   5.033   1.632  17.423 -0.2683  0.1936  0.1821
14996TIP3    H166403   4.957   1.613  17.367  0.0441  2.9068 -1.3359
14996TIP3    H266404   5.105   1.585  17.381 -0.7701 -1.0928  0.7072
14997TIP3   OH266405   3.558   3.652   2.216  0.4859  0.1700  0.3696
14997TIP3    H166406   3.588   3.601   2.292  0.2283 -3.0959 -1.5392
14997TIP3    H266407   3.638   3.687   2.178  0.9342 -0.7498  0.4467
14998TIP3   OH266408   5.816   6.131  16.234 -0.2587  0.3508 -0.4365
14998TIP3    H166409   5.815   6.170  16.147  0.6873  1.1772 -0.1062
14998TIP3    H266410   5.802   6.038  16.219 -2.4261  0.7470 -1.2686
14999TIP3   OH266411   6.179   3.053  14.616  0.2960  0.2733  0.1497
14999TIP3    H166412   6.203   3.139  14.583  1.9452  0.5383  1.8780
14999TIP3    H266413   6.243   2.993  14.577  0.3302  0.1233  0.4298
15000TIP3   OH266414   1.625   1.931  12.422 -0.1597  0.2980 -0.6363
15000TIP3    H166415   1.633   1.998  12.354 -0.6637  0.7220 -0.2815
15000TIP3    H266416   1.534   1.934  12.449  0.4453  1.6050  1.5180
15001TIP3   OH266417   6.634   0.114  14.617  0.3352 -0.2361  0.2687
15001TIP3    H166418   6.630   0.032  14.567  2.4737  0.0387 -0.4363
15001TIP3    H266419   6.722   0.115  14.655  0.8969  2.3855 -0.8937
15002TIP3   OH266420   4.230   2.241  13.451 -0.0488  0.1654 -0.0985
15002TIP3    H166421   4.318   2.247  13.415  0.0841  2.4424  0.4998
15002TIP3    H266422   4.243   2.203  13.538  0.2907  0.1184 -0.1684
15003TIP3   OH266423   3.970   0.067   0.174  0.2397 -0.2203  0.1623
15003TIP3    H166424   3.933   0.137   0.228 -0.1568 -0.8074  0.6602
15003TIP3    H266425   3.906   0.053   0.105  1.8833  2.3470 -2.1382
15004TIP3   OH266426   5.354   0.542   5.712 -0.1596 -0.2549 -0.0328
15004TIP3    H166427   5.364   0.541   5.807 -0.1059 -2.1883 -0.0160
15004TIP3    H266428   5.262   0.566   5.698 -0.0234  0.5793  0.4805
15005TIP3   OH266429   1.395   6.418  11.656  0.2239 -0.5258  0.1425
15005TIP3    H166430   1.419   6.430  11.564  1.3873 -1.0928  0.3656
15005TIP3    H266431   1.439   6.489  11.702 -1.4325  0.5829  0.1331
15006TIP3   OH266432   0.606   2.502   4.223 -0.1319  0.2088  0.4913
15006TIP3    H166433   0.549   2.551   4.163  1.2322  1.5019  0.1776
15006TIP3    H266434   0.635   2.568   4.286  2.1225 -0.0279 -0.2099
15007TIP3   OH266435   3.224   5.721  16.567 -0.1741  0.4008 -0.6876
15007TIP3    H166436   3.148   5.723  16.626 -0.1837 -0.4020 -0.6649
15007TIP3    H266437   3.198   5.774  16.492 -0.0602  1.6736  0.1439
15008TIP3   OH266438   0.841   1.876   3.766  0.1511 -0.3565 -0.2627
15008TIP3    H166439   0.807   1.788   3.748  2.1361 -0.6645 -3.1354
15008TIP3    H266440   0.887   1.867   3.849  1.1998 -2.3645 -0.9974
15009TIP3   OH266441   5.239   6.217  16.665 -0.1211 -0.3824  0.3795
15009TIP3    H166442   5.274   6.299  16.632 -0.5021 -0.8785 -1.3879
15009TIP3    H266443   5.145   6.231  16.671 -0.1282 -0.5191  0.6205
15010TIP3   OH266444   0.123   3.548   2.905 -0.0102 -0.1231  0.1148
15010TIP3    H166445   0.143   3.565   2.813  0.7133  0.2632  0.3360
15010TIP3    H266446   0.187   3.483   2.933  1.7818  1.9471  1.1315
15011TIP3   OH266447   1.626   5.321   2.404 -0.1788 -0.0360  0.2755
15011TIP3    H166448   1.614   5.229   2.429  1.4269 -0.1344  0.7872
15011TIP3    H266449   1.605   5.370   2.483  2.1686 -0.1930  1.0808
15012TIP3   OH266450   2.241   6.369   3.948 -0.2162 -0.2631 -0.1140
15012TIP3    H166451   2.297   6.440   3.918 -1.2516 -0.1037 -1.7638
15012TIP3    H266452   2.302   6.299   3.971  0.8803  1.3311  2.2362
15013TIP3   OH266453   5.707   2.165   3.606 -0.3032  0.0120 -0.0557
15013TIP3    H166454   5.673   2.104   3.540  0.0475  0.4771 -0.6773
15013TIP3    H266455   5.688   2.122   3.690 -2.8715  0.4676 -0.3310
15014TIP3   OH266456   1.710   4.705  17.230 -1.0226  0.5541  0.7127
15014TIP3    H166457   1.635   4.656  17.195 -0.4785 -0.1367  0.4937
15014TIP3    H266458   1.756   4.643  17.286 -0.0598  0.6584  0.0670
15015TIP3   OH266459   2.694   3.671   3.128 -0.3748 -0.5257  0.7967
15015TIP3    H166460   2.779   3.708   3.105 -0.1869 -1.3384  0.1516
15015TIP3    H266461   2.636   3.747   3.139 -0.5192 -0.0470 -2.4512
15016TIP3   OH266462   0.178   2.832   3.194  0.1393  0.5772 -0.7492
15016TIP3    H166463   0.171   2.763   3.128  1.6675  0.2552 -0.6173
15016TIP3    H266464   0.089   2.867   3.201 -0.8971 -1.9340 -0.2013
15017TIP3   OH266465   5.793   2.562   6.223 -0.3642  0.5985  0.1366
15017TIP3    H166466   5.786   2.652   6.191 -3.2782  1.1965  2.0387
15017TIP3    H266467   5.868   2.564   6.282 -0.0951  1.6527 -0.2095
15018TIP3   OH266468   1.584   1.051  14.560  1.1989  0.5666 -0.4326
15018TIP3    H166469   1.654   0.998  14.598  0.7674  0.7430  0.6741
15018TIP3    H266470   1.557   1.004  14.482  0.9477 -0.7619  0.4195
15019TIP3   OH266471   5.598   3.037   1.674  0.9477 -0.0653  0.2877
15019TIP3    H166472   5.581   2.983   1.752  1.4278 -0.8652 -0.1575
15019TIP3    H266473   5.689   3.064   1.683  1.0431 -0.2713 -0.0662
15020TIP3   OH266474   0.089   2.197   2.691  0.4728 -0.2043  0.6849
15020TIP3    H166475   0.052   2.110   2.705  0.6933 -0.0650  2.3033
15020TIP3    H266476   0.179   2.189   2.721  0.0046  1.0183  2.5201
15021TIP3   OH266477   0.566   3.260   3.684  0.2001  0.3111 -0.1985
15021TIP3    H166478   0.577   3.180   3.737 -0.8145  0.7963  0.7778
15021TIP3    H266479   0.653   3.276   3.647  0.2981 -1.5651 -0.8957
15022TIP3   OH266480   4.173   2.609  16.523  0.8033 -0.2385 -0.8092
15022TIP3    H166481   4.156   2.664  16.600  0.5091 -1.1761 -0.1924
15022TIP3    H266482   4.268   2.608  16.515  1.0254 -2.2292  1.1463
15023TIP3   OH266483   6.643   2.635   4.727  0.1372  0.0076 -0.3002
15023TIP3    H166484   6.589   2.603   4.655 -0.7413 -0.7171  0.6436
15023TIP3    H266485   6.678   2.556   4.767  1.0318  0.4270 -0.2406
15024TIP3   OH266486   4.178   6.614   3.339 -0.5747  0.3727 -0.0368
15024TIP3    H166487   4.202   6.664   3.418  2.8038 -1.4954  0.2997
15024TIP3    H266488   4.241   6.642   3.273  0.3148 -2.0677 -0.3276
15025TIP3   OH266489   2.515   0.811  12.270 -0.4960 -0.1342 -0.3911
15025TIP3    H166490   2.428   0.840  12.241  0.3923  1.1927 -1.8649
15025TIP3    H266491   2.513   0.716  12.260 -1.5217 -0.0521 -1.1586
15026TIP3   OH266492   5.087   5.782   4.558  0.2336  0.2917  0.1905
15026TIP3    H166493   5.017   5.839   4.526  0.6100  0.6106 -0.0752
15026TIP3    H266494   5.164   5.808   4.507  1.3091  2.0407  2.4967
15027TIP3   OH266495   5.384   2.437  12.652  0.0939  0.3571 -0.2262
15027TIP3    H166496   5.304   2.462  12.607 -1.3895 -1.5828  1.1746
15027TIP3    H266497   5.435   2.391  12.586  0.0046  1.4384 -1.0772
15028TIP3   OH266498   0.201   5.205  16.034 -0.2836 -0.7495 -0.2099
15028TIP3    H166499   0.260   5.138  16.068  1.7633  0.7180 -0.7236
15028TIP3    H266500   0.249   5.287  16.043 -2.2351  0.5256 -0.7247
15029TIP3   OH266501   0.466   5.249   2.665  0.3879  0.1769 -0.5600
15029TIP3    H166502   0.543   5.211   2.623 -0.8421 -0.9869 -1.8893
15029TIP3    H266503   0.398   5.246   2.597 -0.8299  1.1756  0.5640
15030TIP3   OH266504   1.279   2.355   1.691 -0.4479  0.4959 -0.5075
15030TIP3    H166505   1.243   2.428   1.740 -0.8114 -0.5285  0.8055
15030TIP3    H266506   1.230   2.279   1.721 -0.7510 -0.1767 -2.5517
15031TIP3   OH266507   4.983   4.965  16.917  0.2526 -0.7505  0.0268
15031TIP3    H166508   5.065   4.984  16.964  2.0702 -0.9743 -2.7898
15031TIP3    H266509   4.959   4.877  16.945  1.6591 -1.1472  0.0814
15032TIP3   OH266510   4.328   3.036   5.688  0.0144  0.0263 -0.0508
15032TIP3    H166511   4.412   3.049   5.731  0.3692 -1.2079 -0.3291
15032TIP3    H266512   4.269   3.097   5.731  0.3762 -1.0866  2.1503
15033TIP3   OH266513   0.192   3.224  16.351  0.2655 -0.2265  0.1820
15033TIP3    H166514   0.147   3.242  16.433  0.5606 -0.8355  0.4844
15033TIP3    H266515   0.222   3.310  16.320 -0.2088  0.0553  0.4929
15034TIP3   OH266516   6.573   1.045  14.050 -0.7345  0.0350 -0.2731
15034TIP3    H166517   6.647   0.984  14.061 -0.3659  0.5316  0.0708
15034TIP3    H266518   6.573   1.097  14.131 -1.1429  0.3879 -0.4952
15035TIP3   OH266519   4.053   4.369  15.212  0.6595 -0.5169 -0.0473
15035TIP3    H166520   4.111   4.303  15.250  0.4413 -0.8169 -0.2281
15035TIP3    H266521   4.049   4.347  15.119 -1.3528 -1.7801  0.2694
15036TIP3   OH266522   5.087   2.775  10.996  0.3253  0.0049 -0.0149
15036TIP3    H166523   5.069   2.764  10.903 -0.2096  0.1350  0.0685
15036TIP3    H266524   5.023   2.719  11.040  1.1066 -0.7029  0.2562
15037TIP3   OH266525   5.221   3.236   5.211 -0.4855 -0.5718  0.2358
15037TIP3    H166526   5.244   3.251   5.302  0.7842 -0.5654 -0.0688
15037TIP3    H266527   5.164   3.310   5.188  1.2370  0.8470  0.3171
15038TIP3   OH266528   2.944   5.623   1.321 -0.4201  0.1294 -0.3110
15038TIP3    H166529   3.012   5.637   1.254  1.3014 -3.5145  0.3995
15038TIP3    H266530   2.992   5.618   1.403 -2.1883  1.9241  0.8953
15039TIP3   OH266531   3.114   6.051   2.355 -0.3784  0.2008 -0.3608
15039TIP3    H166532   3.203   6.087   2.349 -0.1715  0.1725  1.7433
15039TIP3    H266533   3.063   6.121   2.396 -0.9364 -0.3691 -0.0694
15040TIP3   OH266534   1.431   6.638   3.323 -0.4247 -0.1856  0.2558
15040TIP3    H166535   1.500   6.607   3.264 -0.8497  2.1445 -1.6081
15040TIP3    H266536   1.353   6.589   3.296 -0.0554 -1.0970  0.7770
15041TIP3   OH266537   2.884   4.242  15.057  0.2011 -0.0717  0.0972
15041TIP3    H166538   2.976   4.264  15.073 -0.5613  3.3618  0.4500
15041TIP3    H266539   2.836   4.286  15.128 -1.7173 -2.3133  0.3029
15042TIP3   OH266540   0.129   6.371   0.568  0.3691 -0.3356 -0.3485
15042TIP3    H166541   0.188   6.419   0.626 -0.5280 -1.0984  1.2857
15042TIP3    H266542   0.089   6.439   0.513 -0.4029  0.7784  1.4727
15043TIP3   OH266543   3.820   5.097   5.794  0.0715  0.5826  0.3185
15043TIP3    H166544   3.869   5.015   5.807  1.0758  0.8545 -1.4416
15043TIP3    H266545   3.884   5.166   5.811  0.5486  0.9428 -2.4406
15044TIP3   OH266546   2.544   6.511   0.825 -0.3729  0.8373 -0.2317
15044TIP3    H166547   2.637   6.518   0.804 -0.2063 -0.3565  0.0754
15044TIP3    H266548   2.527   6.583   0.885  0.7981 -0.0803  1.2444
15045TIP3   OH266549   5.199   5.230   2.329  0.1048  0.2815 -0.3154
15045TIP3    H166550   5.253   5.301   2.365  0.1391  0.6253 -1.0214
15045TIP3    H266551   5.120   5.230   2.384 -1.0183  2.5302 -1.7950
15046TIP3   OH266552   2.536   3.808  14.606 -0.5014  0.4459 -0.0088
15046TIP3    H166553   2.602   3.816  14.537  0.0165  0.9329  0.5368
15046TIP3    H266554   2.585   3.789  14.685 -1.1530 -0.9165  0.1083
15047TIP3   OH266555   4.129   0.352   4.175 -0.1410  0.3666 -0.2149
15047TIP3    H166556   4.153   0.389   4.090 -0.5693  2.4646  0.5177
15047TIP3    H266557   4.184   0.399   4.238 -1.4958  0.5741  0.8677
15048TIP3   OH266558   0.559   1.156  16.739  0.9504 -0.4278  0.1985
15048TIP3    H166559   0.483   1.148  16.681  0.0344 -0.1199  1.3354
15048TIP3    H266560   0.620   1.212  16.690  2.1149 -3.5905 -2.3533
15049TIP3   OH266561   4.939   3.253   1.148  0.2146  0.3551  0.3078
15049TIP3    H166562   4.969   3.293   1.066  0.3062  1.1972  0.7341
15049TIP3    H266563   4.884   3.320   1.188  2.3076  1.0866  2.1968
15050TIP3   OH266564   6.711   1.778   1.520 -0.6252  0.3074  0.1248
15050TIP3    H166565   6.751   1.803   1.603 -0.9516  0.5067  0.2241
15050TIP3    H266566   6.712   1.682   1.521 -0.1512  0.3121  0.1224
15051TIP3   OH266567   3.267   1.244   6.138  0.3296  0.4921  0.0382
15051TIP3    H166568   3.185   1.202   6.164 -0.0114  2.8906  3.5657
15051TIP3    H266569   3.241   1.306   6.070 -0.2473 -0.6063 -0.7674
15052TIP3   OH266570   2.942   5.220   3.649  0.0660 -0.2957  0.2725
15052TIP3    H166571   3.024   5.257   3.682 -0.4717  1.2457 -0.0654
15052TIP3    H266572   2.958   5.202   3.557  0.5037 -1.5059  0.5562
15053TIP3   OH266573   4.252   1.282   6.352  0.7533  0.1375  0.8995
15053TIP3    H166574   4.184   1.242   6.298  1.6967 -2.1302  1.2681
15053TIP3    H266575   4.204   1.320   6.426 -0.3859  1.8118 -0.6286
15054TIP3   OH266576   5.988   0.164   2.745  0.6792 -0.0601  0.1940
15054TIP3    H166577   5.937   0.237   2.780  0.6285  0.4714 -0.9361
15054TIP3    H266578   6.079   0.192   2.753  0.6170  0.6768 -1.3420
15055TIP3   OH266579   4.423   2.249  14.237 -0.1159 -0.0807 -0.6409
15055TIP3    H166580   4.484   2.309  14.280 -0.5348 -0.3247  0.3336
15055TIP3    H266581   4.359   2.228  14.305 -0.9334 -0.3139 -1.4613
15056TIP3   OH266582   6.157   6.220  14.505  0.1591 -0.4024  0.3542
15056TIP3    H166583   6.182   6.238  14.596 -2.1199 -2.2314  1.4535
15056TIP3    H266584   6.218   6.152  14.476  1.9500  1.3292 -0.1291
15057TIP3   OH266585   0.698   2.347   2.850  0.2395 -0.4009 -0.1730
15057TIP3    H166586   0.653   2.431   2.855 -0.1908 -0.5632 -1.0634
15057TIP3    H266587   0.657   2.302   2.776  0.1575 -1.5793  0.5567
15058TIP3   OH266588   4.404   4.098   3.322  0.7865  0.2120 -0.3627
15058TIP3    H166589   4.334   4.099   3.256 -0.3172  0.8689  0.7693
15058TIP3    H266590   4.481   4.129   3.275 -0.1615  1.4518 -1.1754
15059TIP3   OH266591   0.325   3.380   1.435  0.2063 -0.4817 -0.0309
15059TIP3    H166592   0.352   3.372   1.344 -1.7552  1.0940 -0.8562
15059TIP3    H266593   0.244   3.328   1.440  0.0448 -0.1705  0.6679
15060TIP3   OH266594   4.820   4.905  15.929  0.1171 -0.1177  0.5684
15060TIP3    H166595   4.779   4.881  15.847 -2.2956  1.3157  1.2482
15060TIP3    H266596   4.912   4.921  15.907 -0.5746  0.7718 -1.9522
15061TIP3   OH266597   1.750   0.714  12.563 -0.3682  0.3770 -0.1458
15061TIP3    H166598   1.728   0.766  12.486  0.7372 -0.3268 -0.9783
15061TIP3    H266599   1.792   0.776  12.623 -2.2798  1.1835  0.4236
15062TIP3   OH266600   3.627   1.871  14.123  0.0105  0.1273 -0.3023
15062TIP3    H166601   3.614   1.790  14.073  0.3475 -1.3750  1.8811
15062TIP3    H266602   3.714   1.901  14.096  0.5008 -1.0544 -0.1237
15063TIP3   OH266603   5.295   2.045  14.987  0.3397  0.2630 -1.0233
15063TIP3    H166604   5.267   2.136  14.981  2.2357  0.9901  0.1890
15063TIP3    H266605   5.390   2.050  14.998  0.2386 -1.6919  1.9287
15064TIP3   OH266606   1.251   0.672   5.530  0.1906 -0.1821  0.2133
15064TIP3    H166607   1.189   0.628   5.589  1.4984 -1.7978  0.4961
15064TIP3    H266608   1.337   0.647   5.565  0.9974  1.2668 -0.6661
15065TIP3   OH266609   5.505   5.637  11.578  0.8132  0.1288  0.1968
15065TIP3    H166610   5.513   5.645  11.483 -0.5079  0.0628  0.0507
15065TIP3    H266611   5.537   5.549  11.598  1.0202  0.1135 -0.1981
15066TIP3   OH266612   3.782   1.880   4.999  0.6005  0.5043 -0.2115
15066TIP3    H166613   3.732   1.869   5.079  0.5801  0.9415 -0.1582
15066TIP3    H266614   3.727   1.937   4.944  0.0251 -0.8271 -1.0578
15067TIP3   OH266615   5.255   2.665  15.466 -0.0496  0.5992  0.5816
15067TIP3    H166616   5.340   2.689  15.429  0.1568  0.1391  0.7514
15067TIP3    H266617   5.207   2.748  15.470  0.3295  0.8361  0.3302
15068TIP3   OH266618   3.766   1.184  11.960 -0.1575 -0.1588 -0.3610
15068TIP3    H166619   3.740   1.092  11.963  1.5098 -0.7290 -1.3467
15068TIP3    H266620   3.829   1.193  12.031 -0.4145  0.2578 -0.1876
15069TIP3   OH266621   2.952   0.848   4.356  0.1953  0.4262 -0.6431
15069TIP3    H166622   2.891   0.879   4.423  1.1991  2.0731 -0.4303
15069TIP3    H266623   2.997   0.774   4.397 -0.7813 -0.0476 -0.3733
15070TIP3   OH266624   2.757   4.065  13.626  0.1042  0.3489  0.4018
15070TIP3    H166625   2.783   4.118  13.551 -1.0830  1.2937  0.6233
15070TIP3    H266626   2.787   4.115  13.702  0.2415 -0.0108  0.5857
15071TIP3   OH266627   1.988   3.147   4.973 -0.2074 -0.2006 -0.0099
15071TIP3    H166628   2.058   3.096   4.933 -0.2308 -0.2361 -0.0055
15071TIP3    H266629   2.020   3.237   4.973 -0.5888 -0.0539 -0.9721
15072TIP3   OH266630   3.826   4.812   2.468 -0.3132 -0.3256  0.0776
15072TIP3    H166631   3.742   4.767   2.477 -0.3214  0.0892  2.7251
15072TIP3    H266632   3.857   4.823   2.557  1.0804  2.3267 -0.6443
15073TIP3   OH266633   1.291   5.753   5.344 -0.0207  0.0146  0.9055
15073TIP3    H166634   1.268   5.745   5.251 -0.5860 -2.2842  1.1759
15073TIP3    H266635   1.386   5.757   5.346 -0.0151  0.2305  0.2175
15074TIP3   OH266636   1.375   6.519   4.561 -0.2744  0.2529  0.2708
15074TIP3    H166637   1.280   6.529   4.548 -0.2216  0.6656  0.1877
15074TIP3    H266638   1.414   6.560   4.483 -0.0460 -0.6626 -0.1016
15075TIP3   OH266639   4.372   3.521  14.949  0.0215 -0.3938  0.1561
15075TIP3    H166640   4.350   3.572  15.027 -1.0751  1.2852 -1.1915
15075TIP3    H266641   4.322   3.561  14.878  1.5415 -1.3775 -1.5812
15076TIP3   OH266642   3.761   3.042  14.284 -0.7119  0.5413  0.3158
15076TIP3    H166643   3.683   3.076  14.328 -1.5197  0.2348 -0.8427
15076TIP3    H266644   3.729   2.973  14.226  0.1851  1.4230 -1.3109
15077TIP3   OH266645   2.221   4.477   1.630 -0.3191 -0.4160 -0.1587
15077TIP3    H166646   2.260   4.555   1.593  0.3266 -1.3430 -1.5288
15077TIP3    H266647   2.259   4.470   1.718  0.8719 -0.0733 -0.6264
15078TIP3   OH266648   1.423   5.611   1.920 -0.4974  0.6985 -0.1672
15078TIP3    H166649   1.434   5.672   1.848 -1.6758  1.9075  0.6264
15078TIP3    H266650   1.508   5.609   1.963 -0.1348  0.9116 -0.8572
15079TIP3   OH266651   1.586   0.898   1.598 -0.2064  0.0262 -0.1387
15079TIP3    H166652   1.506   0.900   1.547  1.2484  1.9971 -2.5800
15079TIP3    H266653   1.603   0.805   1.613 -2.9421 -0.4325  0.5978
15080TIP3   OH266654   0.684   6.516  15.280 -0.1911  0.1838  0.0617
15080TIP3    H166655   0.775   6.495  15.260  0.2582  1.2548  0.8535
15080TIP3    H266656   0.661   6.460  15.354 -0.8435 -1.5003 -1.3346
15081TIP3   OH266657   1.236   5.403   0.120  0.4682 -0.1065  0.2777
15081TIP3    H166658   1.239   5.390   0.215 -0.1151 -1.7005  0.0982
15081TIP3    H266659   1.283   5.485   0.106 -1.4317  1.3919  2.1572
15082TIP3   OH266660   0.287   6.443  13.274  0.6100 -0.2966  0.2880
15082TIP3    H166661   0.209   6.409  13.319 -0.6216  1.9265 -0.0159
15082TIP3    H266662   0.331   6.365  13.240 -2.2821 -1.5882 -0.8080
15083TIP3   OH266663   6.228   5.367   3.848  0.0063  1.1447  0.0600
15083TIP3    H166664   6.219   5.423   3.925 -0.6112  2.5543 -0.9776
15083TIP3    H266665   6.293   5.301   3.873  0.7113  2.2885  1.3693
15084TIP3   OH266666   0.471   3.010  12.059  0.0389  0.9583  0.6058
15084TIP3    H166667   0.542   3.030  11.998  0.8641 -1.4059  0.7001
15084TIP3    H266668   0.414   2.950  12.011 -1.2724  1.8834  0.9583
15085TIP3   OH266669   1.034   6.541   3.422  0.2725  0.7822 -0.4937
15085TIP3    H166670   1.113   6.500   3.387  0.0934 -1.4940  1.5516
15085TIP3    H266671   0.962   6.500   3.375  0.0794 -1.6605  1.7142
15086TIP3   OH266672   3.944   2.478  15.077 -0.3689  0.3319 -0.0589
15086TIP3    H166673   3.995   2.435  15.009  1.6866 -0.4880  1.8686
15086TIP3    H266674   3.967   2.571  15.070  0.0062  0.2206 -0.3324
15087TIP3   OH266675   2.021   0.401  12.053 -0.1294 -0.1356 -0.1422
15087TIP3    H166676   2.033   0.379  11.961 -1.4262  1.2514 -0.6865
15087TIP3    H266677   1.959   0.336  12.086 -2.3446  1.2995 -1.2037
15088TIP3   OH266678   4.414   4.515  16.061  0.2271 -0.3183  0.3358
15088TIP3    H166679   4.370   4.450  16.115 -0.1860  0.0910  0.5008
15088TIP3    H266680   4.392   4.599  16.102 -1.1944  0.1071 -1.2049
15089TIP3   OH266681   4.869   4.750  11.367 -0.2647 -0.6272  0.0780
15089TIP3    H166682   4.855   4.836  11.407 -0.8019  0.0299 -1.4391
15089TIP3    H266683   4.951   4.759  11.318 -0.4902 -0.8567 -0.3538
15090TIP3   OH266684   0.994   6.214  11.626  0.2097  0.5749 -0.4814
15090TIP3    H166685   0.927   6.160  11.668  1.1292 -1.9937 -2.0882
15090TIP3    H266686   1.032   6.265  11.698 -1.1533 -0.4162  1.0179
15091TIP3   OH266687   4.139   2.877  11.417 -0.1766  0.1709 -0.6738
15091TIP3    H166688   4.097   2.925  11.346 -0.3753  0.1762 -0.5504
15091TIP3    H266689   4.115   2.924  11.496 -1.4239 -0.8605 -0.4131
15092TIP3   OH266690   6.553   3.749   0.263 -0.4558  0.3672 -0.2429
15092TIP3    H166691   6.501   3.709   0.332  0.6921  0.3832  0.6662
15092TIP3    H266692   6.542   3.843   0.276 -3.6315  0.5098 -2.7437
15093TIP3   OH266693   4.689   1.922  10.974  0.3412  0.2030 -0.3561
15093TIP3    H166694   4.738   2.003  10.966 -2.0448  1.7269 -0.6680
15093TIP3    H266695   4.682   1.889  10.884  0.2177  0.3599 -0.4040
15094TIP3   OH266696   1.475   1.957   0.301  0.1977 -0.3718  0.1606
15094TIP3    H166697   1.496   2.048   0.322  1.2580 -0.3010 -1.0814
15094TIP3    H266698   1.380   1.957   0.287  0.1994  0.5453  0.1205
15095TIP3   OH266699   5.101   5.519  16.065  0.3086  0.3999 -0.2031
15095TIP3    H166700   5.126   5.486  15.979  0.6235 -1.2006  0.4698
15095TIP3    H266701   5.021   5.570  16.049  0.5438  0.3889 -1.4765
15096TIP3   OH266702   5.490   1.131  16.320  0.1956  0.6681  0.7110
15096TIP3    H166703   5.506   1.037  16.311  1.3966  0.9250 -0.1326
15096TIP3    H266704   5.556   1.172  16.263  0.0007  2.0368  1.4318
15097TIP3   OH266705   4.460   2.935   6.113 -0.5607  0.4389 -0.1910
15097TIP3    H166706   4.499   2.855   6.147 -1.1370  0.8913  1.6118
15097TIP3    H266707   4.373   2.908   6.084 -1.2381  0.6102  1.5765
15098TIP3   OH266708   6.251   0.020  17.395 -0.2440  0.1622  0.0824
15098TIP3    H166709   6.280   0.111  17.387 -2.3070  1.0186  1.3740
15098TIP3    H266710   6.167   0.026  17.441 -0.3967 -2.4182  0.2846
15099TIP3   OH266711   5.482   3.631   2.567 -0.0054 -0.0795  0.2099
15099TIP3    H166712   5.549   3.604   2.504  0.1902 -0.3453  0.5318
15099TIP3    H266713   5.531   3.658   2.644 -0.2298  0.5560  0.1394
15100TIP3   OH266714   5.236   3.758  16.952  0.4627 -0.1549 -0.3581
15100TIP3    H166715   5.277   3.827  16.900  1.1663 -0.5964 -0.4004
15100TIP3    H266716   5.253   3.677  16.903  0.2623 -0.4462  0.0482
15101TIP3   OH266717   3.658   0.621  12.796 -0.1880  0.2868  0.4081
15101TIP3    H166718   3.599   0.623  12.721  0.7988  0.6503 -0.3910
15101TIP3    H266719   3.658   0.529  12.824 -0.0921  0.0207 -0.4371
15102TIP3   OH266720   1.719   2.892  11.123 -0.2317  0.1951 -0.0156
15102TIP3    H166721   1.752   2.910  11.211 -1.4950  1.7098  0.1887
15102TIP3    H266722   1.797   2.892  11.068  0.5349 -0.3943  1.0390
15103TIP3   OH266723   0.384   4.077   4.674  0.0960  0.0743 -0.2243
15103TIP3    H166724   0.401   3.989   4.640 -1.4843  0.0809 -1.1402
15103TIP3    H266725   0.392   4.134   4.597  2.0574  0.9225  0.5280
15104TIP3   OH266726   2.490   6.686  10.448 -0.0856 -0.2427 -0.5084
15104TIP3    H166727   2.407   6.642  10.463 -0.7148  1.0913  0.0744
15104TIP3    H266728   2.484   6.719  10.359  0.3760 -1.2872 -0.9366
15105TIP3   OH266729   3.300   4.581   0.800 -0.3269  0.4315  0.4355
15105TIP3    H166730   3.328   4.668   0.771  0.7440 -0.4533 -1.3841
15105TIP3    H266731   3.276   4.535   0.719  1.2655 -1.6726  1.0676
15106TIP3   OH266732   6.378   5.642  12.371  0.2147 -0.4564  0.5358
15106TIP3    H166733   6.342   5.575  12.429  2.7830 -1.0235  1.6339
15106TIP3    H266734   6.441   5.689  12.426 -0.1431  1.6498 -0.7434
15107TIP3   OH266735   4.117   5.909  13.797  0.3204  0.0648 -0.1304
15107TIP3    H166736   4.171   5.963  13.739  1.1739 -0.4280  0.1809
15107TIP3    H266737   4.119   5.954  13.881 -0.4608  0.4873 -0.3307
15108TIP3   OH266738   3.736   6.600  15.385 -0.0277 -0.2191  0.0975
15108TIP3    H166739   3.701   6.679  15.343  2.7835  0.6023 -0.9442
15108TIP3    H266740   3.782   6.554  15.314  0.8047 -1.2952  1.2930
15109TIP3   OH266741   3.257   0.032   0.733 -0.0237  0.1830 -0.4651
15109TIP3    H166742   3.316  -0.019   0.678  0.7037  1.0949 -0.5381
15109TIP3    H266743   3.186   0.058   0.674 -1.6646 -2.6017  0.0429
15110TIP3   OH266744   0.686   1.053   4.517 -0.3063 -0.4871  0.7841
15110TIP3    H166745   0.760   1.004   4.481 -1.7096 -1.1903 -1.3382
15110TIP3    H266746   0.644   0.992   4.577  0.2961 -0.4102  1.2931
15111TIP3   OH266747   5.917   1.760   5.554 -0.1266  0.1707  0.3454
15111TIP3    H166748   5.897   1.767   5.461 -1.5370 -1.2160  0.4968
15111TIP3    H266749   5.837   1.791   5.598  0.4801  0.7039  1.1002
15112TIP3   OH266750   1.615   3.929   0.925 -0.4463  0.2312 -0.4809
15112TIP3    H166751   1.663   3.943   0.843 -0.2885 -1.7814 -0.7845
15112TIP3    H266752   1.639   4.003   0.980  1.0246  0.5967 -1.5529
15113TIP3   OH266753   0.156   0.373  16.397 -0.3097  0.3272  0.1354
15113TIP3    H166754   0.205   0.453  16.415 -1.1728  1.0737 -0.6854
15113TIP3    H266755   0.176   0.352  16.306 -0.4968 -0.0846  0.1881
15114TIP3   OH266756   4.002   5.530   0.366 -0.3443  0.4544 -0.0528
15114TIP3    H166757   4.049   5.458   0.322 -0.5692 -0.3495  0.9749
15114TIP3    H266758   4.013   5.605   0.307 -0.3823 -0.4952 -1.3333
15115TIP3   OH266759   4.506   5.589  14.154 -0.8349 -0.7639  0.1478
15115TIP3    H166760   4.517   5.616  14.245  1.8156 -1.4744  0.1260
15115TIP3    H266761   4.593   5.597  14.116 -2.1042  0.7381 -2.7188
15116TIP3   OH266762   2.709   6.202  11.704 -0.1922  0.1450 -0.3158
15116TIP3    H166763   2.615   6.184  11.695 -0.4317  0.3032  1.4476
15116TIP3    H266764   2.713   6.278  11.762  1.0261 -2.6577  3.6684
15117TIP3   OH266765   3.481   3.988  11.692 -0.3099 -0.5499  0.1376
15117TIP3    H166766   3.538   3.919  11.658  0.5254  0.5984 -0.8596
15117TIP3    H266767   3.464   4.045  11.617 -0.6628  0.5587  1.0267
15118TIP3   OH266768   1.054   5.401  17.136  0.2439 -0.3258 -0.1728
15118TIP3    H166769   1.113   5.377  17.208  0.8880  1.1287 -0.1763
15118TIP3    H266770   0.966   5.385  17.171  0.3918  2.6469  1.9548
15119TIP3   OH266771   3.535   2.207  14.100  0.1947  0.2722  0.2214
15119TIP3    H166772   3.469   2.171  14.041 -0.0759  1.2845 -0.1179
15119TIP3    H266773   3.561   2.290  14.059 -0.5781  1.4112  1.9227
15120TIP3   OH266774   4.352   4.802  12.048  0.4135  0.5151 -0.3215
15120TIP3    H166775   4.352   4.707  12.039 -1.0517  0.0700  2.8126
15120TIP3    H266776   4.267   4.829  12.012  0.8609  0.6849 -1.2802
15121TIP3   OH266777   4.456   5.715  12.453 -0.2256 -0.1274  0.1495
15121TIP3    H166778   4.525   5.678  12.398 -0.1378 -0.5925  0.5644
15121TIP3    H266779   4.395   5.756  12.392  0.0882 -0.2741 -0.2615
15122TIP3   OH266780   5.197   1.871   5.638  0.0110 -0.2210 -0.2422
15122TIP3    H166781   5.105   1.846   5.623 -0.1390  0.2233 -0.0919
15122TIP3    H266782   5.197   1.911   5.725  0.6564 -1.6589  0.4398
15123TIP3   OH266783   2.974   1.834  11.582  0.6096 -0.4280 -0.2070
15123TIP3    H166784   3.005   1.802  11.666 -0.7905  0.5962  0.7406
15123TIP3    H266785   2.920   1.763  11.547 -0.7334  0.0193  0.8820
15124TIP3   OH266786   0.706   2.683  14.029  0.0822 -0.4828 -0.3879
15124TIP3    H166787   0.659   2.624  14.087 -0.0588 -1.7377 -1.7271
15124TIP3    H266788   0.638   2.737  13.990  0.2132  0.6442  0.8518
15125TIP3   OH266789   4.251   2.127   4.976  0.1640  0.3476 -0.1352
15125TIP3    H166790   4.164   2.087   4.973  0.0287  0.4656  1.3310
15125TIP3    H266791   4.307   2.068   4.926 -0.4364 -0.6053  0.2990
15126TIP3   OH266792   1.934   4.835   5.290  0.0413 -0.5025 -0.4057
15126TIP3    H166793   1.915   4.749   5.253  0.9771 -1.1449  0.5403
15126TIP3    H266794   2.003   4.870   5.235 -0.7202 -0.1034 -1.1258
15127TIP3   OH266795   6.041   3.162   5.336 -0.5189 -0.2670  0.6376
15127TIP3    H166796   6.033   3.239   5.391  1.7691 -0.4074  1.2772
15127TIP3    H266797   6.057   3.196   5.248  2.6381  0.1256  1.2586
15128TIP3   OH266798   1.464   0.491   6.607  1.1285  0.0714 -0.8835
15128TIP3    H166799   1.430   0.560   6.664  1.3843 -0.4826 -0.0512
15128TIP3    H266800   1.465   0.531   6.520  0.5988  0.8810 -0.5349
15129TIP3   OH266801   6.476   1.896  16.844 -0.1648  0.2175  0.4329
15129TIP3    H166802   6.402   1.900  16.904  0.4081  0.0639  1.1640
15129TIP3    H266803   6.495   1.802  16.836 -0.7676  0.1647 -0.6717
15130TIP3   OH266804   4.261   5.769   1.809 -0.2692  0.4933  0.1850
15130TIP3    H166805   4.325   5.835   1.835  1.2230 -1.1108  0.7239
15130TIP3    H266806   4.178   5.800   1.847  0.3119  2.1838  0.1599
15131TIP3   OH266807   2.590   5.504   3.937  0.1121 -0.2774 -0.1609
15131TIP3    H166808   2.592   5.596   3.962  1.4368 -0.2821 -0.2182
15131TIP3    H266809   2.545   5.504   3.852  1.7671  0.5670 -1.0795
15132TIP3   OH266810   5.422   1.911   3.700 -0.2885  0.3548 -0.6090
15132TIP3    H166811   5.445   1.949   3.615 -0.2936 -0.8231 -1.1561
15132TIP3    H266812   5.495   1.933   3.757  0.2025  0.2645 -1.1987
15133TIP3   OH266813   3.319   3.144  12.636 -0.5998  0.2610  0.0126
15133TIP3    H166814   3.342   3.213  12.698 -2.4930  1.5916 -0.6435
15133TIP3    H266815   3.245   3.180  12.587  0.6612 -0.8166 -2.8866
15134TIP3   OH266816   5.538   0.803  16.872 -0.2441  0.0542 -0.2354
15134TIP3    H166817   5.543   0.743  16.947 -0.8525 -1.1841 -1.1595
15134TIP3    H266818   5.446   0.801  16.846 -0.0956  0.7135 -0.8233
15135TIP3   OH266819   0.271   4.008   0.467 -0.2463  0.2451  0.2848
15135TIP3    H166820   0.282   4.072   0.537  1.7339 -0.3767  0.6089
15135TIP3    H266821   0.221   3.936   0.507 -1.0127  0.8425  0.4091
15136TIP3   OH266822   6.505   1.190   4.653 -0.0672  0.0290 -0.0782
15136TIP3    H166823   6.505   1.111   4.599  0.3372 -1.0489  1.4072
15136TIP3    H266824   6.423   1.185   4.703 -0.5304  1.1057 -0.7024
15137TIP3   OH266825   3.661   2.919  14.701 -0.0800  0.5487  0.0177
15137TIP3    H166826   3.700   2.999  14.666  0.9578  0.0679  0.0365
15137TIP3    H266827   3.668   2.929  14.796 -0.7459  0.8040  0.0505
15138TIP3   OH266828   3.898   6.348  16.893  0.3674 -0.2741  0.0446
15138TIP3    H166829   3.931   6.366  16.804  1.8039 -1.1414  0.3724
15138TIP3    H266830   3.853   6.429  16.918  1.7839  0.7917 -0.6717
15139TIP3   OH266831   0.454   5.244  12.308 -0.2943  0.2618 -0.2428
15139TIP3    H166832   0.469   5.223  12.401 -1.4508  1.7502  0.3149
15139TIP3    H266833   0.368   5.207  12.289 -0.4200  0.6670 -0.4747
15140TIP3   OH266834   5.124   2.628  17.410  0.1642 -0.0725  0.0713
15140TIP3    H166835   5.209   2.652  17.447 -0.6711  3.5822  0.0739
15140TIP3    H266836   5.076   2.711  17.405 -2.3781 -1.5082 -2.6400
15141TIP3   OH266837   2.626   5.212  16.795 -0.4793  0.2928 -0.9293
15141TIP3    H166838   2.612   5.239  16.704 -1.0564  0.2762 -0.8530
15141TIP3    H266839   2.576   5.275  16.846 -0.5925 -0.0127 -0.6566
15142TIP3   OH266840   2.804   0.942  14.145 -0.7966  0.2605  0.3774
15142TIP3    H166841   2.882   0.887  14.143 -0.5677  0.5975 -0.8304
15142TIP3    H266842   2.799   0.980  14.058 -0.4930  2.8000  1.3883
15143TIP3   OH266843   2.298   2.817   2.653 -0.2277  0.0555  0.0665
15143TIP3    H166844   2.276   2.727   2.677 -0.1416 -0.5102 -1.8534
15143TIP3    H266845   2.379   2.810   2.604 -0.8020  1.0271 -1.0680
15144TIP3   OH266846   1.405   0.841  16.571  0.8390 -0.2042  0.0666
15144TIP3    H166847   1.341   0.853  16.500  0.9562 -1.0605 -0.1975
15144TIP3    H266848   1.490   0.846  16.528  0.8965 -1.6803 -0.0293
15145TIP3   OH266849   3.812   4.081  11.516 -0.1745  0.1125 -0.0081
15145TIP3    H166850   3.876   4.096  11.447  0.2600 -0.2040  0.3237
15145TIP3    H266851   3.845   4.005  11.564 -1.4484 -0.8705 -0.6171
15146TIP3   OH266852   1.703   0.475   1.061 -0.7938 -0.1181 -0.4227
15146TIP3    H166853   1.777   0.489   1.002  0.6869  2.1623  1.7321
15146TIP3    H266854   1.635   0.535   1.030 -0.1015  0.9200  0.0155
15147TIP3   OH266855   3.773   0.343  16.152  0.4122  0.5368  0.1863
15147TIP3    H166856   3.697   0.296  16.184 -0.3373  0.9823 -0.8884
15147TIP3    H266857   3.846   0.310  16.205 -0.7916  1.5179  2.6285
15148TIP3   OH266858   2.433   5.769  13.651  0.5937  0.5322  0.0102
15148TIP3    H166859   2.358   5.806  13.604 -0.8773 -1.4627  0.6713
15148TIP3    H266860   2.504   5.830  13.633 -0.1668  0.5469 -3.8011
15149TIP3   OH266861   3.150   6.368   0.988  0.5285 -0.1853 -0.0522
15149TIP3    H166862   3.095   6.426   0.937 -0.2086 -0.4791  0.3881
15149TIP3    H266863   3.239   6.401   0.976  0.2410  0.3681 -0.6697
15150TIP3   OH266864   2.413   4.244   1.523  0.1168  0.1957  0.3341
15150TIP3    H166865   2.479   4.260   1.455 -0.0714  1.2935  0.3959
15150TIP3    H266866   2.455   4.272   1.604 -0.4577  1.0128  0.3577
15151TIP3   OH266867   1.830   1.053   4.159  0.0456 -0.4852  0.1794
15151TIP3    H166868   1.756   1.108   4.184  0.1512 -0.7195  1.0448
15151TIP3    H266869   1.826   1.049   4.064 -0.5370  0.2184  0.1657
15152TIP3   OH266870   6.733   4.342  11.970  0.0065  0.0167  0.0238
15152TIP3    H166871   6.728   4.251  11.998 -1.8261 -0.5525 -1.9208
15152TIP3    H266872   6.763   4.338  11.880 -0.9156  1.2592 -0.3622
15153TIP3   OH266873   5.746   3.382   3.219  0.3860 -0.5891 -0.1657
15153TIP3    H166874   5.663   3.385   3.172  0.6904  2.1738 -0.6603
15153TIP3    H266875   5.722   3.358   3.309 -0.9940  0.5191 -0.2189
15154TIP3   OH266876   0.585   3.777  16.927  0.5118  0.8626  0.7291
15154TIP3    H166877   0.533   3.698  16.942 -0.1263  1.3965  1.4002
15154TIP3    H266878   0.523   3.841  16.894  1.2331  0.7933 -0.8633
15155TIP3   OH266879   1.404   6.543  14.527 -0.0251  0.2066  0.0566
15155TIP3    H166880   1.402   6.549  14.623 -0.3414  0.4949  0.0335
15155TIP3    H266881   1.474   6.603  14.501 -0.2717  0.5080  0.0809
15156TIP3   OH266882   0.761   5.013  13.399  0.4609  0.3368  0.3932
15156TIP3    H166883   0.749   5.030  13.492 -0.8715  1.0596  0.1117
15156TIP3    H266884   0.767   5.100  13.359  2.0085  0.0403 -0.1087
15157TIP3   OH266885   2.430   6.196   4.869  0.3184  0.0039 -0.1911
15157TIP3    H166886   2.373   6.231   4.801 -1.0655 -0.1357  0.8396
15157TIP3    H266887   2.438   6.103   4.849  0.6297  0.1248 -0.6397
15158TIP3   OH266888   2.963   4.217   2.655 -0.1044  0.2260  0.0143
15158TIP3    H166889   2.992   4.224   2.564 -0.1922 -1.0794 -0.1282
15158TIP3    H266890   2.983   4.303   2.692  0.4402  0.6038 -1.0855
15159TIP3   OH266891   6.167   5.072   4.357  0.0562  0.0883 -0.3933
15159TIP3    H166892   6.251   5.049   4.397  0.1675 -1.7051 -1.5416
15159TIP3    H266893   6.106   5.078   4.431  0.7936 -0.5169  0.2802
15160TIP3   OH266894   4.242   1.324  16.009 -0.1861  0.2239  0.1112
15160TIP3    H166895   4.228   1.412  15.972 -0.1335 -0.0074 -0.4747
15160TIP3    H266896   4.336   1.317  16.020 -0.2993  0.9617  2.0037
15161TIP3   OH266897   2.661   3.520  12.919  0.0833 -0.1642  0.1896
15161TIP3    H166898   2.742   3.491  12.876 -0.2366 -3.0595  1.3543
15161TIP3    H266899   2.679   3.509  13.012 -1.9002 -1.6404  0.4446
15162TIP3   OH266900   6.693   4.788  16.318 -0.1561  0.3873  0.1556
15162TIP3    H166901   6.648   4.818  16.397  1.1747  2.0706  0.3271
15162TIP3    H266902   6.759   4.727  16.349 -0.8976 -0.4498  0.1198
15163TIP3   OH266903   4.014   5.967   5.279  0.1040 -0.0021 -0.6810
15163TIP3    H166904   3.967   6.048   5.260  1.3466  1.0534  0.5071
15163TIP3    H266905   4.057   5.944   5.197  0.1218  0.8220 -0.9057
15164TIP3   OH266906   3.923   1.101   4.167  0.0356 -0.3668 -0.1725
15164TIP3    H166907   3.843   1.104   4.115 -1.4147  1.1226  1.9833
15164TIP3    H266908   3.893   1.095   4.257  2.1998  2.8433  0.9531
15165TIP3   OH266909   0.202   5.611   2.806  0.1681  0.1978  0.4307
15165TIP3    H166910   0.251   5.572   2.733 -1.2361 -0.4897 -0.1793
15165TIP3    H266911   0.198   5.704   2.784  2.1785  0.5007  1.0982
15166TIP3   OH266912   3.307   3.126   2.683  0.4437  0.3355 -0.4528
15166TIP3    H166913   3.318   3.126   2.779  0.0341 -1.8537 -0.3597
15166TIP3    H266914   3.235   3.186   2.668 -1.2145 -1.1985  0.9067
15167TIP3   OH266915   6.447   3.442   3.213 -0.8447 -0.6285 -0.2719
15167TIP3    H166916   6.417   3.400   3.132 -0.4977 -1.3108 -0.0554
15167TIP3    H266917   6.533   3.478   3.190 -0.4572 -1.3833 -0.0389
15168TIP3   OH266918   1.362   4.772   5.470 -0.0824 -0.6326  0.0568
15168TIP3    H166919   1.314   4.776   5.387 -2.1742 -0.2381  1.2216
15168TIP3    H266920   1.419   4.696   5.460  0.0783 -0.3201 -1.9103
15169TIP3   OH266921   3.233   0.858   1.945  0.0233  0.1503  0.1572
15169TIP3    H166922   3.275   0.774   1.964 -0.3361 -0.2625 -0.8389
15169TIP3    H266923   3.298   0.908   1.896 -0.1717  0.0248 -0.2270
15170TIP3   OH266924   0.444   1.918   5.288 -0.2981 -0.1915 -0.1138
15170TIP3    H166925   0.418   1.832   5.255 -2.9689 -0.6531  2.7631
15170TIP3    H266926   0.505   1.900   5.359 -2.2241  0.0325  1.7073
15171TIP3   OH266927   0.030   5.479  11.827 -0.0086  1.0612  0.3405
15171TIP3    H166928  -0.059   5.480  11.791  0.1873  2.3445 -0.1536
15171TIP3    H266929   0.087   5.491  11.751  0.5923  0.4558  0.6849
15172TIP3   OH266930   1.049   3.458   4.964  0.0836 -0.1070  0.1066
15172TIP3    H166931   1.028   3.492   4.877  0.8163  0.7326  0.2357
15172TIP3    H266932   1.145   3.460   4.968  0.0396  1.2752  1.4431
15173TIP3   OH266933   4.266   6.333   5.006 -0.1404 -0.3094 -0.2585
15173TIP3    H166934   4.232   6.406   5.058  0.1527  0.6554 -1.3824
15173TIP3    H266935   4.359   6.328   5.028  0.0071  0.1689 -0.7460
15174TIP3   OH266936   0.463   1.711  14.623  0.6227  0.3396 -0.0411
15174TIP3    H166937   0.467   1.620  14.592  2.2807  0.7219 -1.0853
15174TIP3    H266938   0.468   1.764  14.543  0.3558  1.3648  0.5995
15175TIP3   OH266939   3.174   6.350  13.609  0.1671 -0.2661 -0.4633
15175TIP3    H166940   3.190   6.291  13.683 -0.8912 -0.0401 -0.0275
15175TIP3    H266941   3.260   6.384  13.586  0.6370 -1.0657  0.0510
15176TIP3   OH266942   4.673   1.223  15.850  0.5206 -0.0132  0.0535
15176TIP3    H166943   4.613   1.230  15.925 -0.3452  0.1273 -0.6465
15176TIP3    H266944   4.703   1.132  15.853 -1.0860 -0.5973 -0.6020
15177TIP3   OH266945   5.466   1.392  11.826 -0.3162  0.0926 -0.0502
15177TIP3    H166946   5.468   1.358  11.737  0.7710  0.1476 -0.0564
15177TIP3    H266947   5.400   1.462  11.824 -0.1820  0.1977 -0.8400
15178TIP3   OH266948   2.522   0.506  11.482  0.5699 -0.0028  0.1420
15178TIP3    H166949   2.617   0.496  11.480  0.5147 -1.5316  2.2792
15178TIP3    H266950   2.505   0.561  11.558 -0.2912 -0.1918  0.0916
15179TIP3   OH266951   1.012   6.453   6.106  0.2873 -0.0376  0.1561
15179TIP3    H166952   1.077   6.515   6.073 -2.0659  0.9579 -3.0791
15179TIP3    H266953   0.960   6.503   6.169 -0.1727  0.6015 -0.7174
15180TIP3   OH266954   3.703   3.406   4.180  0.7887 -0.3086 -0.7893
15180TIP3    H166955   3.698   3.312   4.199 -1.3499 -0.5464 -2.1241
15180TIP3    H266956   3.613   3.438   4.194  1.4275  1.5269 -0.5354
15181TIP3   OH266957   4.952   4.466  16.597 -0.2331 -0.9005 -0.0108
15181TIP3    H166958   5.032   4.464  16.649 -1.5909  1.8200  2.5085
15181TIP3    H266959   4.981   4.483  16.508  2.0052 -0.8543  0.6699
15182TIP3   OH266960   0.813   6.247   4.568 -0.5994 -0.2105  0.3407
15182TIP3    H166961   0.805   6.332   4.525 -1.2331  0.3101  1.4474
15182TIP3    H266962   0.743   6.194   4.529 -0.2159 -0.2347 -0.3352
15183TIP3   OH266963   2.862   4.632  14.676  0.1506  0.3525  0.8000
15183TIP3    H166964   2.839   4.633  14.583  2.5929  0.8691  0.1242
15183TIP3    H266965   2.896   4.720  14.694 -1.4659  0.6933  2.5759
15184TIP3   OH266966   3.125   1.082  15.142  0.3301  0.3100 -0.1789
15184TIP3    H166967   3.102   1.045  15.227  0.0613  3.3952  1.2363
15184TIP3    H266968   3.212   1.120  15.154 -0.9298  3.5335 -0.1665
15185TIP3   OH266969   1.021   5.794  15.510  0.6673 -0.3861  0.0670
15185TIP3    H166970   1.089   5.732  15.486 -0.4287 -0.9363 -1.8437
15185TIP3    H266971   1.067   5.876  15.525  1.9759 -1.2898  1.2000
15186TIP3   OH266972   6.670   5.807  12.279 -0.1790  0.2598  0.0891
15186TIP3    H166973   6.646   5.897  12.299 -1.0431 -0.0277  0.3934
15186TIP3    H266974   6.738   5.785  12.343  0.6118  0.9359 -0.4900
15187TIP3   OH266975   1.411   0.037   3.020  0.2890 -0.1513  0.0777
15187TIP3    H166976   1.455   0.111   3.062 -1.3272  0.6625  0.4128
15187TIP3    H266977   1.466  -0.039   3.042  1.2439  0.7470  0.8893
15188TIP3   OH266978   2.739   3.901  10.726 -0.1825 -0.1530 -0.6250
15188TIP3    H166979   2.810   3.965  10.717 -0.9104  0.6869 -0.4540
15188TIP3    H266980   2.699   3.898  10.639 -0.1118 -0.4394 -0.6508
15189TIP3   OH266981   4.340   2.697   4.570 -0.2195 -0.1234 -0.4452
15189TIP3    H166982   4.308   2.686   4.660  0.0930  0.0902 -0.3079
15189TIP3    H266983   4.333   2.609   4.532  1.2942 -0.6205  0.3338
15190TIP3   OH266984   6.689   2.438  11.736  0.3799 -0.2034  1.0353
15190TIP3    H166985   6.630   2.405  11.803  1.0315  0.5173  1.9995
15190TIP3    H266986   6.757   2.371  11.729 -0.8955 -1.4219 -0.6487
15191TIP3   OH266987   6.253   0.369   0.526 -0.6706 -0.2275  0.4249
15191TIP3    H166988   6.279   0.323   0.446 -0.6199 -1.3658  1.0849
15191TIP3    H266989   6.331   0.420   0.550 -0.2886 -0.7761  0.3769
15192TIP3   OH266990   1.385   1.045  15.373  0.7530  0.1025  0.2252
15192TIP3    H166991   1.461   1.094  15.403  0.2433  1.5687 -0.7713
15192TIP3    H266992   1.416   0.995  15.298  0.5254  1.6026 -0.9276
15193TIP3   OH266993   2.604   3.917   3.167 -0.2948 -0.1073  0.1579
15193TIP3    H166994   2.641   3.941   3.252 -0.9545 -2.3804  1.1663
15193TIP3    H266995   2.534   3.981   3.153  0.5752  1.0137  0.7291
15194TIP3   OH266996   2.357   6.713  12.164  0.1514 -0.1418  0.6673
15194TIP3    H166997   2.308   6.761  12.097 -0.0502 -0.9252  0.2516
15194TIP3    H266998   2.305   6.725  12.244 -0.2962 -0.2910  0.4032
15195TIP3   OH266999   4.256   5.498   1.016  0.3125  0.2294 -0.3948
15195TIP3    H167000   4.252   5.514   1.110 -0.9555 -0.7851 -0.2630
15195TIP3    H267001   4.224   5.409   1.005 -0.0006  0.4994 -1.8313
15196TIP3   OH267002   1.176   5.401   1.645 -0.5144  0.1746 -0.7582
15196TIP3    H167003   1.139   5.482   1.609  0.4985  1.1096  0.2419
15196TIP3    H267004   1.263   5.395   1.606 -0.0826  0.2747  0.1597
15197TIP3   OH267005   4.441   4.116  11.733  0.5087  0.7633  0.7445
15197TIP3    H167006   4.356   4.144  11.767 -0.6109 -0.4580 -0.8806
15197TIP3    H267007   4.443   4.151  11.644  0.8707 -0.7593  0.1181
15198TIP3   OH267008   2.188   1.425  12.931 -0.6132  0.3376  0.7849
15198TIP3    H167009   2.276   1.430  12.969 -0.2748 -0.8653  0.2210
15198TIP3    H267010   2.152   1.343  12.966 -1.4273  0.7088  0.8316
15199TIP3   OH267011   0.529   6.740  13.097  0.5469 -0.2264 -0.2779
15199TIP3    H167012   0.545   6.661  13.046  1.3248  1.5984 -3.1057
15199TIP3    H267013   0.611   6.756  13.144  0.4150 -1.0201  0.2343
15200TIP3   OH267014   0.725   5.956  15.031  0.6441  0.3822  0.4824
15200TIP3    H167015   0.769   6.025  14.982 -0.0604  1.6338  1.5538
15200TIP3    H267016   0.679   6.002  15.101 -3.1645 -0.6633 -1.0628
15201TIP3   OH267017   0.118   6.394  16.743  0.2811 -0.4262  0.0834
15201TIP3    H167018   0.095   6.306  16.712  1.4890 -1.0316  0.8495
15201TIP3    H267019   0.051   6.414  16.808 -0.7784 -0.2052 -1.0412
15202TIP3   OH267020   3.476   1.694  13.175  0.7557 -0.2334 -0.5376
15202TIP3    H167021   3.411   1.669  13.109  0.2362 -0.7530  0.1492
15202TIP3    H267022   3.427   1.699  13.257  1.5923 -0.7633  0.0248
15203TIP3   OH267023   0.700   0.238  15.796 -0.4854 -0.4209  0.0312
15203TIP3    H167024   0.692   0.241  15.701  0.3179  0.3664 -0.0309
15203TIP3    H267025   0.690   0.330  15.823  3.6853  0.1485  0.2668
15204TIP3   OH267026   1.347   0.236   0.052  0.1906 -0.1836 -0.2079
15204TIP3    H167027   1.359   0.322   0.013 -0.2402 -0.0044  0.0553
15204TIP3    H267028   1.421   0.226   0.112  0.0160  0.1764  0.0723
15205TIP3   OH267029   5.915   0.953  11.452 -0.1215 -0.0106 -0.7476
15205TIP3    H167030   5.881   0.965  11.363  1.5281  0.6597 -1.3285
15205TIP3    H267031   5.890   1.034  11.497 -0.7278 -0.2370 -0.6616
15206TIP3   OH267032   1.421   4.712   2.378 -0.0580  0.8259 -0.0193
15206TIP3    H167033   1.384   4.691   2.464 -0.7549  1.5926 -0.1243
15206TIP3    H267034   1.351   4.758   2.332 -0.0031 -0.3353 -1.3262
15207TIP3   OH267035   2.088   3.457   3.865  0.1508  0.0036 -0.9772
15207TIP3    H167036   2.076   3.503   3.783 -0.7160 -0.6818 -1.2546
15207TIP3    H267037   2.057   3.368   3.848 -0.2429 -0.0934  0.1450
15208TIP3   OH267038   3.176   2.624   3.727  0.7474  0.4594 -0.3447
15208TIP3    H167039   3.189   2.647   3.635 -1.1874  1.1490 -0.4908
15208TIP3    H267040   3.160   2.708   3.770 -0.7120 -0.0728  0.1844
15209TIP3   OH267041   4.047   0.818  10.631  0.0424 -0.3027  0.2633
15209TIP3    H167042   3.962   0.817  10.675 -1.4777  1.9515 -2.2645
15209TIP3    H267043   4.045   0.897  10.577  2.7613 -1.4764 -1.8064
15210TIP3   OH267044   3.114   3.622  11.622 -0.1246 -0.2717 -0.3145
15210TIP3    H167045   3.075   3.689  11.566  1.3032  1.2965  0.4946
15210TIP3    H267046   3.041   3.591  11.676 -0.6080  1.4943  0.1218
15211TIP3   OH267047   1.438   4.139  14.572 -0.0759 -0.0414  0.5236
15211TIP3    H167048   1.419   4.052  14.537  0.8453  0.1576 -0.5217
15211TIP3    H267049   1.487   4.122  14.652  0.0246 -0.4873  0.3705
15212TIP3   OH267050   2.439   3.963  13.086  0.3921  0.1264 -0.1740
15212TIP3    H167051   2.518   3.927  13.044  0.7635  1.0569 -0.3082
15212TIP3    H267052   2.413   3.897  13.149  2.1692  0.4219  0.9558
15213TIP3   OH267053   4.155   5.652   3.324 -0.9009 -0.7505  0.2788
15213TIP3    H167054   4.106   5.631   3.244  0.3776 -0.4429 -0.6251
15213TIP3    H267055   4.115   5.733   3.356  0.2650  0.6738 -1.6092
15214TIP3   OH267056   4.568   3.835   3.666 -0.1815 -0.2717  0.0709
15214TIP3    H167057   4.496   3.813   3.726  0.9848  0.7290  1.9202
15214TIP3    H267058   4.571   3.930   3.666  0.4251 -0.2788 -0.9137
15215TIP3   OH267059   6.340   1.218  13.981  0.3331 -0.0722 -0.3147
15215TIP3    H167060   6.378   1.265  13.907  0.0642 -0.9881 -1.0611
15215TIP3    H267061   6.412   1.167  14.018  0.2371 -0.4660 -0.6512
15216TIP3   OH267062   5.232   1.911   2.699  0.3427  0.0051 -0.2596
15216TIP3    H167063   5.323   1.941   2.699 -0.3305  2.2665 -1.1111
15216TIP3    H267064   5.213   1.893   2.607  0.0366 -0.8856 -0.0295
15217TIP3   OH267065   1.390   6.311  16.696  0.3243  0.1039  0.0420
15217TIP3    H167066   1.307   6.266  16.710  0.4190 -0.0276  0.1827
15217TIP3    H267067   1.382   6.394  16.743 -0.7344  1.2973 -2.0671
15218TIP3   OH267068   5.563   5.631  11.006  0.2925 -0.2582 -0.6354
15218TIP3    H167069   5.592   5.615  10.916  1.4044  0.7995 -0.4995
15218TIP3    H267070   5.601   5.717  11.028 -0.3140 -0.3095  0.6942
15219TIP3   OH267071   5.257   4.401   4.392 -0.6616  0.6806  0.9194
15219TIP3    H167072   5.184   4.340   4.389 -1.2186  1.3785 -0.6095
15219TIP3    H267073   5.319   4.366   4.328 -0.9870  1.6927  0.0277
15220TIP3   OH267074   0.793   4.531   3.024 -0.7742  0.4120 -0.0140
15220TIP3    H167075   0.705   4.528   3.061 -0.4668  2.5188  1.0483
15220TIP3    H267076   0.798   4.616   2.981  0.0870 -0.5285 -1.9013
15221TIP3   OH267077   5.835   5.177   1.672 -0.6887 -0.0607 -0.4517
15221TIP3    H167078   5.780   5.245   1.634 -1.0073  0.2605  0.5486
15221TIP3    H267079   5.851   5.116   1.600 -1.9602  0.0887 -0.8856
15222TIP3   OH267080   3.805   6.166  12.908  0.0267 -0.5685 -0.4020
15222TIP3    H167081   3.747   6.206  12.843 -0.6536  2.1157  1.6789
15222TIP3    H267082   3.892   6.197  12.884 -0.2498  0.6051  0.0835
15223TIP3   OH267083   2.723   6.264   0.690 -0.2470 -0.5059 -0.2492
15223TIP3    H167084   2.762   6.331   0.634  0.2639 -0.6659 -0.0929
15223TIP3    H267085   2.763   6.182   0.659 -1.6168 -0.8752 -1.1151
15224TIP3   OH267086   0.020   2.533   2.129 -0.3024 -0.8005  0.4386
15224TIP3    H167087   0.065   2.545   2.046  0.0144  1.5464  0.8870
15224TIP3    H267088   0.010   2.438   2.137  2.7703 -1.3299 -0.6186
15225TIP3   OH267089   0.290   6.123  15.288 -0.0495 -0.0625 -0.2540
15225TIP3    H167090   0.222   6.162  15.234  0.6283  0.5039 -0.7141
15225TIP3    H267091   0.242   6.080  15.359 -0.8652  1.0310 -0.1010
15226TIP3   OH267092   6.368   1.644   3.615 -0.1502  0.2894 -0.1554
15226TIP3    H167093   6.273   1.630   3.614 -0.1031 -0.3331  1.2006
15226TIP3    H267094   6.378   1.736   3.641 -0.3934  0.3227 -0.1756
15227TIP3   OH267095   5.842   3.940   5.963 -0.4323  0.2586  0.2716
15227TIP3    H167096   5.881   3.859   5.998 -0.0326 -0.5991 -1.9852
15227TIP3    H267097   5.804   3.913   5.879 -1.2900  2.2060 -0.0015
15228TIP3   OH267098   0.740   3.972   3.405 -0.4642 -0.5376 -0.1252
15228TIP3    H167099   0.695   3.919   3.471 -2.1007  1.4195  0.4362
15228TIP3    H267100   0.798   4.028   3.455 -1.1310  0.4031 -0.3775
15229TIP3   OH267101   5.854   6.299  15.064 -0.4772  0.4746 -0.0764
15229TIP3    H167102   5.810   6.380  15.088 -1.0271  0.1269  0.0872
15229TIP3    H267103   5.855   6.300  14.968  1.1790  1.5646 -0.1014
15230TIP3   OH267104   4.880   3.993  17.309  0.0991 -0.5462  0.3199
15230TIP3    H167105   4.922   3.916  17.346  0.8660 -0.5541 -0.5637
15230TIP3    H267106   4.947   4.061  17.311 -0.2187 -0.2145  0.0319
15231TIP3   OH267107   5.388   3.286  10.824  0.1918 -0.4934  0.3516
15231TIP3    H167108   5.302   3.327  10.815  0.4887  0.5452  1.8478
15231TIP3    H267109   5.377   3.222  10.894  0.4424 -0.9753 -0.0425
15232TIP3   OH267110   2.313   4.350  17.285 -0.7886  0.0066 -0.4601
15232TIP3    H167111   2.349   4.290  17.351 -1.1210  0.7352  0.4039
15232TIP3    H267112   2.319   4.302  17.203 -1.3839 -1.3660  0.2657
15233TIP3   OH267113   3.618   5.776   1.645  0.7269 -0.4316 -0.0178
15233TIP3    H167114   3.600   5.870   1.657 -1.2830 -0.6921 -0.6018
15233TIP3    H267115   3.612   5.762   1.551 -1.8961 -1.5997  0.2307
15234TIP3   OH267116   6.748   4.084  16.406  0.2342  0.1190  0.3972
15234TIP3    H167117   6.689   4.012  16.384  0.5443 -0.1882  0.5510
15234TIP3    H267118   6.807   4.047  16.472  1.5386 -0.0447 -0.8128
15235TIP3   OH267119   3.306   2.166   0.486 -0.3731  0.2994  0.2121
15235TIP3    H167120   3.346   2.129   0.565 -0.3655  0.1525  0.1398
15235TIP3    H267121   3.374   2.222   0.449  0.2910 -1.0449 -0.6859
15236TIP3   OH267122   6.558   6.705  11.360 -0.3847 -0.2531  0.0616
15236TIP3    H167123   6.623   6.666  11.418  1.0791  2.5515  0.5118
15236TIP3    H267124   6.602   6.710  11.275 -0.2018  1.0555  0.2102
15237TIP3   OH267125   5.001   3.875   2.447 -0.0500 -0.0561 -0.3402
15237TIP3    H167126   5.043   3.902   2.365  0.3264  0.3630 -0.0117
15237TIP3    H267127   5.037   3.934   2.513 -0.6491 -0.1310  0.0623
15238TIP3   OH267128   2.863   5.132  15.293  0.1416 -1.1138 -0.7284
15238TIP3    H167129   2.782   5.083  15.306  0.5245 -2.2401 -2.2440
15238TIP3    H267130   2.835   5.216  15.256 -0.3454 -1.4424 -1.1119
15239TIP3   OH267131   1.515   3.764   4.851  0.0298  0.3495 -0.3812
15239TIP3    H167132   1.532   3.803   4.766  1.0846  0.9862  0.1164
15239TIP3    H267133   1.595   3.715   4.872  0.4237  1.5235  0.9633
15240TIP3   OH267134   4.319   3.343  16.832  0.5391  0.2477  0.4674
15240TIP3    H167135   4.290   3.348  16.741  0.5828 -1.1305  0.3534
15240TIP3    H267136   4.238   3.326  16.881  0.5953  0.4118  0.6147
15241TIP3   OH267137   4.596   4.770   1.948  0.1652  0.7275  0.0331
15241TIP3    H167138   4.544   4.720   1.885  2.1213  1.4879 -2.3350
15241TIP3    H267139   4.613   4.708   2.019 -1.9925 -0.2151 -0.1800
15242TIP3   OH267140   3.910   2.638  10.824 -0.3011 -0.5187 -0.1360
15242TIP3    H167141   3.992   2.686  10.809 -1.0472  0.7704 -0.2572
15242TIP3    H267142   3.845   2.706  10.839 -1.9505 -1.3318 -2.7970
15243TIP3   OH267143   2.305   4.635  16.332 -0.6370 -0.2904  0.1263
15243TIP3    H167144   2.214   4.610  16.317 -0.6070 -0.7072  0.6052
15243TIP3    H267145   2.304   4.730  16.336 -1.0392 -0.2928  0.0581
15244TIP3   OH267146   3.162   4.419  15.543 -0.3481  0.0199 -0.7636
15244TIP3    H167147   3.109   4.341  15.552  0.8080 -0.7841 -0.6448
15244TIP3    H267148   3.102   4.492  15.558 -1.1244 -0.8949  0.7310
15245TIP3   OH267149   0.806   4.062  12.282  0.1455  0.4070  0.1121
15245TIP3    H167150   0.877   4.017  12.235 -0.4246 -0.3387 -0.0630
15245TIP3    H267151   0.817   4.154  12.259  1.7508  0.4789  1.0092
15246TIP3   OH267152   3.969   0.319  11.893 -0.1790  0.5450  0.3278
15246TIP3    H167153   4.059   0.285  11.891 -0.8609 -1.3571 -0.1636
15246TIP3    H267154   3.979   0.412  11.875  1.6452  0.2339 -0.6279
15247TIP3   OH267155   4.103   1.200   3.393 -0.0916  0.5669 -0.3641
15247TIP3    H167156   4.109   1.180   3.299 -0.8732 -0.3824 -0.2205
15247TIP3    H267157   4.040   1.137   3.427  1.1142  0.0559  1.0433
15248TIP3   OH267158   3.913   4.085  16.778 -0.5413 -0.4298 -0.7463
15248TIP3    H167159   3.862   4.017  16.823  0.5438  0.4280  2.0519
15248TIP3    H267160   3.879   4.167  16.813 -1.2867  0.5356 -3.4747
15249TIP3   OH267161   1.426   4.875  14.676 -0.0126 -0.2475 -0.4876
15249TIP3    H167162   1.505   4.839  14.717 -0.1440 -0.8765 -0.7760
15249TIP3    H267163   1.457   4.915  14.595  0.0125 -0.4700 -0.5876
15250TIP3   OH267164   1.970   5.021   5.005  0.3681  0.4331  0.0085
15250TIP3    H167165   2.037   5.083   5.034  0.0256  0.4226  0.8427
15250TIP3    H267166   1.887   5.066   5.022  0.1531  0.2765 -0.6279
15251TIP3   OH267167   3.720   5.111   2.755  0.3100 -0.5358 -0.1583
15251TIP3    H167168   3.736   5.187   2.699  0.5545 -0.2396  0.3088
15251TIP3    H267169   3.694   5.149   2.839 -1.9707 -0.9644 -0.5980
15252TIP3   OH267170   2.076   0.422   2.362  0.5679 -0.0444  0.5341
15252TIP3    H167171   1.998   0.464   2.399  0.5651 -0.2395  0.7550
15252TIP3    H267172   2.058   0.328   2.370 -0.3660 -0.1435 -1.9196
15253TIP3   OH267173   6.501   3.585   1.237 -0.3691 -0.4490  0.3831
15253TIP3    H167174   6.522   3.677   1.247 -1.8285 -0.0405 -0.0376
15253TIP3    H267175   6.585   3.543   1.215  0.5550  0.5373  1.8721
15254TIP3   OH267176   3.341   5.075  15.065  0.4076 -0.4356 -0.2549
15254TIP3    H167177   3.253   5.085  15.101 -0.1219  2.0187 -2.0054
15254TIP3    H267178   3.380   5.006  15.118 -2.2767 -1.0604  1.0972
15255TIP3   OH267179   1.675   6.710  12.831  0.0637  0.1146  0.3497
15255TIP3    H167180   1.601   6.722  12.772  0.6130 -1.7570 -0.8172
15255TIP3    H267181   1.752   6.727  12.778  0.5217  0.4204  1.0950
15256TIP3   OH267182   4.507   5.238   0.990  0.1923 -0.4386  0.5877
15256TIP3    H167183   4.559   5.316   1.012  0.3866 -0.5268  0.4477
15256TIP3    H267184   4.560   5.165   1.021 -0.5638 -0.4740  1.8718
15257TIP3   OH267185   2.404   1.965  14.971 -0.2436 -0.6066  0.3682
15257TIP3    H167186   2.330   1.905  14.957 -0.0671 -1.4323  2.5255
15257TIP3    H267187   2.367   2.052  14.958 -1.4148 -1.0372  0.6514
15258TIP3   OH267188   4.735   6.384   0.457 -0.3154  0.2257 -0.2494
15258TIP3    H167189   4.787   6.442   0.402 -1.5413 -0.3843 -2.1396
15258TIP3    H267190   4.714   6.310   0.401 -2.9991  0.3382  0.4776
15259TIP3   OH267191   4.060   3.024  12.871 -0.2660  0.1362 -0.1762
15259TIP3    H167192   4.072   2.981  12.786 -1.8374 -0.1710 -0.2715
15259TIP3    H267193   3.972   3.060  12.868 -1.1260 -1.5136  2.0098
15260TIP3   OH267194   6.167   3.747  16.062  0.2802  0.1185 -1.0738
15260TIP3    H167195   6.110   3.672  16.046 -0.2867 -0.2333  2.0262
15260TIP3    H267196   6.245   3.709  16.104  0.2095  1.1898  0.0707
15261TIP3   OH267197   0.425   4.898  15.598 -0.3283  0.3251  0.2510
15261TIP3    H167198   0.457   4.809  15.588 -0.9128  0.1235  0.1489
15261TIP3    H267199   0.350   4.904  15.538 -0.2015  0.9277  0.1392
15262TIP3   OH267200   1.176   2.036  12.220  0.3768  0.0162  0.1742
15262TIP3    H167201   1.232   2.103  12.180 -0.3706 -0.9024 -2.6862
15262TIP3    H267202   1.112   2.085  12.272  2.6109  1.1740  1.9881
15263TIP3   OH267203   0.144   1.421   3.464 -0.3293 -0.6323  0.1659
15263TIP3    H167204   0.053   1.447   3.450 -0.1954 -0.7155 -0.9492
15263TIP3    H267205   0.191   1.457   3.389  0.9153  1.0667  1.6796
15264TIP3   OH267206   1.129   6.634   5.088  0.3892  0.5087 -0.1126
15264TIP3    H167207   1.175   6.620   5.006  1.6569  0.4684  0.5857
15264TIP3    H267208   1.146   6.555   5.139  0.6128  1.0328  0.6402
15265TIP3   OH267209   2.885   3.221  12.553  0.1864  0.3568 -0.3963
15265TIP3    H167210   2.932   3.172  12.621  0.9773  1.2447 -0.2880
15265TIP3    H267211   2.806   3.170  12.537  0.5787 -0.5008  0.3276
15266TIP3   OH267212   1.804   3.828   1.760 -0.0492  0.4648  0.1933
15266TIP3    H167213   1.899   3.816   1.767 -0.3303 -2.0577  0.5697
15266TIP3    H267214   1.774   3.833   1.850 -0.3134  1.0356  0.0763
15267TIP3   OH267215   6.109   0.955  14.107 -0.0430  0.0076 -0.5606
15267TIP3    H167216   6.071   0.907  14.180  2.0869  1.6656  1.8061
15267TIP3    H267217   6.200   0.925  14.103  0.5415  1.6876 -0.8999
15268TIP3   OH267218   1.584   6.745  14.518 -0.1969  0.1723 -0.7021
15268TIP3    H167219   1.621   6.793  14.443  0.4015 -0.7620 -1.0345
15268TIP3    H267220   1.564   6.812  14.583  0.4036  0.8872 -1.2396
15269TIP3   OH267221   0.353   0.828  14.066 -0.6378  0.3341  0.4222
15269TIP3    H167222   0.385   0.808  14.154  0.7048 -1.0897 -0.3373
15269TIP3    H267223   0.428   0.867  14.022 -0.0848 -2.1776 -1.1039
15270TIP3   OH267224   0.274   4.449   3.510  0.0828  0.3713  0.2146
15270TIP3    H167225   0.269   4.486   3.598  0.1542  2.8029 -0.7137
15270TIP3    H267226   0.365   4.419   3.501 -0.2598 -1.0827  1.3670
15271TIP3   OH267227   0.520   1.033  13.933 -0.0781 -0.2878  0.3720
15271TIP3    H167228   0.474   1.106  13.890 -1.1802 -0.8748  0.5107
15271TIP3    H267229   0.576   0.996  13.865 -1.1562 -0.6633 -0.3259
15272TIP3   OH267230   5.511   4.823  16.140  0.2964 -0.0728 -0.3280
15272TIP3    H167231   5.557   4.795  16.060  1.2270  0.3668  0.0392
15272TIP3    H267232   5.539   4.761  16.207 -1.4072 -1.1737 -0.5697
15273TIP3   OH267233   4.466   1.806   2.473  0.3970  0.6984  0.2492
15273TIP3    H167234   4.388   1.761   2.506 -0.4587  1.4387 -0.6709
15273TIP3    H267235   4.431   1.875   2.417  1.7501  0.3050 -1.1510
15274TIP3   OH267236   3.024   2.563  17.439 -0.6719 -0.1356 -0.5439
15274TIP3    H167237   3.105   2.579  17.487 -0.3847  1.8101 -1.5610
15274TIP3    H267238   2.954   2.584  17.502 -0.4577 -2.4351  0.5358
15275TIP3   OH267239   1.034   4.061   2.857 -0.5044 -0.3266  0.0567
15275TIP3    H167240   1.066   4.079   2.769 -2.3004 -1.0100 -0.7691
15275TIP3    H267241   1.040   3.966   2.866 -1.2873 -0.3557  0.2869
15276TIP3   OH267242   5.742   1.604  14.637 -0.2737 -0.2044  0.5033
15276TIP3    H167243   5.788   1.545  14.578 -0.4829  0.4109 -0.3106
15276TIP3    H267244   5.792   1.686  14.633 -1.6871  0.6489 -0.8198
15277TIP3   OH267245   6.309   5.198  15.489 -0.8636  0.7463  0.8544
15277TIP3    H167246   6.223   5.223  15.455 -1.1569  0.7172  1.5433
15277TIP3    H267247   6.294   5.112  15.529 -0.2102  0.1293 -0.1661
15278TIP3   OH267248   5.265   0.380  12.148  0.4178 -0.4722 -0.0594
15278TIP3    H167249   5.335   0.442  12.125  0.2986  0.8320  2.6780
15278TIP3    H267250   5.297   0.295  12.116  2.4013  0.3630 -0.4845
15279TIP3   OH267251   2.826   3.829   5.449 -0.4390  0.2324  0.3643
15279TIP3    H167252   2.884   3.905   5.450 -1.5522  1.1122  1.5562
15279TIP3    H267253   2.836   3.791   5.536 -1.3636  0.1840  0.4547
15280TIP3   OH267254   1.088   2.072   4.761  0.0109  0.0583  0.1744
15280TIP3    H167255   1.119   1.995   4.809  1.0311 -0.4305 -1.1906
15280TIP3    H267256   1.145   2.143   4.791 -0.5372  0.1754  0.9869
15281TIP3   OH267257   2.464   0.609   5.656  0.2306 -0.2114  0.2325
15281TIP3    H167258   2.484   0.627   5.748  0.8517 -1.0138  0.2637
15281TIP3    H267259   2.518   0.533   5.633 -1.6970 -1.5858 -0.0943
15282TIP3   OH267260   3.086   2.320  14.160 -0.0069  0.4068  0.6037
15282TIP3    H167261   3.125   2.233  14.167  1.8466  0.8351 -2.6336
15282TIP3    H267262   3.144   2.377  14.210 -0.5458  0.0220  1.7031
15283TIP3   OH267263   1.699   2.035   0.571 -0.1955 -0.3345  0.5044
15283TIP3    H167264   1.749   1.971   0.521 -2.4746 -2.1535  0.3888
15283TIP3    H267265   1.682   2.106   0.509 -0.1102 -0.9730 -0.2633
15284TIP3   OH267266   5.972   1.537  11.314  0.2610  0.4800  0.1887
15284TIP3    H167267   5.933   1.618  11.348 -1.0807 -0.3019  0.5915
15284TIP3    H267268   5.902   1.472  11.321  0.4755 -0.1545 -2.4438
15285TIP3   OH267269   2.343   2.232  16.976 -0.3606  0.4012  0.0757
15285TIP3    H167270   2.407   2.274  17.034  0.1427  0.9366 -0.8437
15285TIP3    H267271   2.394   2.171  16.924 -1.0636 -1.3356  1.3032
15286TIP3   OH267272   6.240   4.470  14.927  0.4729 -0.2709 -0.3417
15286TIP3    H167273   6.321   4.496  14.971  0.7980  0.0242 -1.1063
15286TIP3    H267274   6.207   4.550  14.886  1.5484 -1.0046 -2.8187
15287TIP3   OH267275   1.854   2.253   0.991  0.1220  0.5132  0.0838
15287TIP3    H167276   1.838   2.164   0.958  2.0432  1.0052 -2.3467
15287TIP3    H267277   1.782   2.305   0.955 -1.5057 -0.0663  2.1981
15288TIP3   OH267278   6.419   3.878   6.196  0.0003 -0.0839  0.3580
15288TIP3    H167279   6.357   3.950   6.192  1.4166  1.3182  1.9481
15288TIP3    H267280   6.494   3.913   6.244  0.6892 -2.6607  1.3688
15289TIP3   OH267281   3.886   3.894  14.371 -0.4263 -0.5146  0.2349
15289TIP3    H167282   3.967   3.900  14.320  0.5195 -2.0334  1.4581
15289TIP3    H267283   3.822   3.856  14.310 -1.0583  3.0219 -1.5434
15290TIP3   OH267284   4.872   5.280   0.571  0.1313  0.1345  0.1096
15290TIP3    H167285   4.911   5.222   0.636  1.3339  0.4625 -0.2991
15290TIP3    H267286   4.778   5.265   0.580  0.2563  0.2022  1.9351
15291TIP3   OH267287   2.945   1.398  14.658  0.6187 -0.1043  0.1296
15291TIP3    H167288   2.860   1.418  14.618  0.6525 -2.3102 -1.2227
15291TIP3    H267289   2.929   1.320  14.711  1.8009 -0.5900 -0.1946
15292TIP3   OH267290   2.389   5.812   5.208  0.4556 -0.2526 -0.3881
15292TIP3    H167291   2.305   5.857   5.217 -0.7472 -1.7745 -2.6758
15292TIP3    H267292   2.455   5.879   5.224 -1.1868  1.2005  0.6738
15293TIP3   OH267293   5.775   3.846   5.304 -0.1522  0.3432  0.4881
15293TIP3    H167294   5.763   3.771   5.363  1.0594  0.1906  0.5569
15293TIP3    H267295   5.867   3.843   5.278 -0.1131  1.7116  0.3553
15294TIP3   OH267296   0.660   3.439  14.781  0.5593  0.2132  0.0508
15294TIP3    H167297   0.729   3.506  14.776  0.0983  0.6060 -3.1080
15294TIP3    H267298   0.692   3.368  14.726 -0.5002 -0.6941  0.5797
15295TIP3   OH267299   5.233   4.921  15.090  0.2273 -0.4733  0.3603
15295TIP3    H167300   5.237   4.968  15.007 -1.4207 -1.9542 -0.6553
15295TIP3    H267301   5.312   4.946  15.137  0.1399  2.1024 -0.7099
15296TIP3   OH267302   0.990   5.416   5.622 -0.3338 -0.3917  0.4551
15296TIP3    H167303   0.954   5.327   5.633 -0.6215 -0.9153 -3.3280
15296TIP3    H267304   0.932   5.457   5.558  3.2656  0.2287 -2.7166
15297TIP3   OH267305   1.138   1.125   2.693  0.0426  0.2985 -0.3892
15297TIP3    H167306   1.162   1.144   2.783 -0.2123  1.3344 -0.5165
15297TIP3    H267307   1.087   1.044   2.698  0.6240 -0.0350  0.2989
15298TIP3   OH267308   6.390   0.548   3.293 -0.1496  0.6515  0.3105
15298TIP3    H167309   6.480   0.539   3.263 -0.7439 -0.1275 -1.3616
15298TIP3    H267310   6.348   0.466   3.267 -1.6039  1.4390  0.0897
15299TIP3   OH267311   1.672   4.036  13.796 -0.1351  0.4325  0.3189
15299TIP3    H167312   1.609   4.004  13.860 -2.4584  1.8061 -1.1344
15299TIP3    H267313   1.718   4.107  13.840  1.4070 -1.3984  1.8225
15300TIP3   OH267314   2.662   0.423   3.094  0.1327  0.1662 -0.5581
15300TIP3    H167315   2.668   0.444   3.001  0.6994 -0.1316 -0.5941
15300TIP3    H267316   2.604   0.347   3.098  0.0298  0.2404 -0.6615
15301TIP3   OH267317   5.514   5.722  10.761  0.2119 -0.1529 -0.0240
15301TIP3    H167318   5.436   5.775  10.745  0.2003 -0.1260  0.1220
15301TIP3    H267319   5.518   5.663  10.686  0.8897  0.8411 -0.7973
15302TIP3   OH267320   6.102   3.885   3.981  0.3347  1.0358  0.8194
15302TIP3    H167321   6.094   3.918   3.891  0.1385 -1.6054 -0.2223
15302TIP3    H267322   6.196   3.885   3.998  0.5230 -0.0425 -0.0835
15303TIP3   OH267323   5.059   2.907  10.174 -0.2299 -0.2389  0.0727
15303TIP3    H167324   5.017   2.969  10.115 -0.9101  0.0258  0.8170
15303TIP3    H267325   5.019   2.822  10.152  0.7716 -0.4632 -1.0122
15304TIP3   OH267326   5.304   1.333   3.504 -0.8511  0.0993 -0.4294
15304TIP3    H167327   5.396   1.359   3.505 -0.7410 -0.0519  2.4939
15304TIP3    H267328   5.262   1.392   3.441  0.9598  1.2554 -0.5966
15305TIP3   OH267329   4.419   0.540   5.807  0.2782 -0.4016 -0.1939
15305TIP3    H167330   4.365   0.479   5.857  1.5755 -1.7014 -0.3085
15305TIP3    H267331   4.504   0.538   5.850  0.3424  1.3800 -0.1877
15306TIP3   OH267332   5.593   2.475  17.429 -0.3515  0.1117 -0.5456
15306TIP3    H167333   5.593   2.501  17.337  0.8279 -0.1695 -0.6397
15306TIP3    H267334   5.531   2.403  17.434 -1.5526  1.0874 -0.8119
15307TIP3   OH267335   6.055   6.336  16.092  0.2003  0.6030  0.0662
15307TIP3    H167336   5.997   6.312  16.020  0.5902 -0.4867  0.0926
15307TIP3    H267337   6.107   6.257  16.108 -0.5013  0.5048  2.1592
15308TIP3   OH267338   1.321   5.852  14.016  0.0546  0.1961  0.4613
15308TIP3    H167339   1.391   5.817  14.071 -1.1013 -0.6947  1.3908
15308TIP3    H267340   1.298   5.780  13.957 -1.0967 -0.0324  1.1674
15309TIP3   OH267341   6.101   1.366  12.745  0.0276  0.3532  0.0991
15309TIP3    H167342   6.015   1.357  12.705 -0.3820 -0.9598  1.2266
15309TIP3    H267343   6.151   1.292  12.711  0.5269  0.7409 -0.0348
15310TIP3   OH267344   4.076   5.234  16.786  0.2946  0.1889 -0.4008
15310TIP3    H167345   4.067   5.245  16.880  0.7467 -1.3312 -0.1632
15310TIP3    H267346   4.033   5.311  16.749 -3.0946 -0.8777  0.9530
15311TIP3   OH267347   6.714   0.320   4.555  0.1256  0.0011  0.2610
15311TIP3    H167348   6.794   0.290   4.598 -0.1865  0.3245  1.1017
15311TIP3    H267349   6.741   0.400   4.509  0.9664 -1.5112 -2.0317
15312TIP3   OH267350   5.391   2.307   3.396 -0.2885  0.5826 -0.0945
15312TIP3    H167351   5.484   2.312   3.374 -0.3674 -1.5551 -1.1909
15312TIP3    H267352   5.389   2.276   3.486  0.0613  1.2401  0.1390
15313TIP3   OH267353   5.104   1.419  16.535 -0.3975 -0.3867 -0.4993
15313TIP3    H167354   5.097   1.488  16.470 -0.2724  0.1963  0.0929
15313TIP3    H267355   5.167   1.357  16.498  2.3847  1.6327  0.4825
15314TIP3   OH267356   6.010   4.068  11.728  0.0423  0.1458 -0.3870
15314TIP3    H167357   5.976   4.157  11.733 -2.1298 -0.6203 -0.1273
15314TIP3    H267358   5.994   4.041  11.638 -1.3767 -0.6619  0.0618
15315TIP3   OH267359   5.075   5.377   4.184 -0.4149 -0.1174 -0.3972
15315TIP3    H167360   4.990   5.354   4.222 -1.0194  1.9643 -0.3642
15315TIP3    H267361   5.071   5.472   4.171  2.1742  0.1887  0.3108
15316TIP3   OH267362   6.077   5.446  17.200  0.2806  0.5181  0.0806
15316TIP3    H167363   6.004   5.399  17.159 -0.0051  0.2449  0.8666
15316TIP3    H267364   6.061   5.436  17.294  1.4339  0.3139  0.2689
15317TIP3   OH267365   2.032   2.989   0.089 -0.1555  0.1007  0.0671
15317TIP3    H167366   2.042   3.056   0.157 -0.4046 -1.0383  1.2798
15317TIP3    H267367   2.057   2.907   0.132 -2.1488 -0.9502 -0.6145
15318TIP3   OH267368   1.880   5.384  16.953 -0.2586 -0.3759 -0.0953
15318TIP3    H167369   1.922   5.298  16.948 -1.8171 -1.1095 -1.1691
15318TIP3    H267370   1.950   5.442  16.983  1.0897 -1.8348 -0.2618
15319TIP3   OH267371   5.792   1.634  16.880  0.3580 -0.4999 -0.0261
15319TIP3    H167372   5.785   1.564  16.815  1.7527  1.5578 -2.5480
15319TIP3    H267373   5.885   1.655  16.884 -0.1508  2.2675 -0.6087
15320TIP3   OH267374   5.700   0.983  12.723 -0.7599  0.2645 -0.1172
15320TIP3    H167375   5.661   0.918  12.782 -0.9292 -0.3119 -0.8327
15320TIP3    H267376   5.644   1.060  12.731 -0.2772  0.5011  1.1012
15321TIP3   OH267377   0.949   6.488   1.799 -0.0986 -0.5035  0.2658
15321TIP3    H167378   0.921   6.438   1.875  0.5204 -0.4485  0.5301
15321TIP3    H267379   1.026   6.537   1.828 -0.4936  0.3483 -0.0833
15322TIP3   OH267380   0.736   5.287  12.168 -0.2984 -0.2039  0.3568
15322TIP3    H167381   0.643   5.292  12.150 -0.3498  1.9926  0.9633
15322TIP3    H267382   0.745   5.314  12.259  0.9771  0.1704  0.1429
15323TIP3   OH267383   5.393   4.584  11.375 -0.1894  0.7752  0.3304
15323TIP3    H167384   5.339   4.624  11.307  0.2595  1.4533  0.3517
15323TIP3    H267385   5.333   4.571  11.449 -0.4675  0.9288  0.1347
15324TIP3   OH267386   1.485   2.158  10.233  0.5876  0.4429 -0.2169
15324TIP3    H167387   1.552   2.186  10.171 -0.9661 -0.1009 -2.2665
15324TIP3    H267388   1.410   2.215  10.214 -0.3289 -0.5380  0.3401
15325TIP3   OH267389   3.438   2.203   0.178 -0.1638  0.3123  0.5184
15325TIP3    H167390   3.496   2.260   0.229  0.0291 -0.4150  1.1308
15325TIP3    H267391   3.450   2.116   0.217 -0.2435 -0.2006 -0.5775
15326TIP3   OH267392   2.247   3.520   3.341 -0.1307  0.6015  0.1409
15326TIP3    H167393   2.280   3.578   3.410  0.0566 -0.9651  1.4276
15326TIP3    H267394   2.295   3.546   3.263  1.2143  1.0263  1.0765
15327TIP3   OH267395   6.335   4.632  12.246  0.0061 -0.0676 -0.3364
15327TIP3    H167396   6.384   4.569  12.299  3.0294  0.9687 -1.6962
15327TIP3    H267397   6.315   4.704  12.306  4.2694  1.5729 -0.5292
15328TIP3   OH267398   5.501   2.998   4.776  0.3271 -0.4038 -0.1295
15328TIP3    H167399   5.462   2.935   4.836 -0.6886  1.3995  1.2330
15328TIP3    H267400   5.595   2.989   4.788  0.1465 -0.3018  1.5548
15329TIP3   OH267401   3.136   4.201   5.916  0.3731  0.4072 -0.3708
15329TIP3    H167402   3.153   4.158   5.999 -3.4954  1.8914  1.3849
15329TIP3    H267403   3.173   4.289   5.926 -0.1702  0.6151 -0.1566
15330TIP3   OH267404   4.354   2.112   3.615  0.2776 -0.2267  0.0763
15330TIP3    H167405   4.349   2.162   3.697  1.8048  1.3878 -0.7616
15330TIP3    H267406   4.439   2.068   3.619 -0.5134 -1.8084  0.2335
15331TIP3   OH267407   1.253   4.131   5.930  0.3037  0.2122  0.4714
15331TIP3    H167408   1.276   4.147   6.021  0.4206 -0.3589  0.5452
15331TIP3    H267409   1.336   4.117   5.886  0.2511  0.5362  0.2642
15332TIP3   OH267410   6.739   5.676  12.806  0.1979 -0.6864  0.6403
15332TIP3    H167411   6.822   5.694  12.851  0.8980  0.3717 -1.0065
15332TIP3    H267412   6.682   5.643  12.876  1.5066  0.0254  2.1310
15333TIP3   OH267413   1.364   2.094   4.580 -0.3808  0.2032 -0.3385
15333TIP3    H167414   1.392   2.171   4.531 -0.7356  0.1371 -0.6458
15333TIP3    H267415   1.290   2.059   4.531  1.4794 -1.9545 -1.8137
15334TIP3   OH267416   0.740   3.346  16.821 -0.5082 -0.0237 -0.1430
15334TIP3    H167417   0.783   3.407  16.762 -0.3896 -1.0052 -1.1097
15334TIP3    H267418   0.736   3.391  16.905 -1.7252  1.8905 -1.1600
15335TIP3   OH267419   1.926   0.679   1.129 -0.8831 -0.5304  0.6559
15335TIP3    H167420   1.864   0.734   1.177 -1.3498  0.0899 -0.6362
15335TIP3    H267421   1.885   0.664   1.044 -0.3754 -2.1846  0.6589
15336TIP3   OH267422   3.425   1.873  16.835  0.4482  0.0261  0.0460
15336TIP3    H167423   3.463   1.831  16.912  0.1614  1.6434  1.1275
15336TIP3    H267424   3.445   1.966  16.847  0.7594  0.2751 -2.0655
15337TIP3   OH267425   6.573   0.277   1.078 -0.0497 -0.1522  0.0609
15337TIP3    H167426   6.488   0.234   1.092 -1.1681  1.5985 -1.0680
15337TIP3    H267427   6.554   0.370   1.084  2.1440  0.2739  1.4730
15338TIP3   OH267428   6.555   3.507   5.612 -0.1601  0.0308 -0.1481
15338TIP3    H167429   6.622   3.529   5.677  1.5217 -0.9738 -1.4364
15338TIP3    H267430   6.546   3.412   5.619 -1.4927  0.1560  0.0082
15339TIP3   OH267431   4.104   4.668   0.631 -0.3921  0.2868  0.4729
15339TIP3    H167432   4.189   4.667   0.675  0.5876  1.7393 -1.2522
15339TIP3    H267433   4.084   4.576   0.616  0.6764 -0.0969  1.2373
15340TIP3   OH267434   0.256   1.419   5.630 -0.2457 -0.1738 -0.2537
15340TIP3    H167435   0.283   1.485   5.566  1.0877 -0.8341 -0.4116
15340TIP3    H267436   0.338   1.392   5.673 -0.6487 -2.1370 -0.6276
15341TIP3   OH267437   6.038   4.819   0.495  0.7353 -0.5461  0.3048
15341TIP3    H167438   6.068   4.733   0.524  2.2799 -0.8353 -1.9400
15341TIP3    H267439   6.040   4.815   0.400 -1.9167  1.0758  0.0849
15342TIP3   OH267440   6.348   2.255  13.367  0.2696 -0.0737  0.6593
15342TIP3    H167441   6.316   2.338  13.402  0.2659  0.9256 -1.5261
15342TIP3    H267442   6.443   2.258  13.380  0.7300  1.8039 -2.1287
15343TIP3   OH267443   1.880   1.164   2.399 -0.4760  0.4493 -0.4350
15343TIP3    H167444   1.947   1.095   2.403 -0.9451  0.0342  0.6263
15343TIP3    H267445   1.832   1.147   2.318  1.3739  1.4211 -1.8367
15344TIP3   OH267446   0.024   3.383  11.395 -0.3288 -0.4091 -0.0744
15344TIP3    H167447   0.009   3.300  11.440 -1.0720  0.7148  1.8987
15344TIP3    H267448  -0.062   3.409  11.364 -0.3988  0.3455  0.7077
15345TIP3   OH267449   4.070   5.973  16.673 -0.6347  0.6612  0.0666
15345TIP3    H167450   4.046   5.917  16.599  1.4145 -0.4098  0.1365
15345TIP3    H267451   4.009   5.948  16.743 -0.3897 -0.7923 -0.2196
15346TIP3   OH267452   4.470   3.097  12.963 -0.3786 -0.4364 -0.2760
15346TIP3    H167453   4.505   3.148  13.035  0.7802 -0.7842 -0.5708
15346TIP3    H267454   4.381   3.131  12.950  0.1250  1.0182 -0.0295
15347TIP3   OH267455   4.259   5.347  13.856 -0.4456  0.4922  0.5447
15347TIP3    H167456   4.342   5.302  13.842 -0.5065 -0.3182  2.4540
15347TIP3    H267457   4.200   5.310  13.791 -0.0312 -0.9752  0.9655
15348TIP3   OH267458   5.518   3.239   5.064  0.2983 -0.7882 -0.0487
15348TIP3    H167459   5.474   3.173   5.009 -0.1784  1.0855 -2.0575
15348TIP3    H267460   5.609   3.238   5.034  0.2439 -0.4138 -0.2355
15349TIP3   OH267461   6.257   5.072  10.974 -0.2665  0.0440  0.2170
15349TIP3    H167462   6.245   5.015  11.050  0.5562  2.0725  1.9847
15349TIP3    H267463   6.344   5.109  10.986 -1.2662  2.7026 -0.0130
15350TIP3   OH267464   2.427   2.739   0.530  0.0474  0.0258 -0.2217
15350TIP3    H167465   2.414   2.756   0.623  0.2289 -0.4055 -0.1142
15350TIP3    H267466   2.522   2.732   0.521  0.1163  1.3982 -0.6793
15351TIP3   OH267467   2.085   2.848   4.863 -0.0990 -0.7582  0.2466
15351TIP3    H167468   2.120   2.803   4.940  1.5170 -0.5193 -0.3241
15351TIP3    H267469   2.154   2.843   4.798 -1.5440 -1.1837 -1.3181
15352TIP3   OH267470   0.384   6.098   1.031  0.2717 -0.0209 -0.7230
15352TIP3    H167471   0.295   6.065   1.042  0.2498  0.4780  0.7075
15352TIP3    H267472   0.373   6.181   0.984 -0.2062  0.9364  1.0059
15353TIP3   OH267473   0.769   4.773   2.932  0.2184  1.1800 -0.1892
15353TIP3    H167474   0.774   4.831   2.856 -0.6815  0.8725 -0.5012
15353TIP3    H267475   0.688   4.799   2.977  0.6360  1.2216  0.5488
15354TIP3   OH267476   2.866   0.527  11.989 -0.0537 -0.2079 -0.0606
15354TIP3    H167477   2.947   0.516  11.938  0.1889  0.5162  0.1544
15354TIP3    H267478   2.878   0.611  12.034 -1.8096  0.9369 -1.6249
15355TIP3   OH267479   1.510   1.070   0.073 -0.5513 -0.3036  0.2605
15355TIP3    H167480   1.468   1.018   0.005 -1.0827  0.7731 -0.2561
15355TIP3    H267481   1.532   1.153   0.030  2.3436 -0.8773  0.4224
15356TIP3   OH267482   4.312   6.670   2.252 -0.2950 -0.6622 -0.0652
15356TIP3    H167483   4.271   6.615   2.185  1.0731 -1.5752 -0.1947
15356TIP3    H267484   4.406   6.653   2.242  0.0503  0.6027  0.8713
15357TIP3   OH267485   1.770   5.729  15.581  0.0593  0.8801 -0.3765
15357TIP3    H167486   1.827   5.775  15.644 -0.5420 -2.1806  2.7121
15357TIP3    H267487   1.685   5.726  15.625 -0.8537  0.0046 -2.1409
15358TIP3   OH267488   2.208   3.712   0.564 -0.2445 -0.7487 -0.4751
15358TIP3    H167489   2.153   3.788   0.580 -0.1139 -0.6793 -0.3509
15358TIP3    H267490   2.227   3.677   0.651 -0.3488 -0.9551 -0.5343
15359TIP3   OH267491   2.655   6.170   5.781  0.1467  0.1863 -0.4399
15359TIP3    H167492   2.681   6.261   5.765  3.3741 -0.8983 -2.2441
15359TIP3    H267493   2.580   6.177   5.840  0.9934  3.9666  0.4794
15360TIP3   OH267494   6.711   1.381   4.727 -0.1763  0.4653  0.4664
15360TIP3    H167495   6.633   1.347   4.683  0.2766  0.5186 -0.4021
15360TIP3    H267496   6.690   1.377   4.820 -2.2908  2.9751  0.2062
15361TIP3   OH267497   5.689   0.857   0.014  0.0564 -0.0093 -0.0596
15361TIP3    H167498   5.727   0.854  -0.074  0.0518  0.8506 -0.0919
15361TIP3    H267499   5.601   0.821   0.002 -0.2941  0.9871 -0.5979
15362TIP3   OH267500   6.612   4.160   5.783 -0.1449 -0.1682  0.1223
15362TIP3    H167501   6.643   4.072   5.804  0.9069  0.3569  0.8291
15362TIP3    H267502   6.582   4.196   5.866 -0.5203  0.1665 -0.1529
15363TIP3   OH267503   3.036   6.233  17.317  0.1612  0.0004  0.2581
15363TIP3    H167504   3.038   6.207  17.225  0.8545 -0.8408  0.4907
15363TIP3    H267505   3.091   6.310  17.322 -0.0831  0.1985 -0.0703
15364TIP3   OH267506   0.262   4.971   3.223 -0.0569 -0.4726  0.5536
15364TIP3    H167507   0.311   4.907   3.274  1.1020  0.9130  1.2421
15364TIP3    H267508   0.327   5.036   3.196 -0.6166 -1.1329 -2.7580
15365TIP3   OH267509   1.120   3.372  13.803 -0.0663 -0.1996  0.5024
15365TIP3    H167510   1.113   3.461  13.768  2.2941 -0.3921 -0.6425
15365TIP3    H267511   1.065   3.373  13.882  0.5455  2.5169  1.0021
15366TIP3   OH267512   5.435   3.976  15.210 -0.1399 -0.0817  0.2100
15366TIP3    H167513   5.420   3.987  15.116  0.9130 -1.6938 -0.1905
15366TIP3    H267514   5.528   3.994  15.221 -0.3899  0.7583  1.0850
15367TIP3   OH267515   3.323   2.155  13.961 -0.1168 -0.1056 -0.3870
15367TIP3    H167516   3.271   2.200  13.895  0.8856  1.1349 -0.3836
15367TIP3    H267517   3.261   2.099  14.007 -0.9401 -0.5666 -1.9884
15368TIP3   OH267518   2.615   2.016  17.025 -0.6820 -0.6452  0.0822
15368TIP3    H167519   2.576   2.062  17.100 -0.7325 -2.8729  1.5231
15368TIP3    H267520   2.650   2.085  16.970 -1.8009  1.1570  1.5131
15369TIP3   OH267521   2.969   6.300  12.963  0.0978 -0.1128 -0.2250
15369TIP3    H167522   3.039   6.319  13.025  1.0051  1.4351 -1.6286
15369TIP3    H267523   3.006   6.234  12.904 -0.4219 -0.8895  0.3061
15370TIP3   OH267524   5.717   0.828   3.345  0.3661 -0.8163 -0.0464
15370TIP3    H167525   5.708   0.804   3.253 -1.0623  1.1612 -0.4940
15370TIP3    H267526   5.810   0.848   3.356  0.5640 -1.1585 -1.0305
15371TIP3   OH267527   3.234   3.394  14.959  0.7576  0.2806  0.2484
15371TIP3    H167528   3.282   3.401  15.042 -1.2816 -1.3052  1.6696
15371TIP3    H267529   3.158   3.340  14.980 -0.8623  1.4201 -2.2399
15372TIP3   OH267530   1.265   3.267   0.322  0.0874 -0.2281 -0.0419
15372TIP3    H167531   1.316   3.274   0.242 -0.9223 -1.7788 -0.8630
15372TIP3    H267532   1.174   3.281   0.294 -0.1502  0.7561  1.1078
15373TIP3   OH267533   6.261   3.325  12.172  0.1857 -0.1532 -0.3670
15373TIP3    H167534   6.196   3.372  12.119  0.0511  0.4208  0.2864
15373TIP3    H267535   6.322   3.393  12.201 -0.3400 -0.2622  1.0719
15374TIP3   OH267536   4.112   4.083  16.264  0.2507  0.4845  0.2854
15374TIP3    H167537   4.036   4.058  16.316  1.1515  0.3662  1.6125
15374TIP3    H267538   4.144   4.001  16.227  0.0303  0.4607  0.1484
15375TIP3   OH267539   0.314   3.183  16.019  0.1423 -0.2423  0.0159
15375TIP3    H167540   0.373   3.145  15.954 -0.8392  1.4389 -1.9814
15375TIP3    H267541   0.233   3.133  16.009 -1.1943  2.1964 -2.7080
15376TIP3   OH267542   4.109   3.064   5.225 -0.9102 -0.2552  0.0686
15376TIP3    H167543   4.151   2.996   5.279 -1.0593  0.1497  0.7015
15376TIP3    H267544   4.180   3.126   5.206 -1.2635  0.5853  1.3875
15377TIP3   OH267545   1.244   4.189   6.637 -0.2629  0.2432 -0.0010
15377TIP3    H167546   1.311   4.138   6.589  0.4437  0.2415  0.9628
15377TIP3    H267547   1.279   4.278   6.638  0.5248 -0.0556  1.8826
15378TIP3   OH267548   0.264   4.604   3.729  0.3367 -0.2810  0.4356
15378TIP3    H167549   0.283   4.598   3.823  1.3910  0.0750  0.2591
15378TIP3    H267550   0.235   4.694   3.716 -0.7708 -0.5955  0.5621
15379TIP3   OH267551   3.349   5.316  11.954  0.0219  0.1050  0.0160
15379TIP3    H167552   3.395   5.389  11.911 -0.2103  1.4699  1.9385
15379TIP3    H267553   3.401   5.297  12.031 -0.8629 -0.5930  0.4607
15380TIP3   OH267554   4.651   0.568   4.415 -0.3935  0.0251  0.1550
15380TIP3    H167555   4.615   0.495   4.366  1.5648 -0.9762  0.1139
15380TIP3    H267556   4.587   0.639   4.403 -3.0583 -2.0099  1.3280
15381TIP3   OH267557   5.281   3.109   0.672 -0.8829  0.3805 -0.3460
15381TIP3    H167558   5.335   3.179   0.708 -2.4461  2.2686 -1.4541
15381TIP3    H267559   5.343   3.046   0.636  0.5730  1.5743  0.0077
15382TIP3   OH267560   1.736   3.445   0.615 -0.2131  0.2231  0.7132
15382TIP3    H167561   1.675   3.400   0.673 -1.1652  0.6092  0.0538
15382TIP3    H267562   1.811   3.465   0.670 -0.5896 -0.4508  1.5025
15383TIP3   OH267563   0.374   2.149  16.962 -0.1587 -0.3856 -0.7002
15383TIP3    H167564   0.326   2.166  17.043 -1.7100 -2.7362 -1.0281
15383TIP3    H267565   0.460   2.188  16.976 -0.2904 -0.9536  2.2063
15384TIP3   OH267566   6.393   0.356  16.111 -0.5574  0.1008  0.8291
15384TIP3    H167567   6.331   0.305  16.059 -1.2163  1.0630  0.6431
15384TIP3    H267568   6.453   0.393  16.047  0.5174 -1.1820  1.0447
15385TIP3   OH267569   4.278   0.566   3.141  0.3137 -0.0400  0.0115
15385TIP3    H167570   4.268   0.481   3.099  3.3880 -0.8761  0.7319
15385TIP3    H267571   4.247   0.553   3.230 -0.6823  0.0679 -0.3101
15386TIP3   OH267572   0.803   5.216   1.642  0.2653 -0.3697  0.0204
15386TIP3    H167573   0.872   5.162   1.603  0.3203 -0.2464 -0.0559
15386TIP3    H267574   0.728   5.158   1.649  0.3206 -0.4537 -0.0714
15387TIP3   OH267575   3.648   3.362   4.724 -0.0710 -0.0786 -0.7994
15387TIP3    H167576   3.609   3.301   4.787  0.2851 -0.2095 -0.7008
15387TIP3    H267577   3.682   3.433   4.779 -0.4367  0.1845 -0.9101
15388TIP3   OH267578   1.678   2.455  14.245 -0.1083 -0.1476 -0.2831
15388TIP3    H167579   1.593   2.497  14.259  0.0380  0.0879 -0.1012
15388TIP3    H267580   1.672   2.372  14.292  0.3331  0.5716  1.1062
15389TIP3   OH267581   3.746   2.704   1.642  0.1019  0.0657 -0.0964
15389TIP3    H167582   3.739   2.777   1.704  1.3983  0.8472 -0.8254
15389TIP3    H267583   3.836   2.709   1.609  0.5111 -2.3482  0.4065
15390TIP3   OH267584   3.293   5.960  15.119  0.0094  0.0435 -0.0773
15390TIP3    H167585   3.261   6.022  15.054 -0.9404 -1.3774 -1.0193
15390TIP3    H267586   3.330   5.888  15.068 -2.1065 -1.8330  0.8291
15391TIP3   OH267587   1.115   3.714  11.662 -0.0737 -0.1030 -0.1764
15391TIP3    H167588   1.091   3.655  11.591  0.2381 -0.3614 -0.0692
15391TIP3    H267589   1.153   3.790  11.618 -1.1023  0.3196 -0.3461
15392TIP3   OH267590   3.224   1.341  13.985  0.4245 -0.5187 -0.6088
15392TIP3    H167591   3.265   1.395  13.918 -1.4982  0.6121 -0.9373
15392TIP3    H267592   3.263   1.371  14.067  0.0596  0.7768 -0.8792
15393TIP3   OH267593   5.405   2.291   5.898  0.2560 -0.0028 -0.9214
15393TIP3    H167594   5.314   2.284   5.927  0.9585  1.4874  2.0446
15393TIP3    H267595   5.446   2.211   5.930  0.2935 -0.0417 -1.0655
15394TIP3   OH267596   3.447   1.465  15.245  0.4455 -0.6195  0.0264
15394TIP3    H167597   3.416   1.495  15.159 -1.3879 -1.1196  0.4686
15394TIP3    H267598   3.439   1.542  15.301  1.8702 -0.2266 -0.2760
15395TIP3   OH267599   2.717   5.136  17.386  0.1842 -0.2649 -0.3492
15395TIP3    H167600   2.672   5.218  17.404  1.1785  0.8591 -2.5414
15395TIP3    H267601   2.784   5.129  17.453  0.5719  1.1203 -0.5724
15396TIP3   OH267602   4.242   2.729   3.317  0.4536 -0.1401  0.3663
15396TIP3    H167603   4.192   2.746   3.237  3.3008 -1.2759 -1.8424
15396TIP3    H267604   4.178   2.694   3.379 -1.8522  0.6667 -1.4514
15397TIP3   OH267605   3.398   3.537  17.119  0.3346  0.7600 -0.6972
15397TIP3    H167606   3.442   3.622  17.110 -0.3262  1.0548 -1.2623
15397TIP3    H267607   3.458   3.484  17.172 -0.1241  2.2106  1.3978
15398TIP3   OH267608   1.939   1.285   1.751  0.0282  1.1995  0.0419
15398TIP3    H167609   1.878   1.211   1.760  1.6288  0.1039  3.1204
15398TIP3    H267610   1.922   1.318   1.663 -2.1163 -1.6168 -0.7769
15399TIP3   OH267611   3.519   2.364  14.563 -0.6820 -0.1141 -0.1741
15399TIP3    H167612   3.428   2.332  14.563 -0.3474 -1.1130  0.6625
15399TIP3    H267613   3.572   2.285  14.555  0.1752  0.1670  2.0606
15400TIP3   OH267614   6.635   2.891   0.312  0.2859 -0.2014  0.5110
15400TIP3    H167615   6.673   2.951   0.248 -0.7179  1.3764  1.3240
15400TIP3    H267616   6.601   2.819   0.259  0.0554  0.7398 -0.6818
15401TIP3   OH267617   3.973   4.925  15.827  0.1972  0.1546  0.1402
15401TIP3    H167618   3.982   4.837  15.790 -0.6196  0.0934  0.0811
15401TIP3    H267619   3.950   4.980  15.752 -0.0431  0.2847  0.3092
15402TIP3   OH267620   0.859   5.617  14.644 -0.3494 -0.0585 -0.1849
15402TIP3    H167621   0.825   5.699  14.678 -1.8858 -0.8823  0.3436
15402TIP3    H267622   0.915   5.583  14.714  0.2213  0.4939 -0.3724
15403TIP3   OH267623   3.151   1.418  15.043  0.6602 -0.1900 -0.2655
15403TIP3    H167624   3.156   1.350  14.976  0.9876  0.8558 -1.3295
15403TIP3    H267625   3.103   1.490  15.002 -1.8946 -0.6681  1.6680
15404TIP3   OH267626   5.891   3.793  12.648  0.1610 -0.0139  0.2383
15404TIP3    H167627   5.982   3.800  12.620 -0.0581  1.1765 -0.2154
15404TIP3    H267628   5.876   3.871  12.701 -0.8188  0.2406 -0.3839
15405TIP3   OH267629   5.274   0.454   4.820  0.2359  0.8675  0.1399
15405TIP3    H167630   5.354   0.466   4.770 -1.1173 -1.1539 -2.7830
15405TIP3    H267631   5.207   0.501   4.769 -1.1453 -1.0062  0.1510
15406TIP3   OH267632   5.285   1.005   0.172 -0.0836  0.3818  0.2678
15406TIP3    H167633   5.322   1.015   0.085 -1.5777  0.8123 -0.3495
15406TIP3    H267634   5.245   0.918   0.170  1.6482 -0.4870  1.2485
15407TIP3   OH267635   3.401   1.439   3.000 -0.2305  0.0731 -0.5044
15407TIP3    H167636   3.327   1.500   3.004  0.4211  0.9926 -1.6783
15407TIP3    H267637   3.452   1.469   2.925  0.6198 -1.3710 -0.5338
15408TIP3   OH267638   0.726   1.050  17.425 -0.0205  0.4213  0.0676
15408TIP3    H167639   0.722   1.097  17.342  1.3272  0.3986 -0.0189
15408TIP3    H267640   0.739   0.959  17.400 -1.4406  0.1324  0.2733
15409TIP3   OH267641   6.732   1.496  14.832 -0.6219  0.2094  0.5727
15409TIP3    H167642   6.684   1.577  14.815  0.1176  0.4177 -0.6777
15409TIP3    H267643   6.772   1.474  14.748 -1.0862 -1.6435  0.8048
15410TIP3   OH267644   5.552   2.087  13.688 -0.2728  0.2845 -0.1490
15410TIP3    H167645   5.461   2.073  13.661 -0.4136  0.5123  0.2027
15410TIP3    H267646   5.597   2.008  13.659 -0.2874  0.7581 -1.5756
15411TIP3   OH267647   3.608   2.877   4.418  0.5167 -0.2819  0.4169
15411TIP3    H167648   3.584   2.830   4.497 -1.5326 -2.6035 -1.4233
15411TIP3    H267649   3.703   2.864   4.410  0.6788 -0.3763  2.2163
15412TIP3   OH267650   3.242   5.826  17.270 -0.1308  0.4654 -0.0083
15412TIP3    H167651   3.177   5.896  17.276  0.5643  1.2709 -1.3513
15412TIP3    H267652   3.232   5.791  17.181  1.5324  0.9185 -0.4139
15413TIP3   OH267653   5.036   1.180  15.903  0.4264  0.5473 -0.5482
15413TIP3    H167654   5.072   1.226  15.827  0.3106  0.4376 -0.6681
15413TIP3    H267655   4.967   1.125  15.868  0.3726  0.4950 -0.3626
15414TIP3   OH267656   3.041   5.834  15.744 -0.0032 -0.4458 -0.0782
15414TIP3    H167657   3.084   5.753  15.773  2.1861  0.7711  0.3012
15414TIP3    H267658   2.998   5.868  15.822  1.1994 -0.0064  0.4162
15415TIP3   OH267659   0.621   3.646   4.145  0.3241 -0.0582 -0.5417
15415TIP3    H167660   0.623   3.616   4.236 -1.1133  1.3745  0.0158
15415TIP3    H267661   0.627   3.566   4.093  1.6199 -0.8744  0.7852
15416TIP3   OH267662   2.886   5.316  15.571  0.1534 -0.0762  0.0743
15416TIP3    H167663   2.924   5.404  15.578  1.5922 -0.5107 -1.5430
15416TIP3    H267664   2.938   5.263  15.632  0.7141 -0.2192 -0.5160
15417TIP3   OH267665   1.406   4.663  12.603 -0.5521  0.3143 -0.2562
15417TIP3    H167666   1.483   4.720  12.611 -1.7159  2.1436 -1.4921
15417TIP3    H267667   1.355   4.701  12.532 -1.0433 -2.7588 -1.7409
15418TIP3   OH267668   2.049   1.864   3.836  0.2792  0.2365 -0.4996
15418TIP3    H167669   2.112   1.908   3.893  0.2221 -0.2407 -0.0521
15418TIP3    H267670   2.087   1.777   3.822 -0.6916 -0.3835  0.5220
15419TIP3   OH267671   3.716   0.155   1.829 -0.3340  0.3042 -0.0538
15419TIP3    H167672   3.759   0.086   1.879  0.1163  0.2146 -0.5489
15419TIP3    H267673   3.636   0.114   1.796  0.3013 -0.2314 -0.9738
15420TIP3   OH267674   4.366   3.311   6.061 -0.1767  0.2716  0.2657
15420TIP3    H167675   4.271   3.304   6.054 -0.2215  0.0800  0.9638
15420TIP3    H267676   4.397   3.317   5.971 -0.7890 -0.5258 -0.0083
15421TIP3   OH267677   6.242   5.920  13.814 -0.3233 -0.0366 -0.5640
15421TIP3    H167678   6.234   5.948  13.905 -0.5255  0.6397 -0.7865
15421TIP3    H267679   6.152   5.912  13.783 -0.2775 -1.1952 -0.4315
15422TIP3   OH267680   1.837   4.935  11.582  0.7129 -0.4629  0.9193
15422TIP3    H167681   1.912   4.966  11.632  1.4424 -1.2975  0.3652
15422TIP3    H267682   1.872   4.867  11.525  0.3311  1.5967 -2.0406
15423TIP3   OH267683   2.464   6.069  16.171  0.4572  0.1550  0.1755
15423TIP3    H167684   2.461   6.163  16.154 -0.3862  0.3166  1.1097
15423TIP3    H267685   2.555   6.052  16.196  1.5500  0.0584 -3.3302
15424TIP3   OH267686   6.341   1.196  12.117  0.6504 -0.7794 -0.6291
15424TIP3    H167687   6.262   1.142  12.117  0.6345 -0.8139  1.2635
15424TIP3    H267688   6.396   1.159  12.048 -0.0212 -2.2130 -0.4169
15425TIP3   OH267689   1.588   2.892   4.745  0.1187  0.4257 -0.3900
15425TIP3    H167690   1.520   2.938   4.697  0.9216  0.5703 -1.4396
15425TIP3    H267691   1.594   2.806   4.703  2.5605  1.4276 -2.3359
15426TIP3   OH267692   2.327   3.974   5.117 -0.2023 -0.2479  0.7056
15426TIP3    H167693   2.302   4.055   5.071  1.1840 -0.0584  0.2453
15426TIP3    H267694   2.273   3.906   5.077  0.8946 -0.0748 -1.2090
15427TIP3   OH267695   4.974   4.349  13.061 -0.1147  0.3049 -0.0090
15427TIP3    H167696   5.007   4.260  13.056 -1.3218 -0.1047 -3.2016
15427TIP3    H267697   5.035   4.400  13.007 -2.3586  0.2244 -2.8755
15428TIP3   OH267698   1.880   0.193   1.573  0.3703  0.2856  0.3991
15428TIP3    H167699   1.959   0.185   1.626  1.5014 -2.1738 -1.4364
15428TIP3    H267700   1.908   0.172   1.484 -2.0346  1.1080 -0.6519
15429TIP3   OH267701   0.820   6.538   5.656 -0.8231  0.6856  0.2332
15429TIP3    H167702   0.908   6.505   5.635 -0.1974  2.0854  0.5679
15429TIP3    H267703   0.834   6.629   5.682 -2.7323  1.9317 -2.6767
15430TIP3   OH267704   4.244   2.984  17.432  1.0036  0.4753  0.3092
15430TIP3    H167705   4.200   3.065  17.457 -0.9161 -0.4637  0.1672
15430TIP3    H267706   4.219   2.970  17.341 -0.7540 -1.4763  1.0099
15431TIP3   OH267707   4.008   0.232  16.315 -0.5338  0.0185  0.8618
15431TIP3    H167708   4.074   0.195  16.374  1.0616  2.4326  0.7048
15431TIP3    H267709   4.044   0.220  16.228 -0.4516  1.0452  0.7486
15432TIP3   OH267710   1.271   3.260   2.907  0.4670  0.1307 -0.1183
15432TIP3    H167711   1.256   3.351   2.880 -2.1649  0.3618  1.7117
15432TIP3    H267712   1.328   3.268   2.984  1.5409  0.0437 -0.8699
15433TIP3   OH267713   6.020   5.990   0.193 -0.3951 -0.2664  0.2864
15433TIP3    H167714   5.992   5.939   0.269 -0.0171 -0.6841  0.1526
15433TIP3    H267715   5.944   5.992   0.135 -0.1674 -1.3980 -0.0811
15434TIP3   OH267716   2.913   2.516   1.141 -0.0913  0.6687  0.1325
15434TIP3    H167717   2.981   2.487   1.201 -0.0109 -1.1369 -0.7439
15434TIP3    H267718   2.960   2.553   1.066  0.0468 -1.1905 -0.7794
15435TIP3   OH267719   2.508   2.048   5.518 -0.2610  0.0753  0.1333
15435TIP3    H167720   2.438   2.110   5.497  1.0617  1.2023 -1.1200
15435TIP3    H267721   2.543   2.079   5.601  1.9260  2.5740 -1.5499
15436TIP3   OH267722   6.127   0.191  12.078 -0.3550 -0.1335  0.4089
15436TIP3    H167723   6.036   0.165  12.064  0.3179 -1.5557 -1.6952
15436TIP3    H267724   6.161   0.125  12.139 -0.4566 -0.1936  0.4019
15437TIP3   OH267725   3.942   3.264  12.542  0.4532  0.0650 -0.6256
15437TIP3    H167726   3.910   3.291  12.456  0.6468  0.6299 -0.5247
15437TIP3    H267727   4.038   3.269  12.535  0.5157  3.6827  0.6677
15438TIP3   OH267728   3.698   5.954  16.339 -0.2884 -1.1820  0.1043
15438TIP3    H167729   3.719   5.981  16.250  0.5859 -0.0199  0.6322
15438TIP3    H267730   3.617   6.000  16.361  0.7533  0.4464  0.7085
15439TIP3   OH267731   0.695   6.041  15.446  0.0710  0.4518  0.2375
15439TIP3    H167732   0.772   6.080  15.405 -0.4329  1.2062 -0.0156
15439TIP3    H267733   0.707   5.947  15.434  0.5642  0.5965 -0.5142
15440TIP3   OH267734   3.059   5.531   5.705  0.6017  0.0321 -0.2576
15440TIP3    H167735   3.042   5.624   5.689  0.1440  0.0813  0.4804
15440TIP3    H267736   3.134   5.530   5.765 -0.1827 -0.0289  0.7413
15441TIP3   OH267737   1.500   5.841   3.351  0.3270  0.1561  0.2444
15441TIP3    H167738   1.419   5.855   3.303 -0.1013  0.0802  0.9407
15441TIP3    H267739   1.494   5.750   3.382  1.5884 -0.5611 -1.4046
15442TIP3   OH267740   4.585   4.426   0.864 -0.1948  0.5735 -0.4521
15442TIP3    H167741   4.597   4.495   0.930  0.6390  0.2469 -0.2432
15442TIP3    H267742   4.525   4.364   0.904  1.2452 -0.2464  0.5306
15443TIP3   OH267743   3.719   2.395   5.633  0.2100 -0.3093  0.0551
15443TIP3    H167744   3.633   2.359   5.652 -0.4423  0.5600 -1.1074
15443TIP3    H267745   3.771   2.378   5.712 -1.0770 -0.6424  0.8492
15444TIP3   OH267746   1.321   1.207   4.350  0.4871 -0.5951  0.1517
15444TIP3    H167747   1.234   1.225   4.313 -0.2515 -1.0599  1.5475
15444TIP3    H267748   1.345   1.288   4.395  0.5628 -0.6088  0.1349
15445TIP3   OH267749   1.204   6.556   4.055  0.2410  0.4750  0.0481
15445TIP3    H167750   1.225   6.552   3.962 -0.3780 -1.8817 -0.0405
15445TIP3    H267751   1.109   6.551   4.059  0.3101 -3.8431  0.8124
15446TIP3   OH267752   2.795   1.434   5.695  0.1580  0.6454  0.3342
15446TIP3    H167753   2.714   1.472   5.727 -0.5725 -0.5013 -0.0752
15446TIP3    H267754   2.770   1.346   5.666  1.7001 -0.0521  1.0013
15447TIP3   OH267755   4.967   0.869  16.154 -0.2982  0.0313 -1.1164
15447TIP3    H167756   5.063   0.870  16.161 -0.3565 -1.0131  0.3594
15447TIP3    H267757   4.938   0.941  16.210 -0.3860 -0.1221 -0.9620
15448TIP3   OH267758   0.864   0.501  11.149  0.3440 -0.0772 -0.2228
15448TIP3    H167759   0.828   0.438  11.087  1.9788 -0.3727 -0.9193
15448TIP3    H267760   0.868   0.454  11.232 -2.2882  0.4630  0.2796
15449TIP3   OH267761   1.742   6.441   0.644  0.2711 -0.3371  0.3000
15449TIP3    H167762   1.667   6.436   0.704  0.6007  2.6277  1.1251
15449TIP3    H267763   1.819   6.437   0.701  0.5833  3.5518  0.3897
15450TIP3   OH267764   0.131   4.058  13.790 -0.0374  0.5412 -0.6461
15450TIP3    H167765   0.177   3.975  13.778  0.8244  1.1473 -1.7123
15450TIP3    H267766   0.052   4.035  13.839 -0.1611 -1.0148 -1.5232
15451TIP3   OH267767   3.363   1.990  14.534 -0.0223  0.3110  0.4010
15451TIP3    H167768   3.357   2.017  14.442  1.6474 -2.5413 -0.6718
15451TIP3    H267769   3.451   2.015  14.561 -0.5651  1.2980  1.3481
15452TIP3   OH267770   0.791   5.717  15.192  0.6084 -0.4072 -0.5085
15452TIP3    H167771   0.755   5.653  15.130 -0.3126  0.6983 -1.1475
15452TIP3    H267772   0.792   5.799  15.145  0.1403  0.4145  0.8500
15453TIP3   OH267773   2.359   1.881  10.161  0.9519  0.1041 -0.0753
15453TIP3    H167774   2.438   1.836  10.191  0.4530 -0.2333  0.7543
15453TIP3    H267775   2.325   1.924  10.240 -0.6826 -1.2495  0.0037
15454TIP3   OH267776   1.901   5.108  15.097 -0.5177  0.7232 -0.1445
15454TIP3    H167777   1.981   5.151  15.068  0.4782 -0.4966  0.6705
15454TIP3    H267778   1.844   5.109  15.021 -0.0287  2.2800 -0.5234
15455TIP3   OH267779   1.709   5.747   5.573  0.4010 -0.1565  0.1308
15455TIP3    H167780   1.693   5.655   5.592 -1.5009  0.1960  0.4582
15455TIP3    H267781   1.696   5.791   5.657 -0.4796  0.5880 -0.3803
15456TIP3   OH267782   2.722   2.748  15.496  0.0243  1.0160 -0.5648
15456TIP3    H167783   2.737   2.772  15.588  1.3463 -0.7023 -0.2848
15456TIP3    H267784   2.680   2.662  15.501  0.0090  0.9579 -1.5748
15457TIP3   OH267785   1.328   0.810  13.290 -0.4875 -0.9099  0.1268
15457TIP3    H167786   1.338   0.750  13.363  0.3559 -1.0619 -0.0991
15457TIP3    H267787   1.334   0.755  13.212 -2.0946 -0.8550 -0.0785
15458TIP3   OH267788   4.166   5.092  11.931 -0.1001 -0.7946 -0.2488
15458TIP3    H167789   4.124   5.174  11.904  0.4803 -0.5375 -0.3725
15458TIP3    H267790   4.203   5.056  11.850 -3.6170 -3.1575 -1.0416
15459TIP3   OH267791   1.574   4.806  14.964 -0.2125  0.2055 -0.3930
15459TIP3    H167792   1.532   4.724  14.989 -1.4713  1.1825  0.8949
15459TIP3    H267793   1.649   4.780  14.911  0.1951 -1.8369  1.0691
15460TIP3   OH267794   4.440   5.429  17.217  0.1035 -0.0493  0.2355
15460TIP3    H167795   4.535   5.415  17.223  0.1585 -0.0701 -0.5488
15460TIP3    H267796   4.430   5.524  17.213 -0.0243  0.0246  1.9205
15461TIP3   OH267797   2.936   4.361   0.771  0.8378  0.4558 -0.0322
15461TIP3    H167798   2.935   4.447   0.813  1.3207  0.4092  0.0705
15461TIP3    H267799   2.843   4.341   0.758  0.7294  1.1188 -0.3222
15462TIP3   OH267800   2.329   0.371  14.703  0.0182 -0.5914 -0.4519
15462TIP3    H167801   2.317   0.420  14.784 -0.7182  0.8173 -1.3654
15462TIP3    H267802   2.386   0.426  14.650 -1.2669 -0.4199 -1.7247
15463TIP3   OH267803   2.953   1.368  13.961  0.1639 -0.4479 -1.0048
15463TIP3    H167804   3.043   1.341  13.975  0.3022  0.6381  0.5034
15463TIP3    H267805   2.927   1.409  14.044 -1.1113  0.8964 -2.0026
15464TIP3   OH267806   2.467   2.780  14.245  0.7735  0.5625 -0.0060
15464TIP3    H167807   2.379   2.748  14.262  0.9933  0.0706  0.2312
15464TIP3    H267808   2.458   2.834  14.167  0.5956 -1.0799 -1.1666
15465TIP3   OH267809   4.713   4.985  11.698  0.0466  0.4358  0.5385
15465TIP3    H167810   4.771   5.058  11.679 -0.8662  1.0874  0.1885
15465TIP3    H267811   4.658   5.014  11.771 -1.1229  0.5827 -0.3655
15466TIP3   OH267812   4.266   2.528  16.241 -0.0199 -0.1647 -0.1757
15466TIP3    H167813   4.203   2.576  16.295  0.1347 -1.5837  1.3311
15466TIP3    H267814   4.262   2.438  16.274  0.2052 -1.0699 -2.4474
15467TIP3   OH267815   2.725   0.063   1.480  0.4551 -0.1371  0.2100
15467TIP3    H167816   2.698  -0.015   1.431  0.5058 -0.8760  1.3038
15467TIP3    H267817   2.737   0.031   1.569  0.6735  1.1010  0.6386
15468TIP3   OH267818   1.866   6.719  12.625  0.4334 -0.2630  0.6178
15468TIP3    H167819   1.867   6.814  12.628  1.1581 -0.2821  1.2657
15468TIP3    H267820   1.800   6.698  12.559  1.9170  0.7310 -1.2931
15469TIP3   OH267821   1.823   5.682  14.006 -0.2903  0.2654  0.5015
15469TIP3    H167822   1.887   5.751  13.990  1.5581 -1.3405  0.5954
15469TIP3    H267823   1.787   5.702  14.092  2.1788 -0.2488  1.7407
15470TIP3   OH267824   4.919   1.421   2.025  0.2536  0.1139 -0.0018
15470TIP3    H167825   5.004   1.380   2.040  0.7626  1.9490  2.7653
15470TIP3    H267826   4.860   1.374   2.083 -0.5714 -0.7435 -1.4615
15471TIP3   OH267827   4.247   0.901  13.320  0.9489 -0.4737  0.4044
15471TIP3    H167828   4.327   0.851  13.304  0.8847 -0.7956  1.0362
15471TIP3    H267829   4.271   0.992  13.307  0.7991 -0.7194 -1.8815
15472TIP3   OH267830   2.456   2.800   5.780 -0.3176 -0.0966 -0.0144
15472TIP3    H167831   2.550   2.794   5.796 -0.2931  0.2514 -0.0264
15472TIP3    H267832   2.446   2.782   5.687 -0.2610 -0.0833 -0.0227
15473TIP3   OH267833   5.210   2.637  11.640 -0.0842 -0.8015 -0.4468
15473TIP3    H167834   5.230   2.567  11.578 -1.2391 -0.8262 -0.8073
15473TIP3    H267835   5.161   2.702  11.590  2.0613  0.9496 -0.4700
15474TIP3   OH267836   0.608   3.664  10.962 -0.4087 -0.1833  0.8316
15474TIP3    H167837   0.605   3.603  10.888 -2.2711 -0.3829  1.0212
15474TIP3    H267838   0.697   3.698  10.961 -0.0666 -1.0012 -0.8424
15475TIP3   OH267839   5.111   5.387   0.456 -0.2703 -0.4927 -0.0523
15475TIP3    H167840   5.115   5.328   0.381 -2.1238 -0.1516 -0.4480
15475TIP3    H267841   5.042   5.352   0.511  0.6228 -0.3579  1.2065
15476TIP3   OH267842   1.771   4.871   0.375 -0.7248  0.2092  0.6782
15476TIP3    H167843   1.683   4.851   0.405 -0.2172 -0.2921  1.8983
15476TIP3    H267844   1.768   4.859   0.280 -1.9332  0.1155  0.7168
15477TIP3   OH267845   3.717   6.130   1.088 -0.0692  0.1882  0.1425
15477TIP3    H167846   3.753   6.054   1.042  2.3515  0.3432  1.6087
15477TIP3    H267847   3.785   6.197   1.080 -0.6363  1.0102  1.8479
15478TIP3   OH267848   2.775   2.668   3.322 -0.1709 -0.3536  0.1584
15478TIP3    H167849   2.682   2.655   3.303 -0.2297 -0.2095  0.3540
15478TIP3    H267850   2.791   2.761   3.304  0.0413 -0.4749 -0.3231
15479TIP3   OH267851   5.474   4.576   3.161  0.1629  0.3175 -0.4869
15479TIP3    H167852   5.428   4.532   3.090 -0.8083 -1.2924  1.0386
15479TIP3    H267853   5.492   4.664   3.128  0.0352 -0.4695 -2.8016
15480TIP3   OH267854   4.455   4.631  11.069 -0.4856 -0.1649  0.3086
15480TIP3    H167855   4.517   4.607  11.139 -1.4349 -1.9824  0.5795
15480TIP3    H267856   4.424   4.548  11.035 -1.7674  0.7153 -0.7586
15481TIP3   OH267857   5.259   0.004  14.395  0.0966 -0.1819 -0.2078
15481TIP3    H167858   5.209   0.050  14.328 -0.2328  0.9395  0.7738
15481TIP3    H267859   5.205  -0.071  14.419  0.1480 -0.5011 -1.0625
15482TIP3   OH267860   6.480   2.438   3.973  0.7259 -0.1447  0.3971
15482TIP3    H167861   6.388   2.451   3.953 -0.0469 -2.5776  1.8923
15482TIP3    H267862   6.504   2.512   4.029  0.4475  1.7966 -1.8814
15483TIP3   OH267863   4.486   6.289  11.897 -0.2219 -0.5849 -0.2287
15483TIP3    H167864   4.427   6.279  11.822  0.6968  0.2672 -1.0878
15483TIP3    H267865   4.572   6.305  11.858  0.3497 -0.5355  1.0081
15484TIP3   OH267866   3.495   0.472   1.064 -0.3043 -0.1964  0.1019
15484TIP3    H167867   3.568   0.444   1.119 -0.6632 -1.2063  0.0945
15484TIP3    H267868   3.420   0.478   1.124  0.0380  2.1981  0.3866
15485TIP3   OH267869   4.950   3.857   1.460 -0.4180 -0.3147  0.8568
15485TIP3    H167870   5.002   3.826   1.535  2.2624 -0.4543 -0.9541
15485TIP3    H267871   4.878   3.794   1.454 -0.5624 -0.4479  3.1154
15486TIP3   OH267872   0.299   0.298  14.986  0.0886 -0.1073 -0.6140
15486TIP3    H167873   0.321   0.207  15.005 -0.0259  0.1247  0.6870
15486TIP3    H267874   0.382   0.346  14.996 -0.1754  0.1670  0.3234
15487TIP3   OH267875   4.739   5.889   2.052 -0.1056  0.3933 -0.0513
15487TIP3    H167876   4.702   5.813   2.008  0.5436 -0.1170  0.2558
15487TIP3    H267877   4.664   5.936   2.087 -0.6149  0.6886 -1.4966
15488TIP3   OH267878   5.237   1.800   0.871 -0.1540  0.2165  0.0634
15488TIP3    H167879   5.331   1.813   0.857 -0.3723  0.3823 -1.4022
15488TIP3    H267880   5.232   1.730   0.936  1.0237 -1.8092 -1.8841
15489TIP3   OH267881   0.190   4.912  13.470  0.3378 -0.3712 -0.7571
15489TIP3    H167882   0.104   4.880  13.443 -0.7192  0.1669  1.6639
15489TIP3    H267883   0.175   5.003  13.496  1.7969 -0.0556 -0.9254
15490TIP3   OH267884   4.851   5.025   0.721 -0.2219 -0.2309 -0.1190
15490TIP3    H167885   4.810   4.989   0.642 -0.3070 -3.6667  1.3309
15490TIP3    H267886   4.945   5.010   0.708 -0.3597 -2.8474  1.1811
15491TIP3   OH267887   0.965   4.907   5.640 -0.0443  0.4170 -0.4403
15491TIP3    H167888   0.994   4.861   5.561  0.2849  1.4411 -0.9280
15491TIP3    H267889   1.045   4.925   5.688 -0.2137  0.1233 -0.0362
15492TIP3   OH267890   3.733   5.095   1.202 -0.1908 -0.0486  0.0578
15492TIP3    H167891   3.713   5.140   1.120 -0.2664 -0.0587  0.0706
15492TIP3    H267892   3.824   5.067   1.193 -0.4208 -0.6824 -0.3100
15493TIP3   OH267893   2.017   4.275  12.005 -0.3592 -0.5324 -0.1355
15493TIP3    H167894   1.954   4.238  12.066 -0.2943 -0.1741  0.1558
15493TIP3    H267895   2.093   4.217  12.010 -0.9889 -1.4762 -1.1464
15494TIP3   OH267896   2.813   4.222   4.680 -1.0096  0.2056 -0.0062
15494TIP3    H167897   2.801   4.148   4.621 -0.6694 -0.0383  0.2286
15494TIP3    H267898   2.742   4.282   4.659 -2.0641 -0.7685  0.6902
15495TIP3   OH267899   6.578   1.502  14.493  0.0582  0.3483 -0.4839
15495TIP3    H167900   6.486   1.516  14.517 -0.2715 -0.7719 -1.0354
15495TIP3    H267901   6.595   1.567  14.425 -1.1298 -1.0782 -2.2418
15496TIP3   OH267902   5.095   2.037   4.931 -0.2564  0.0239  0.7737
15496TIP3    H167903   5.162   2.081   4.879 -1.3941  0.5108 -0.3294
15496TIP3    H267904   5.071   2.099   4.999  0.5133 -0.2221  1.2866
15497TIP3   OH267905   3.326   1.066  15.921 -0.2661  0.0406 -0.1548
15497TIP3    H167906   3.333   1.132  15.851  2.2707 -0.1020 -0.1554
15497TIP3    H267907   3.409   1.018  15.916 -0.1908 -0.2984  2.6348
15498TIP3   OH267908   6.557   6.182  15.873 -0.2287 -0.0775  0.1704
15498TIP3    H167909   6.543   6.128  15.795  0.4123 -1.8567  1.2275
15498TIP3    H267910   6.618   6.131  15.927  0.8478  1.9683  0.9976
15499TIP3   OH267911   1.186   3.817  15.094 -0.1006  0.0834 -1.0058
15499TIP3    H167912   1.151   3.805  15.006 -1.5777  1.0366 -0.5892
15499TIP3    H267913   1.200   3.911  15.102 -1.2997  0.1951  0.2157
15500TIP3   OH267914   3.394   6.480   0.899  0.0969  0.1541  0.1317
15500TIP3    H167915   3.457   6.528   0.952  0.1869  1.4948 -1.1377
15500TIP3    H267916   3.446   6.415   0.852  0.3695  0.5155 -0.0678
15501TIP3   OH267917   2.459   4.183   6.353  0.1632  0.0958 -0.1244
15501TIP3    H167918   2.419   4.192   6.267  0.2637 -0.0077 -0.1823
15501TIP3    H267919   2.525   4.252   6.356  1.4208 -1.0343 -0.8414
15502TIP3   OH267920   0.571   2.699   5.338 -0.3885 -0.4230  0.0709
15502TIP3    H167921   0.477   2.680   5.339 -0.4331 -0.2541  1.4753
15502TIP3    H267922   0.577   2.788   5.303 -1.0005  0.5520  2.2991
15503TIP3   OH267923   1.365   1.929  15.881 -0.0206 -0.2526  0.3012
15503TIP3    H167924   1.365   1.842  15.840 -1.2126  0.5190 -1.4569
15503TIP3    H267925   1.296   1.977  15.836  1.4473  2.0286  0.3109
15504TIP3   OH267926   0.917   3.286   3.157  0.2526  0.0111  0.4365
15504TIP3    H167927   0.968   3.219   3.112  0.1634  1.0416 -1.2739
15504TIP3    H267928   0.906   3.251   3.246  3.2742 -0.5922  0.6900
15505TIP3   OH267929   6.749   3.332  13.603  0.1269  0.3236  0.0739
15505TIP3    H167930   6.830   3.280  13.607  0.1771  0.2260 -1.5763
15505TIP3    H267931   6.680   3.270  13.626  0.4926  0.4151  1.5361
15506TIP3   OH267932   5.297   2.598   0.829 -0.4402  0.4231  0.4854
15506TIP3    H167933   5.255   2.679   0.802 -0.4920 -0.0305 -0.8585
15506TIP3    H267934   5.227   2.548   0.871 -0.2571  1.3085  1.9205
15507TIP3   OH267935   0.953   1.846  11.609 -0.2124  0.0479 -0.3787
15507TIP3    H167936   0.967   1.940  11.620 -1.0840  0.0430  1.1471
15507TIP3    H267937   0.975   1.808  11.694  1.4314 -1.3375 -1.3436
15508TIP3   OH267938   0.557   5.828  10.965 -0.0284  0.1345  0.1599
15508TIP3    H167939   0.526   5.749  11.009 -2.4266  1.3934  0.8669
15508TIP3    H267940   0.481   5.886  10.962  1.6751  2.4958 -0.1950
15509TIP3   OH267941   5.209   4.076  11.449  0.3611 -0.5047 -0.0902
15509TIP3    H167942   5.209   4.074  11.545  2.8454 -1.5577 -0.0546
15509TIP3    H267943   5.182   3.988  11.424  2.0738 -0.9935 -0.2940
15510TIP3   OH267944   1.908   4.544   5.840  0.5189 -0.2149 -0.5312
15510TIP3    H167945   1.939   4.621   5.793  1.6650 -0.3884 -0.0974
15510TIP3    H267946   1.918   4.566   5.932  1.1669 -0.9887 -0.4038
15511TIP3   OH267947   0.600   3.756  12.123  0.2547  0.2652 -0.4994
15511TIP3    H167948   0.593   3.691  12.193  1.1494  0.3345 -0.3328
15511TIP3    H267949   0.579   3.839  12.165 -0.5788  0.1332 -0.6392
15512TIP3   OH267950   2.147   1.843  13.280 -0.1126  0.6137 -0.7830
15512TIP3    H167951   2.167   1.872  13.369  0.4069 -0.0558 -0.6736
15512TIP3    H267952   2.202   1.766  13.267 -1.7268 -0.5628 -0.9213
15513TIP3   OH267953   2.123   6.575  12.046 -0.2225  0.1011  0.5082
15513TIP3    H167954   2.070   6.513  11.996  0.4896  0.4705 -0.7327
15513TIP3    H267955   2.060   6.616  12.106 -1.6388  1.3320 -1.6885
15514TIP3   OH267956   4.189   6.562   4.495 -0.0280 -0.1551 -0.5174
15514TIP3    H167957   4.230   6.478   4.475 -0.1629  0.4154 -3.5549
15514TIP3    H267958   4.099   6.553   4.465 -0.1284  0.9727 -0.5984
15515TIP3   OH267959   0.536   3.494   5.813  0.3922  0.3969  0.6147
15515TIP3    H167960   0.622   3.509   5.851  1.9399  0.5163 -2.6341
15515TIP3    H267961   0.508   3.580   5.783 -0.5758  0.2356  1.0046
15516TIP3   OH267962   5.089   0.322   3.977 -0.8654  0.1226 -0.9135
15516TIP3    H167963   5.133   0.384   3.919 -0.0664 -1.8881 -2.5790
15516TIP3    H267964   5.006   0.304   3.935 -2.3576  2.0575  0.9897
15517TIP3   OH267965   2.362   2.502   3.611  0.5366  0.5690 -0.3279
15517TIP3    H167966   2.378   2.588   3.571  2.1324  0.1160 -0.7495
15517TIP3    H267967   2.431   2.494   3.677  0.1389 -0.2273  0.0015
15518TIP3   OH267968   1.059   0.448  14.947  0.3941  0.0330  0.2946
15518TIP3    H167969   1.130   0.478  14.890  0.5963  0.5530  0.8118
15518TIP3    H267970   1.100   0.437  15.033  0.1518 -1.0089  0.2795
15519TIP3   OH267971   4.262   6.284   4.476 -0.0661  0.6146  0.7083
15519TIP3    H167972   4.280   6.254   4.565 -1.9618  1.3078  1.3691
15519TIP3    H267973   4.204   6.217   4.439  0.0318  0.7563  0.2922
15520TIP3   OH267974   1.916   1.015  15.787  0.2141  0.8484  0.7645
15520TIP3    H167975   1.932   1.069  15.709 -0.8329  0.5511  0.3263
15520TIP3    H267976   1.950   1.067  15.859  0.3833  1.5373  0.2042
15521TIP3   OH267977   5.706   0.946   4.304  0.8310  0.4231 -0.5634
15521TIP3    H167978   5.723   1.037   4.280  0.3757  0.5558 -0.3889
15521TIP3    H267979   5.622   0.925   4.264  1.3896 -0.2354 -1.4310
15522TIP3   OH267980   1.192   0.725  11.589 -0.2638 -0.1733  0.2645
15522TIP3    H167981   1.187   0.755  11.680 -2.8061  0.8693 -0.1425
15522TIP3    H267982   1.113   0.673  11.576  0.0169 -0.2421 -1.3777
15523TIP3   OH267983   0.674   4.144  17.007 -0.1754 -0.0538 -0.0845
15523TIP3    H167984   0.749   4.201  16.986  1.0638  0.6115  4.8074
15523TIP3    H267985   0.697   4.060  16.968  1.0756  1.1195 -2.1079
15524TIP3   OH267986   5.786   2.601   0.757  0.4077  0.0645  0.8039
15524TIP3    H167987   5.707   2.552   0.778  0.2757 -0.2250 -0.2900
15524TIP3    H267988   5.845   2.536   0.717  0.2294  0.7652 -0.6585
15525TIP3   OH267989   2.469   5.049   1.689 -0.0415 -0.6447 -0.4393
15525TIP3    H167990   2.495   5.139   1.671 -0.2421 -0.7252 -1.1572
15525TIP3    H267991   2.436   5.052   1.779  1.2128 -0.2862  0.0270
15526TIP3   OH267992   4.716   4.058  16.222  0.1265 -0.4741 -0.2004
15526TIP3    H167993   4.756   4.145  16.226 -0.3395 -0.3144  1.5362
15526TIP3    H267994   4.788   4.001  16.195  0.6698  0.3010 -0.4418
15527TIP3   OH267995   1.075   2.464  16.006 -0.3375 -0.2064 -0.2162
15527TIP3    H167996   1.067   2.466  15.911  0.4484 -0.6548 -0.3054
15527TIP3    H267997   1.098   2.554  16.030  1.8851 -0.5838 -0.7183
15528TIP3   OH267998   0.153   5.002  12.828 -0.0206 -0.3337  0.3382
15528TIP3    H167999   0.154   4.928  12.768  0.2392 -1.3120  1.5309
15528TIP3    H268000   0.240   5.041  12.819  0.0611 -0.5514  0.1793
15529TIP3   OH268001   4.404   0.806  15.370 -1.1321 -0.4949  0.1633
15529TIP3    H168002   4.464   0.859  15.317  0.5005 -0.5127  1.8595
15529TIP3    H268003   4.322   0.806  15.321 -0.3548  1.2447 -1.2756
15530TIP3   OH268004   4.278   1.725  16.164  0.3471 -0.1887 -0.6242
15530TIP3    H168005   4.214   1.690  16.101 -0.1261 -0.7940  0.1827
15530TIP3    H268006   4.294   1.814  16.133 -1.4461  0.2311 -0.4459
15531TIP3   OH268007   2.149   4.799  12.149  0.3241  0.4400 -0.0423
15531TIP3    H168008   2.164   4.870  12.211  3.7438 -0.7391  0.6910
15531TIP3    H268009   2.113   4.728  12.202 -0.6664  0.7398 -0.2846
15532TIP3   OH268010   4.049   6.093   6.818 -0.3160 -0.0849 -0.1829
15532TIP3    H168011   3.956   6.083   6.795 -0.4153 -1.4698  0.7113
15532TIP3    H268012   4.082   6.003   6.826  0.4928  0.3406  1.8268
15533TIP3   OH268013   5.811   4.937  16.348  0.1583 -0.4292 -0.0775
15533TIP3    H168014   5.745   4.991  16.392  1.6671  2.0647 -0.6964
15533TIP3    H268015   5.884   4.934  16.410  1.0246  0.3277 -1.0391
15534TIP3   OH268016   3.761   5.133  11.791  0.2733 -0.3608  0.4739
15534TIP3    H168017   3.679   5.094  11.820  0.9518 -1.7181  0.6247
15534TIP3    H268018   3.798   5.070  11.729  1.4335 -0.0036  0.7748
15535TIP3   OH268019   0.969   6.250  11.361 -0.3675  0.0793  0.7052
15535TIP3    H168020   0.887   6.297  11.344 -0.6401 -0.4186  0.6278
15535TIP3    H268021   0.979   6.253  11.457 -0.8176 -0.4251  0.7696
15536TIP3   OH268022   6.230   2.480   4.330  0.7398  0.1429 -0.1509
15536TIP3    H168023   6.207   2.439   4.246  2.8786 -1.1035 -0.2005
15536TIP3    H268024   6.149   2.476   4.381 -0.4153  0.2425 -1.8688
15537TIP3   OH268025   3.504   5.379  13.792 -0.3652  0.1602  0.0902
15537TIP3    H168026   3.573   5.409  13.734  1.3917 -0.1321  1.9185
15537TIP3    H268027   3.489   5.452  13.852 -2.4955  0.6480 -0.9252
15538TIP3   OH268028   1.729   0.977  15.258  0.2562 -0.2269  0.2094
15538TIP3    H168029   1.714   1.041  15.327  0.0925  0.4303 -0.4231
15538TIP3    H268030   1.765   1.028  15.185  0.0712 -0.8423 -0.3238
15539TIP3   OH268031   3.552   0.247  16.313  0.0565  0.0073 -0.0577
15539TIP3    H168032   3.626   0.194  16.343  0.2421 -0.2440 -0.9328
15539TIP3    H268033   3.541   0.313  16.382  0.7426 -0.2840  0.3471
15540TIP3   OH268034   1.485   4.036   5.822 -0.0526 -0.1228  0.8637
15540TIP3    H168035   1.514   4.074   5.739 -1.3318 -0.3076  0.2934
15540TIP3    H268036   1.407   3.985   5.798  0.7118 -1.8432  1.8493
15541TIP3   OH268037   2.459   3.732   3.980  0.6822  0.2465 -0.0390
15541TIP3    H168038   2.440   3.675   3.905  2.1112 -0.1740 -0.1068
15541TIP3    H268039   2.408   3.694   4.052 -2.2440  1.7496 -1.1559
15542TIP3   OH268040   0.088   4.804  13.723 -0.7460 -0.1075 -0.3405
15542TIP3    H168041   0.005   4.758  13.717 -1.8761  1.6846  0.5206
15542TIP3    H268042   0.129   4.792  13.637 -3.1753  1.2038 -1.7891
15543TIP3   OH268043   3.110   6.569  16.612 -0.1196 -0.2891 -0.5688
15543TIP3    H168044   3.111   6.640  16.548 -1.6733 -0.7648 -1.1731
15543TIP3    H268045   3.050   6.600  16.681  0.4220 -0.3722 -0.0529
15544TIP3   OH268046   2.840   0.481  16.656  0.4561 -0.4691 -0.3970
15544TIP3    H168047   2.926   0.481  16.612  0.7410 -0.8333  0.1466
15544TIP3    H268048   2.800   0.398  16.631  0.5239 -0.5758 -0.1549
15545TIP3   OH268049   5.853   2.974   0.961 -0.1107  0.3908  0.1591
15545TIP3    H168050   5.777   3.009   1.005 -0.7496 -1.2070  0.4032
15545TIP3    H268051   5.835   2.880   0.951  1.5808  0.0566 -0.2514
15546TIP3   OH268052   0.676   4.419  11.938 -0.3107  0.6428  0.7567
15546TIP3    H168053   0.624   4.498  11.952 -0.9104  0.0044  2.3452
15546TIP3    H268054   0.679   4.409  11.843 -1.0239  2.0363  0.5569
15547TIP3   OH268055   1.607   6.336   4.451 -0.6039 -0.5005 -0.0081
15547TIP3    H168056   1.642   6.375   4.370 -1.0623 -3.5676 -1.8192
15547TIP3    H268057   1.535   6.393   4.475  0.9213  1.7568 -0.4274
15548TIP3   OH268058   1.759   1.126  16.734  0.5787  0.7338 -0.4086
15548TIP3    H168059   1.708   1.198  16.699 -0.0925  0.3422 -0.2638
15548TIP3    H268060   1.830   1.167  16.784 -0.5351  1.3007  0.7468
15549TIP3   OH268061   1.662   3.839  11.344  0.4569 -0.6087  0.0513
15549TIP3    H168062   1.681   3.767  11.284  2.9221  0.8261 -1.0833
15549TIP3    H268063   1.697   3.916  11.299  0.1558  0.9061  2.2845
15550TIP3   OH268064   2.908   5.563  12.435  0.0980  0.2905 -0.0270
15550TIP3    H168065   2.952   5.636  12.480 -0.8700  1.3411 -0.7347
15550TIP3    H268066   2.974   5.528  12.375  0.3215  1.1561 -0.3029
15551TIP3   OH268067   2.039   1.587  14.511 -0.2167  0.0983 -0.4063
15551TIP3    H168068   2.033   1.649  14.584 -1.4859  0.2168 -0.5955
15551TIP3    H268069   2.012   1.638  14.435 -0.3483 -0.4386 -0.7186
15552TIP3   OH268070   1.497   0.866  10.596  0.1328  0.0860 -0.6002
15552TIP3    H168071   1.470   0.893  10.509  0.1701  3.1459  0.2175
15552TIP3    H268072   1.416   0.854  10.645  0.1311 -0.8668 -0.8122
15553TIP3   OH268073   3.118   1.767   4.750 -0.0077  0.6248 -0.1477
15553TIP3    H168074   3.026   1.786   4.733 -0.4661 -0.7829  0.6230
15553TIP3    H268075   3.134   1.799   4.839  0.5507  1.8256 -0.6629
15554TIP3   OH268076   0.537   0.658  12.336 -0.3389 -0.4742  0.0664
15554TIP3    H168077   0.499   0.623  12.256 -0.3479  0.5167 -0.3839
15554TIP3    H268078   0.557   0.750  12.315 -1.1146  0.0456  1.4407
15555TIP3   OH268079   3.034   2.185  13.553  0.2013 -0.9777  0.3126
15555TIP3    H168080   2.942   2.160  13.553  0.8719 -3.7706 -0.7551
15555TIP3    H268081   3.051   2.214  13.464  0.8238 -2.5059 -0.0788
15556TIP3   OH268082   2.661   4.319   3.992 -0.3640 -0.0821  0.2234
15556TIP3    H168083   2.693   4.353   4.075  1.4363  0.0422 -0.4715
15556TIP3    H268084   2.706   4.372   3.925  0.5900 -2.0998 -0.8404
15557TIP3   OH268085   5.012   4.537   4.425  0.1068 -0.0682  0.0001
15557TIP3    H168086   4.948   4.482   4.379  0.0976 -1.1217  1.2148
15557TIP3    H268087   5.090   4.483   4.431  0.6781  0.7091 -0.2717
15558TIP3   OH268088   1.145   0.588   2.838 -0.2112 -0.3317 -0.1005
15558TIP3    H168089   1.130   0.609   2.930  1.1982 -0.0567  0.0839
15558TIP3    H268090   1.220   0.642   2.813 -0.9509  0.0564 -1.5869
15559TIP3   OH268091   1.595   4.053  12.462 -0.5485  0.1070 -1.0216
15559TIP3    H168092   1.544   4.122  12.419 -1.5304 -0.3829 -0.6865
15559TIP3    H268093   1.563   4.054  12.553  1.5130  1.1654 -0.2390
15560TIP3   OH268094   3.921   1.461  14.808 -0.1023  0.3033 -0.7476
15560TIP3    H168095   3.934   1.531  14.872  0.0048 -0.5986  0.2475
15560TIP3    H268096   3.861   1.498  14.744  1.1775  1.8508 -1.1211
15561TIP3   OH268097   2.023   3.325  13.621  0.3527 -0.5551  0.0615
15561TIP3    H168098   2.016   3.229  13.622  0.2670 -0.5477  0.8143
15561TIP3    H268099   1.939   3.355  13.586  1.2398 -0.8023 -2.4645
15562TIP3   OH268100   6.463   5.298  11.187 -0.2566  0.2360 -0.1179
15562TIP3    H168101   6.479   5.226  11.127 -0.3406 -0.3246  0.5240
15562TIP3    H268102   6.550   5.326  11.214 -0.2543 -0.6590  0.8390
15563TIP3   OH268103   1.758   3.956   5.893 -0.0445  0.1614  0.5440
15563TIP3    H168104   1.781   3.863   5.902  3.3075  0.6499 -1.4792
15563TIP3    H268105   1.664   3.955   5.876  0.1035 -2.9901 -0.7450
15564TIP3   OH268106   0.450   0.365  10.480 -0.4770  0.2050  0.0782
15564TIP3    H168107   0.485   0.418  10.409 -1.0182  2.5288  1.4588
15564TIP3    H268108   0.406   0.292  10.436  0.3760  0.8108 -1.8885
15565TIP3   OH268109   4.997   5.065  12.791 -1.1031 -0.5446 -0.1894
15565TIP3    H168110   5.065   5.019  12.840 -2.8727 -0.1115  2.9209
15565TIP3    H268111   4.948   4.995  12.748 -2.0377 -1.4535  2.1770
15566TIP3   OH268112   5.979   2.936  16.872  0.1576  0.9889  0.2822
15566TIP3    H168113   6.028   3.011  16.839  1.9994 -0.7034 -1.0784
15566TIP3    H268114   5.926   2.908  16.798  0.6567  0.0608  0.2620
15567TIP3   OH268115   0.904   1.484   2.355 -0.5115  0.1137  0.7271
15567TIP3    H168116   0.967   1.468   2.284 -0.1797  1.6991  0.6388
15567TIP3    H268117   0.819   1.469   2.314 -0.3145  0.7981  0.0398
15568TIP3   OH268118   6.675   3.631  15.483  0.0211 -0.5588 -0.0886
15568TIP3    H168119   6.595   3.652  15.532  1.6486  0.1099  2.4492
15568TIP3    H268120   6.727   3.579  15.543  2.1489  0.3156 -1.0779
15569TIP3   OH268121   5.245   4.484   3.305  0.2963  0.5488  0.5978
15569TIP3    H168122   5.181   4.537   3.256  1.0930 -0.0624 -1.1653
15569TIP3    H268123   5.328   4.502   3.262  1.0736  0.1229  1.8853
15570TIP3   OH268124   0.449   4.273   3.065 -0.3274 -0.2654 -0.9760
15570TIP3    H168125   0.508   4.284   3.140 -0.2173 -0.4829 -1.0294
15570TIP3    H268126   0.490   4.324   2.995 -1.4699  1.6291 -0.3345
15571TIP3   OH268127   0.949   2.002  12.026 -0.8005  0.4173 -0.3545
15571TIP3    H168128   0.993   2.083  12.051  1.2221 -0.3920 -1.1427
15571TIP3    H268129   0.895   2.025  11.951 -1.6794  1.3938  0.5446
15572TIP3   OH268130   5.078   1.052   0.695 -0.3454 -0.8826 -0.4326
15572TIP3    H168131   5.168   1.026   0.714  0.3467  1.2752 -0.4040
15572TIP3    H268132   5.027   1.017   0.768  0.9787  0.2896  1.1435
15573TIP3   OH268133   1.822   6.668   4.380 -0.4487 -0.7645  0.6595
15573TIP3    H168134   1.909   6.704   4.359 -0.7457 -1.0472 -1.2106
15573TIP3    H268135   1.783   6.732   4.439  0.4693  0.0910  0.3596
15574TIP3   OH268136   3.243   1.697  12.502  0.8487 -0.8272 -0.2217
15574TIP3    H168137   3.222   1.653  12.420 -2.6776 -2.3185  1.2755
15574TIP3    H268138   3.284   1.630  12.556  0.6846 -0.6521  0.1279
15575TIP3   OH268139   5.400   6.287   4.212 -0.0308  0.1853 -0.2278
15575TIP3    H168140   5.476   6.307   4.266  0.3089 -1.1142 -0.1860
15575TIP3    H268141   5.385   6.193   4.227  0.3228 -0.3117 -2.6833
15576TIP3   OH268142   1.998   5.151  12.066 -0.5175  0.3811 -0.3460
15576TIP3    H168143   2.088   5.144  12.099 -0.2522  0.2406 -1.0841
15576TIP3    H268144   2.007   5.200  11.984 -0.9370 -0.8707 -1.1625
15577TIP3   OH268145   6.334   2.059  12.189  0.2535  0.5302  0.1534
15577TIP3    H168146   6.251   2.106  12.180 -0.8878 -0.8825  2.4533
15577TIP3    H268147   6.338   2.003  12.111 -0.8615  0.7627 -0.0946
15578TIP3   OH268148   2.468   5.377   2.261 -0.6200 -0.0761 -0.4482
15578TIP3    H168149   2.482   5.416   2.348 -1.3471 -2.2040  0.7135
15578TIP3    H268150   2.374   5.388   2.245 -0.3603  1.0027 -1.3755
15579TIP3   OH268151   3.917   1.045  12.212  0.2565  0.2579  0.0912
15579TIP3    H168152   3.894   0.952  12.212  0.6702  0.1233 -1.6527
15579TIP3    H268153   3.888   1.077  12.297  0.0431 -1.4478  0.6968
15580TIP3   OH268154   1.759   1.479   0.193  0.2040  0.1341 -0.9318
15580TIP3    H168155   1.806   1.532   0.128  0.0762  0.0499 -1.0934
15580TIP3    H268156   1.670   1.516   0.194 -0.3207 -0.9898 -2.1114
15581TIP3   OH268157   5.425   6.076  15.691  0.0688  0.1539  0.0192
15581TIP3    H168158   5.385   6.009  15.745 -0.9519  0.7388  0.0230
15581TIP3    H268159   5.362   6.091  15.620  0.7638  0.3527 -0.5721
15582TIP3   OH268160   3.361   4.244  15.092  0.0354 -0.6201  0.6287
15582TIP3    H168161   3.297   4.273  15.027 -0.2741 -1.3105  0.6243
15582TIP3    H268162   3.409   4.174  15.049  1.9770  1.0110 -0.0099
15583TIP3   OH268163   0.401   2.189  15.266  0.1565 -0.6218 -0.2456
15583TIP3    H168164   0.397   2.279  15.234  0.0966 -0.8321 -0.8570
15583TIP3    H268165   0.428   2.196  15.357  1.0142 -0.0390 -0.5362
15584TIP3   OH268166   0.642   2.987   4.843 -0.0796  0.5924 -0.3668
15584TIP3    H168167   0.725   2.948   4.816  0.4267  1.6188 -0.3599
15584TIP3    H268168   0.654   3.007   4.936 -0.7381 -0.2442 -0.0946
15585TIP3   OH268169   5.618   6.106  12.010 -0.1330  0.2910  0.1380
15585TIP3    H168170   5.586   6.054  12.084 -0.4002  1.7755  1.1267
15585TIP3    H268171   5.693   6.154  12.046  0.2877  0.3834 -0.8223
15586TIP3   OH268172   4.854   0.750   0.034  0.1343 -0.4653 -0.0725
15586TIP3    H168173   4.779   0.777   0.087 -0.3038 -0.4269 -0.6983
15586TIP3    H268174   4.878   0.829  -0.015  0.2384 -0.6174 -0.2702
15587TIP3   OH268175   2.161   2.199   2.443  0.1433  0.0761  0.0816
15587TIP3    H168176   2.219   2.168   2.373  1.4588 -1.2215  1.6300
15587TIP3    H268177   2.077   2.156   2.426  1.2018 -2.4756  0.7106
15588TIP3   OH268178   0.794   4.459  16.395  0.7066  0.2173  0.1813
15588TIP3    H168179   0.710   4.480  16.437  0.8743  0.5359  0.3590
15588TIP3    H268180   0.858   4.465  16.465  0.9686  0.6044 -0.0875
15589TIP3   OH268181   5.628   1.978  12.443  0.0375 -0.6160 -0.7165
15589TIP3    H168182   5.609   1.922  12.368 -0.6239 -0.5159 -0.6347
15589TIP3    H268183   5.558   1.958  12.505  0.6143 -0.7473 -0.0969
15590TIP3   OH268184   2.466   3.472  11.479  0.3248  0.0949 -0.5086
15590TIP3    H168185   2.425   3.516  11.554  0.4427 -1.4317  0.5012
15590TIP3    H268186   2.400   3.476  11.410 -0.8722 -0.7650  0.5305
15591TIP3   OH268187   5.789   2.730   5.166  0.4076  0.0720 -0.0855
15591TIP3    H168188   5.696   2.706   5.168  0.0496  1.2269 -1.1166
15591TIP3    H268189   5.834   2.659   5.211 -0.9543 -0.6497  0.1749
15592TIP3   OH268190   4.563   0.611   2.646 -0.5227  0.2915  0.4084
15592TIP3    H168191   4.470   0.591   2.651 -0.6205  0.5487 -0.3258
15592TIP3    H268192   4.597   0.586   2.732 -0.9136 -1.5622  0.0694
15593TIP3   OH268193   4.900   2.588  11.092  0.1671  0.3106 -0.4799
15593TIP3    H168194   4.898   2.494  11.075  1.1951 -0.1870  1.7930
15593TIP3    H268195   4.909   2.595  11.187 -1.3266  2.7435 -0.4226
15594TIP3   OH268196   4.873   0.557  16.362  0.1202  0.4216  0.4034
15594TIP3    H168197   4.889   0.466  16.338 -0.8001  0.4205 -0.2446
15594TIP3    H268198   4.862   0.603  16.279  0.5068  1.1169  0.7233
15595TIP3   OH268199   4.888   2.577   0.706 -0.2304  0.2130 -0.0149
15595TIP3    H168200   4.857   2.660   0.669 -0.6026 -0.2621 -0.7743
15595TIP3    H268201   4.969   2.559   0.659  0.5102  0.7505  1.0061
15596TIP3   OH268202   1.988   3.925  15.988  0.3307 -0.2528 -0.4910
15596TIP3    H168203   1.991   3.848  15.932 -1.0668 -0.6407 -0.0885
15596TIP3    H268204   1.896   3.930  16.017  1.0687 -0.3776  2.1557
15597TIP3   OH268205   0.554   4.817   4.577  0.6602 -0.1209 -0.1348
15597TIP3    H168206   0.624   4.752   4.569  0.2315 -0.8669  1.6201
15597TIP3    H268207   0.592   4.885   4.632 -0.7468 -1.8871  3.3618
15598TIP3   OH268208   2.306   4.568  14.009  0.0168  0.1994 -0.1661
15598TIP3    H168209   2.352   4.610  13.936 -0.7783 -1.4535 -1.7064
15598TIP3    H268210   2.222   4.614  14.014  0.9372  1.8611  1.3149
15599TIP3   OH268211   0.646   1.749  16.064 -0.1344  0.5188  0.7884
15599TIP3    H168212   0.693   1.830  16.043 -0.9115  0.7956  0.0365
15599TIP3    H268213   0.683   1.720  16.147 -0.0502  1.8021  1.2137
15600TIP3   OH268214   5.777   3.203  11.207  0.5350 -0.3298 -0.1794
15600TIP3    H168215   5.684   3.196  11.225  0.4206 -0.3416 -0.7693
15600TIP3    H268216   5.783   3.221  11.113  1.1464 -0.8443 -0.2469
15601TIP3   OH268217   1.020   1.292   5.414  0.2883  0.0490  0.2079
15601TIP3    H168218   0.982   1.304   5.327 -0.8348 -1.0984  0.5224
15601TIP3    H268219   1.106   1.255   5.397 -0.5558 -1.7347 -0.3944
15602TIP3   OH268220   6.620   1.232  13.851 -0.8931  0.6155 -0.3377
15602TIP3    H168221   6.706   1.242  13.893 -0.6650 -0.6364 -0.4705
15602TIP3    H268222   6.574   1.169  13.906 -2.5711  2.8342  0.9563
15603TIP3   OH268223   5.978   4.453   0.905  0.2987 -0.1075 -0.1494
15603TIP3    H168224   6.046   4.509   0.869 -0.5180  0.8691 -0.2258
15603TIP3    H268225   5.959   4.491   0.991 -0.3765 -0.1605 -0.2661
15604TIP3   OH268226   3.048   5.055  17.268  1.0760 -0.1561  0.4211
15604TIP3    H168227   3.032   5.018  17.181 -0.1096 -1.5843  1.2017
15604TIP3    H268228   3.028   5.148  17.258 -0.6906 -0.5836 -0.4518
15605TIP3   OH268229   2.387   1.563  11.812 -0.5513  0.7522 -0.1902
15605TIP3    H168230   2.410   1.541  11.902  0.4835  2.3301 -0.0360
15605TIP3    H268231   2.295   1.591  11.818 -0.8451 -0.2278  0.1555
15606TIP3   OH268232   4.269   5.207   3.550 -0.6415 -0.2033  0.0910
15606TIP3    H168233   4.302   5.124   3.517 -0.9294 -0.1008 -0.4570
15606TIP3    H268234   4.245   5.257   3.472 -1.3900  0.0126  0.4473
15607TIP3   OH268235   4.416   4.259  12.927  0.3464 -0.3167  0.7582
15607TIP3    H168236   4.409   4.215  12.842  0.2769 -0.7937  1.0047
15607TIP3    H268237   4.506   4.290  12.930  0.6883 -1.2861  0.9779
15608TIP3   OH268238   5.467   5.525  13.663  0.0323 -0.0475 -0.0241
15608TIP3    H168239   5.425   5.544  13.747 -0.1146  0.3309 -0.1794
15608TIP3    H268240   5.534   5.593  13.654  0.8593 -0.7938  0.3357
15609TIP3   OH268241   6.312   1.973  13.466 -0.4348 -0.4356  0.0389
15609TIP3    H168242   6.295   2.014  13.550 -0.8317 -0.4331 -0.0383
15609TIP3    H268243   6.344   2.045  13.410  2.3082 -0.8959  0.8699
15610TIP3   OH268244   5.748   2.968  11.965 -0.3182 -0.1935  0.0410
15610TIP3    H168245   5.783   2.924  12.043 -0.3122 -0.5856 -0.1809
15610TIP3    H268246   5.785   3.056  11.969  0.9271 -0.6773 -0.3309
15611TIP3   OH268247   3.494   1.782   6.177  0.2694 -0.3359 -0.3073
15611TIP3    H168248   3.519   1.700   6.219 -1.3957 -0.9689 -0.4701
15611TIP3    H268249   3.438   1.826   6.241 -0.4762 -0.2743 -0.9805
15612TIP3   OH268250   2.347   1.155   2.430  0.5972  0.6186  0.4314
15612TIP3    H168251   2.304   1.097   2.367 -0.8207  1.6307  0.4129
15612TIP3    H268252   2.426   1.109   2.455  0.5028 -0.4210 -1.0678
15613TIP3   OH268253   6.429   1.827   5.054 -0.0773 -0.1639 -0.1529
15613TIP3    H168254   6.491   1.757   5.074 -0.5842 -2.1433 -4.4369
15613TIP3    H268255   6.347   1.781   5.033 -0.4651  1.5864 -3.0515
15614TIP3   OH268256   6.664   6.310   4.612  0.1854 -0.0570 -0.6047
15614TIP3    H168257   6.573   6.339   4.621  0.4737  0.1865  2.3716
15614TIP3    H268258   6.658   6.231   4.557 -1.4142  1.5043 -2.8415
15615TIP3   OH268259   3.260   0.789   5.029 -0.0777 -0.1322  0.0554
15615TIP3    H168260   3.217   0.712   5.066 -0.0719  0.6517  1.7650
15615TIP3    H268261   3.336   0.754   4.983  1.0974 -1.0496  2.5128
15616TIP3   OH268262   4.028   3.165   4.690  0.3934 -0.3807 -0.1932
15616TIP3    H168263   4.081   3.097   4.730 -0.4926 -0.6892  0.5135
15616TIP3    H268264   3.940   3.127   4.685  0.2179  0.1416 -1.2535
15617TIP3   OH268265   3.244   2.978   4.197  0.3790  0.0452 -0.2708
15617TIP3    H168266   3.213   2.892   4.226 -1.0791  0.9583  1.0280
15617TIP3    H268267   3.178   3.008   4.135  1.7032 -0.4039 -1.9564
15618TIP3   OH268268   3.887   4.019  15.996 -0.2771 -0.2618 -0.5882
15618TIP3    H168269   3.875   4.098  16.050  0.3811 -0.1849 -0.5414
15618TIP3    H268270   3.978   4.025  15.966 -0.1225 -1.1608 -0.3283
15619TIP3   OH268271   5.256   4.071  16.172 -0.3553 -0.3965 -0.2917
15619TIP3    H168272   5.210   4.117  16.102 -1.0358 -0.1287  0.3161
15619TIP3    H268273   5.332   4.127  16.191 -1.9431  1.3072  1.4266
15620TIP3   OH268274   0.183   6.169   0.345  0.6948 -0.3306 -0.0229
15620TIP3    H168275   0.219   6.254   0.369  0.8000 -0.7201  1.2764
15620TIP3    H268276   0.124   6.187   0.272  1.9255  0.6185 -0.8197
15621TIP3   OH268277   4.610   1.144   1.820  0.3913  0.2165  0.2778
15621TIP3    H168278   4.581   1.124   1.909  0.1008  1.9708  0.6287
15621TIP3    H268279   4.529   1.151   1.769  0.5680 -1.0392 -0.2119
15622TIP3   OH268280   3.334   4.490   5.200  0.2637 -0.4707  0.3500
15622TIP3    H168281   3.372   4.440   5.128  2.6248 -0.7255  1.6930
15622TIP3    H268282   3.382   4.462   5.277  0.0680  2.1749  1.5326
15623TIP3   OH268283   1.842   0.944  17.296  1.0644 -0.6880  0.3400
15623TIP3    H168284   1.866   0.911  17.382  3.4365 -1.3436 -0.5067
15623TIP3    H268285   1.890   1.026  17.287 -0.7499  0.4291  0.3845
15624TIP3   OH268286   0.612   4.777   4.311 -0.2917 -0.0861 -0.0498
15624TIP3    H168287   0.635   4.866   4.284 -0.0943  0.4560  1.7969
15624TIP3    H268288   0.569   4.788   4.395 -1.9668 -1.6089 -0.6510
15625TIP3   OH268289   6.040   0.102  12.508 -0.3925 -0.3678 -0.1321
15625TIP3    H168290   6.089   0.171  12.463 -2.0927  1.1821  0.2567
15625TIP3    H268291   6.106   0.055  12.558  0.9672  0.3825 -1.1509
15626TIP3   OH268292   0.227   2.349   3.896 -0.2214  0.3502  0.6609
15626TIP3    H168293   0.269   2.394   3.823  2.0378  0.4444  1.9120
15626TIP3    H268294   0.154   2.405   3.920  2.2485  3.3650  1.9352
15627TIP3   OH268295   5.875   2.070  14.848  0.1535  0.5110 -0.7507
15627TIP3    H168296   5.821   2.143  14.818  0.4976  0.9574 -0.3098
15627TIP3    H268297   5.830   2.038  14.927  0.0233  0.2688 -0.9231
15628TIP3   OH268298   6.155   3.082  11.176 -0.0887 -0.0365 -0.1230
15628TIP3    H168299   6.091   3.030  11.224  0.6080 -1.5166 -0.7425
15628TIP3    H268300   6.105   3.156  11.142 -1.2592 -0.6530  0.1914
15629TIP3   OH268301   2.438   4.446   4.325 -0.1868 -0.2054  0.3418
15629TIP3    H168302   2.362   4.409   4.371 -0.4988 -0.0216 -0.0280
15629TIP3    H268303   2.481   4.369   4.286 -1.2490 -0.1238 -1.0490
15630TIP3   OH268304   5.819   4.602  12.952 -0.0895  0.3193  0.5284
15630TIP3    H168305   5.741   4.658  12.946  0.4613  0.9504 -1.4753
15630TIP3    H268306   5.846   4.589  12.861  1.8473 -0.3276  1.1487
15631TIP3   OH268307   6.226   1.707   0.406 -0.3851  0.1173 -0.0321
15631TIP3    H168308   6.157   1.641   0.412 -0.5762  0.3729  0.6875
15631TIP3    H268309   6.295   1.665   0.354 -0.4180 -0.7215  0.5738
15632TIP3   OH268310   1.664   5.184  12.786  0.1944 -0.1097 -0.6023
15632TIP3    H168311   1.718   5.181  12.865  1.2615 -0.6019 -1.3276
15632TIP3    H268312   1.711   5.130  12.723 -0.5080  0.5009 -1.6721
15633TIP3   OH268313   4.909   5.388   1.319  0.0903  0.2024  0.3650
15633TIP3    H168314   4.939   5.389   1.410  0.2428  1.1214  0.3179
15633TIP3    H268315   4.987   5.362   1.269  0.0768 -0.0457  0.4704
15634TIP3   OH268316   5.315   5.256   1.504  0.4006 -0.0400  0.6972
15634TIP3    H168317   5.401   5.276   1.467  0.2757  2.4915  1.5770
15634TIP3    H268318   5.333   5.238   1.596 -0.0838  1.5840  1.1332
15635TIP3   OH268319   2.106   3.536   3.594  0.0301 -0.2543  0.9037
15635TIP3    H168320   2.011   3.545   3.588  0.2419  2.4739  0.4391
15635TIP3    H268321   2.135   3.533   3.503  0.4128 -1.4242  1.0436
15636TIP3   OH268322   0.753   1.937  14.753  0.5584  0.5351  0.2897
15636TIP3    H168323   0.698   2.013  14.772  2.4728  1.9861  0.2927
15636TIP3    H268324   0.803   1.963  14.676  3.5393  0.6214  2.1051
15637TIP3   OH268325   5.351   1.792   1.739  0.4027 -0.7885  0.2450
15637TIP3    H168326   5.374   1.708   1.778 -0.0929 -1.1208 -0.1609
15637TIP3    H268327   5.257   1.801   1.755 -0.1379 -1.6283 -2.1201
15638TIP3   OH268328   6.577   3.151  10.510  0.0880 -0.5591  0.1412
15638TIP3    H168329   6.535   3.224  10.465  0.3044 -0.7902 -0.4468
15638TIP3    H268330   6.663   3.143  10.468  0.4055 -0.6055  0.7786
15639TIP3   OH268331   3.943   2.133   3.627 -0.1725  0.0453  0.0494
15639TIP3    H168332   4.019   2.106   3.576 -0.6585  1.0532 -1.2678
15639TIP3    H268333   3.868   2.103   3.576 -0.6732 -0.4187  1.0387
15640TIP3   OH268334   5.409   6.500  11.848  0.2610 -0.5694  0.6995
15640TIP3    H168335   5.344   6.503  11.918  0.7574 -0.5225  1.1641
15640TIP3    H268336   5.485   6.546  11.884 -0.1089  1.1013 -0.5294
15641TIP3   OH268337   3.427   2.209  12.203 -0.6083  0.6914  0.1500
15641TIP3    H168338   3.413   2.145  12.134 -0.5200  1.9076 -1.0232
15641TIP3    H268339   3.339   2.237  12.228 -0.6713 -0.1401  0.9625
15642TIP3   OH268340   1.891   2.655   6.167 -0.6631 -0.4254  0.0342
15642TIP3    H168341   1.931   2.701   6.241 -0.3393 -0.6138 -0.0209
15642TIP3    H268342   1.817   2.710   6.142  0.2013  0.5073 -0.5644
15643TIP3   OH268343   4.887   5.158  16.760  0.0085 -0.2586  0.6219
15643TIP3    H168344   4.894   5.093  16.829  0.1126  0.7606  1.5886
15643TIP3    H268345   4.975   5.165  16.724 -0.1131 -1.0266  0.1348
15644TIP3   OH268346   2.359   0.539  16.691 -0.5549  0.0372  0.3161
15644TIP3    H168347   2.323   0.608  16.746 -0.8265  0.0598  0.1120
15644TIP3    H268348   2.283   0.484  16.669 -1.3558  2.2046 -3.3304
15645TIP3   OH268349   3.837   1.373  16.543 -0.0396  0.6025 -0.6260
15645TIP3    H168350   3.750   1.370  16.583  0.0544 -0.3600 -0.4782
15645TIP3    H268351   3.820   1.384  16.449 -0.3147  0.7582 -0.5584
15646TIP3   OH268352   2.415   0.012  14.556  0.0586 -0.0313  0.4790
15646TIP3    H168353   2.440  -0.080  14.564 -1.2893 -0.3955  0.6249
15646TIP3    H268354   2.499   0.059  14.562  0.6751 -1.1725  1.4876
15647TIP3   OH268355   3.392   0.093   2.767 -0.4284 -0.2335 -0.5089
15647TIP3    H168356   3.304   0.094   2.730 -0.0435 -0.8030 -1.4765
15647TIP3    H268357   3.428   0.180   2.745 -0.4197 -0.3478 -0.9711
15648TIP3   OH268358   1.666   3.924   5.405 -0.4777  0.5987  0.2182
15648TIP3    H168359   1.582   3.958   5.438 -1.1755  0.1805 -1.0500
15648TIP3    H268360   1.641   3.856   5.343  0.8504 -0.4771  0.8313
15649TIP3   OH268361   1.521   6.434   3.846  0.4590  0.3296 -0.3639
15649TIP3    H168362   1.538   6.481   3.928 -2.2930 -2.4013  2.0410
15649TIP3    H268363   1.437   6.470   3.817  0.4185 -0.1612 -0.8470
15650TIP3   OH268364   4.138   1.851   2.783  0.1407  0.3411  0.2404
15650TIP3    H168365   4.153   1.941   2.754  0.1714  0.1859 -0.2304
15650TIP3    H268366   4.043   1.844   2.792  0.2019  0.7431  1.3420
15651TIP3   OH268367   4.849   3.624  14.956 -0.0515 -0.2091  0.0881
15651TIP3    H168368   4.801   3.632  15.039  0.5747  0.6647  0.3795
15651TIP3    H268369   4.858   3.714  14.924  1.3723 -0.3365  0.0484
15652TIP3   OH268370   4.882   2.824  14.732  0.3204 -0.3569  0.4053
15652TIP3    H168371   4.973   2.794  14.734  0.1078 -1.2806 -1.7565
15652TIP3    H268372   4.889   2.920  14.731  1.1831 -0.3734  1.8084
15653TIP3   OH268373   3.960   4.579  13.825  0.2728  0.0106  0.1254
15653TIP3    H168374   3.984   4.518  13.755  0.5240 -0.4756  0.6257
15653TIP3    H268375   4.032   4.641  13.829  0.6210 -0.4142  0.4619
15654TIP3   OH268376   3.779   2.587  17.293 -0.2162 -0.1404 -0.2602
15654TIP3    H168377   3.697   2.618  17.254 -0.4720  0.3094  0.6223
15654TIP3    H268378   3.776   2.492  17.283 -1.7425 -0.3226  1.4335
15655TIP3   OH268379   2.740   3.278   5.377  0.2225  0.3174  0.0084
15655TIP3    H168380   2.656   3.236   5.361  0.8851 -0.6910 -0.9366
15655TIP3    H268381   2.718   3.358   5.425 -1.4864  1.2202 -2.1145
15656TIP3   OH268382   2.709   6.452  16.455 -0.2939  0.3078  0.0061
15656TIP3    H168383   2.756   6.377  16.419  0.1526  0.6303 -0.0810
15656TIP3    H268384   2.675   6.498  16.378  0.9228  1.1711 -0.0403
15657TIP3   OH268385   2.642   2.017   2.291 -0.0828  0.3613 -0.3714
15657TIP3    H168386   2.643   2.098   2.343 -0.5276 -0.3003  0.6900
15657TIP3    H268387   2.727   1.977   2.306 -0.1915  0.1951 -0.2010
15658TIP3   OH268388   2.111   1.386  16.160  0.1930 -0.2041 -0.2806
15658TIP3    H168389   2.037   1.446  16.151  0.1843 -0.3704 -1.5208
15658TIP3    H268390   2.075   1.300  16.137  1.1201 -0.0284 -2.7502
15659TIP3   OH268391   2.555   4.747   3.397  0.0345  0.3142 -0.0848
15659TIP3    H168392   2.614   4.820   3.381  0.2733  0.4749  1.3461
15659TIP3    H268393   2.570   4.724   3.489 -0.9579 -0.7030 -0.1510
15660TIP3   OH268394   0.735   6.366  14.777 -0.0035 -0.6883 -0.0487
15660TIP3    H168395   0.826   6.384  14.800 -0.8337  1.0229  2.2391
15660TIP3    H268396   0.693   6.344  14.860 -1.9288 -0.2756 -0.8577
15661TIP3   OH268397   3.758   2.069  16.091 -1.0398  0.1522  0.4500
15661TIP3    H168398   3.770   2.028  16.177  0.7134  2.4006  1.3817
15661TIP3    H268399   3.741   2.161  16.110  0.1829  0.8815 -1.6047
15662TIP3   OH268400   4.399   3.469   0.557 -0.0507  0.4640  0.3521
15662TIP3    H168401   4.384   3.483   0.651 -1.9982  0.3292  0.1014
15662TIP3    H268402   4.401   3.557   0.520 -1.0237  0.4817  0.3089
15663TIP3   OH268403   1.162   4.080  16.799 -0.0019 -0.0202 -0.2691
15663TIP3    H168404   1.076   4.120  16.811  0.0143 -0.0818  0.0660
15663TIP3    H268405   1.224   4.142  16.837  0.1561  0.2536 -0.9496
15664TIP3   OH268406   3.065   3.296   0.676 -0.2019 -0.0198 -0.0467
15664TIP3    H168407   3.026   3.339   0.601  1.2098  0.5234 -0.4990
15664TIP3    H268408   3.158   3.290   0.655 -0.0921 -1.7911  0.7323
15665TIP3   OH268409   4.706   0.271  11.251  0.0663  0.3566  0.3439
15665TIP3    H168410   4.618   0.233  11.250 -0.0174  0.5461 -0.2245
15665TIP3    H268411   4.706   0.333  11.178 -0.0785  2.1193  1.7986
15666TIP3   OH268412   2.496   3.777  11.133  0.1710 -0.1264  0.0936
15666TIP3    H168413   2.557   3.760  11.062 -0.5420 -0.2436 -0.5049
15666TIP3    H268414   2.551   3.785  11.211  1.0458  0.8822 -0.5991
15667TIP3   OH268415   6.074   6.165  15.448  0.6287  0.5773 -0.6890
15667TIP3    H168416   6.004   6.104  15.424  1.6875 -0.4868 -1.1642
15667TIP3    H268417   6.029   6.247  15.466 -1.0380 -0.6748  1.4021
15668TIP3   OH268418   5.749   0.720   3.711 -0.3239  0.5905  0.0420
15668TIP3    H168419   5.819   0.727   3.647 -0.5310  0.4691 -0.2042
15668TIP3    H268420   5.671   0.752   3.665 -0.3664  1.0390  0.4204
15669TIP3   OH268421   5.351   6.332  13.580 -0.3984 -0.1284  0.4681
15669TIP3    H168422   5.308   6.276  13.645  0.7644  0.5998  1.9349
15669TIP3    H268423   5.445   6.323  13.600 -0.1293  1.6023  0.1448
15670TIP3   OH268424   4.099   4.912   2.303  0.1795 -0.2327  0.2117
15670TIP3    H168425   4.137   4.893   2.217  0.8437  2.1474 -0.0669
15670TIP3    H268426   4.054   4.996   2.292 -1.9462 -1.0944  1.5543
15671TIP3   OH268427   6.748   1.912  14.101  0.7247  0.1322  0.6055
15671TIP3    H168428   6.763   1.949  14.014 -0.3087 -1.9537 -0.5423
15671TIP3    H268429   6.699   1.980  14.148 -2.6004 -0.2536 -1.9497
15672TIP3   OH268430   6.011   0.315  15.086 -0.0656  0.3413 -0.4951
15672TIP3    H168431   6.087   0.345  15.136 -1.5197  1.1344  1.3790
15672TIP3    H268432   5.958   0.267  15.150 -2.1961  1.7240 -1.0991
15673TIP3   OH268433   6.498   6.524   0.340 -0.3050  0.0295  0.3593
15673TIP3    H168434   6.526   6.531   0.431  1.6489 -0.0658 -0.1767
15673TIP3    H268435   6.547   6.593   0.295  0.5370 -1.3754 -0.9751
15674TIP3   OH268436   5.915   4.087   2.174 -0.1237  0.1517 -0.7034
15674TIP3    H168437   5.970   4.060   2.248 -0.9229 -1.4703 -0.6556
15674TIP3    H268438   5.830   4.048   2.193 -0.2945 -0.4633 -2.5602
15675TIP3   OH268439   5.251   0.764  16.146  0.0169  0.1940  0.4060
15675TIP3    H168440   5.337   0.723  16.134 -1.0915 -1.9050 -1.0519
15675TIP3    H268441   5.209   0.712  16.215 -0.8428 -0.2303 -0.4060
15676TIP3   OH268442   4.179   6.666  15.775  0.1571  0.8469  0.1270
15676TIP3    H168443   4.123   6.590  15.787  0.6256  0.2806 -1.0834
15676TIP3    H268444   4.268   6.634  15.793  0.5932  0.5616 -2.2034
15677TIP3   OH268445   3.230   6.737  15.057  0.7760 -0.0938 -0.3617
15677TIP3    H168446   3.189   6.823  15.045  1.2283  0.1644 -0.0825
15677TIP3    H268447   3.277   6.721  14.974  1.4833  0.3685 -0.0621
15678TIP3   OH268448   6.464   1.510   2.659 -0.9695 -0.1698  0.4111
15678TIP3    H168449   6.419   1.577   2.710 -2.7027 -0.3050 -0.8352
15678TIP3    H268450   6.496   1.448   2.723 -0.8458  0.9621  1.4789
15679TIP3   OH268451   4.978   4.115  14.163  0.0581 -0.3393 -0.8545
15679TIP3    H168452   4.917   4.074  14.101 -2.9565  0.2111  1.5243
15679TIP3    H268453   4.952   4.081  14.249 -0.3256  3.7519  0.8601
15680TIP3   OH268454   4.984   6.265  15.620  0.0711 -0.3342 -0.4454
15680TIP3    H168455   4.989   6.260  15.715  0.5612 -0.4728 -0.4733
15680TIP3    H268456   5.074   6.284  15.592  0.2203 -1.6933 -0.9642
15681TIP3   OH268457   1.238   0.693   4.778 -0.0206 -0.4721  0.2600
15681TIP3    H168458   1.190   0.751   4.837  1.7771 -1.4393  2.8409
15681TIP3    H268459   1.303   0.749   4.736  1.1381 -0.3989  2.0766
15682TIP3   OH268460   0.178   3.400   0.471 -0.4004 -0.1925  0.2112
15682TIP3    H168461   0.236   3.382   0.544  0.0793  0.4556 -0.0024
15682TIP3    H268462   0.223   3.468   0.420 -1.9079  1.2835  0.7448
15683TIP3   OH268463   0.939   5.077   1.408 -0.4227  0.3321 -0.1000
15683TIP3    H168464   1.010   5.138   1.389 -1.0081  1.4063  0.9843
15683TIP3    H268465   0.872   5.095   1.342 -0.8567  1.3478  0.5904
15684TIP3   OH268466   3.307   3.857   0.587  0.2779 -0.3734 -0.1221
15684TIP3    H168467   3.327   3.858   0.681  0.1241  0.2372 -0.0914
15684TIP3    H268468   3.227   3.908   0.579  0.6357  0.1122 -0.6566
15685TIP3   OH268469   1.708   0.642   0.640  0.3018 -0.6040 -0.3088
15685TIP3    H168470   1.676   0.624   0.551  0.4968  0.6365 -0.6483
15685TIP3    H268471   1.630   0.672   0.687  0.2730 -0.9221 -0.1473
15686TIP3   OH268472   3.987   3.357  11.354  0.3204  0.4577 -0.1579
15686TIP3    H168473   3.913   3.304  11.325  0.4314  1.3117 -2.1705
15686TIP3    H268474   4.064   3.302  11.338  0.2102 -0.2856  1.5900
15687TIP3   OH268475   0.947   6.660   4.294 -0.2615 -0.0230  0.0036
15687TIP3    H168476   0.968   6.608   4.217 -0.1310 -2.6412  1.6779
15687TIP3    H268477   0.950   6.750   4.263  0.1763 -0.9189 -2.9276
15688TIP3   OH268478   5.259   3.248  11.436 -0.1173 -0.4029 -0.5606
15688TIP3    H168479   5.242   3.159  11.468 -2.0409  0.0781 -0.1073
15688TIP3    H268480   5.172   3.285  11.423  0.5850  2.1084  1.2159
15689TIP3   OH268481   0.285   4.685   2.239 -0.4772 -0.1138  0.0896
15689TIP3    H168482   0.328   4.733   2.310 -0.5282  1.2787 -0.7892
15689TIP3    H268483   0.214   4.743   2.211 -0.3096 -0.5273 -1.2634
15690TIP3   OH268484   0.294   5.180   2.465 -0.1029 -0.3514 -0.7530
15690TIP3    H168485   0.309   5.089   2.439  0.6010 -1.5867  3.2665
15690TIP3    H268486   0.210   5.179   2.511 -1.0210  1.5090 -2.2536
15691TIP3   OH268487   6.072   1.077  16.941 -0.4882 -0.0352  0.6288
15691TIP3    H168488   6.068   1.167  16.972  2.1403  0.4869 -0.3556
15691TIP3    H268489   6.023   1.027  17.007  0.3033  1.7291  2.6628
15692TIP3   OH268490   0.495   5.984  10.589  0.2073 -0.3767 -0.7534
15692TIP3    H168491   0.546   5.906  10.612  0.9006  0.5135  0.9222
15692TIP3    H268492   0.404   5.960  10.607  0.5969 -0.1242  2.0804
15693TIP3   OH268493   3.308   5.479   4.912  0.0372 -0.1461 -0.2161
15693TIP3    H168494   3.330   5.387   4.896 -0.8500 -0.2722 -0.7704
15693TIP3    H268495   3.390   5.518   4.942 -0.3010 -1.8176  3.3909
15694TIP3   OH268496   6.018   3.067  14.258 -0.0978 -0.0030 -0.3436
15694TIP3    H168497   5.945   3.048  14.199 -0.1402  1.0773 -0.6646
15694TIP3    H268498   6.021   2.992  14.317 -2.6097  0.6575  0.8048
15695TIP3   OH268499   6.415   0.244  12.025  0.6257 -0.0343  0.5143
15695TIP3    H168500   6.384   0.166  11.978 -1.3217  0.4936  0.8278
15695TIP3    H268501   6.390   0.317  11.970  0.4380  0.4808  1.2702
15696TIP3   OH268502   3.842   2.412   5.374 -0.4242  0.2387  0.4854
15696TIP3    H168503   3.771   2.353   5.350 -0.9466  1.2197 -0.4708
15696TIP3    H268504   3.827   2.432   5.467 -2.1071  1.3496  0.0146
15697TIP3   OH268505   4.079   3.761   2.454 -1.2922  0.3305  0.4234
15697TIP3    H168506   4.040   3.844   2.424 -0.4261  0.3949 -0.5983
15697TIP3    H268507   4.097   3.775   2.546 -1.8458  1.0107  0.4421
15698TIP3   OH268508   1.782   5.205  13.716  0.5142 -0.4708 -0.1922
15698TIP3    H168509   1.829   5.126  13.688  1.9360  0.5783 -0.9293
15698TIP3    H268510   1.775   5.258  13.636  0.7562  0.7132  0.5401
15699TIP3   OH268511   5.911   0.597  16.376 -0.0090 -0.1973  0.2490
15699TIP3    H168512   5.888   0.690  16.378  0.5660 -0.0514  1.1577
15699TIP3    H268513   5.832   0.553  16.348 -0.3988  0.5423  0.1589
15700TIP3   OH268514   2.705   1.695   3.917 -0.4808 -0.2417 -0.1272
15700TIP3    H168515   2.769   1.625   3.907 -0.9863 -0.6565 -0.4655
15700TIP3    H268516   2.756   1.768   3.953  0.1364 -0.6338 -0.1851
15701TIP3   OH268517   4.343   4.539   0.702 -0.2180  0.1136 -0.0271
15701TIP3    H168518   4.436   4.555   0.721 -0.8152  1.8775  1.8615
15701TIP3    H268519   4.343   4.497   0.616  2.3942 -1.4248  0.6121
15702TIP3   OH268520   0.301   2.632   5.424 -0.0860  0.1261 -0.1163
15702TIP3    H168521   0.243   2.601   5.355  0.1097  0.9702 -0.6672
15702TIP3    H268522   0.251   2.620   5.505 -0.7007  0.0774 -0.5045
15703TIP3   OH268523   4.840   0.542   0.917 -0.4578 -0.1519 -0.1861
15703TIP3    H168524   4.814   0.450   0.906 -0.1620 -0.1116 -1.3887
15703TIP3    H268525   4.819   0.562   1.008  0.9675 -1.8959  0.6015
15704TIP3   OH268526   0.792   4.578   3.850  0.1244  0.4184  0.0528
15704TIP3    H168527   0.814   4.491   3.884 -1.8513 -0.5633 -1.0177
15704TIP3    H268528   0.802   4.571   3.756 -0.9790  1.0380 -0.1329
15705TIP3   OH268529   0.850   0.806   2.418  0.4802 -0.3692  0.4950
15705TIP3    H168530   0.789   0.734   2.400  0.0969 -0.4616  2.0745
15705TIP3    H268531   0.887   0.786   2.504  1.6954  0.4213  0.1814
15706TIP3   OH268532   4.815   5.594   3.584 -0.5002 -0.1963  0.2123
15706TIP3    H168533   4.798   5.687   3.601  0.2137  0.3985 -1.9478
15706TIP3    H268534   4.909   5.590   3.568 -0.7255 -1.0365 -1.0066
15707TIP3   OH268535   0.037   3.280  10.729  0.2188 -0.4476 -0.4073
15707TIP3    H168536   0.080   3.271  10.814  1.7886 -0.0388 -1.1196
15707TIP3    H268537  -0.050   3.315  10.750  0.2908 -1.0854  1.0671
15708TIP3   OH268538   0.580   1.453  12.957 -0.1811 -0.1173  0.2489
15708TIP3    H168539   0.634   1.386  12.998  2.1723  1.4472 -0.0868
15708TIP3    H268540   0.541   1.500  13.031 -0.7026 -0.9480  0.5145
15709TIP3   OH268541   2.855   5.085  11.122 -0.2304  0.1901 -0.2743
15709TIP3    H168542   2.914   5.111  11.051 -1.1839 -1.9461 -1.9742
15709TIP3    H268543   2.895   5.006  11.159 -0.8251  0.0824  0.1527
15710TIP3   OH268544   4.732   1.019  16.279  0.4404 -0.2604  0.5482
15710TIP3    H168545   4.706   0.948  16.220  2.7006  0.5529 -1.6006
15710TIP3    H268546   4.651   1.068  16.295 -0.5440 -1.4577 -0.5629
15711TIP3   OH268547   6.107   3.243  14.042  0.1841  0.1264  0.0364
15711TIP3    H168548   6.075   3.200  14.122 -2.6685 -0.4428 -1.2687
15711TIP3    H268549   6.151   3.174  13.993  2.2871  0.5636  1.1869
15712TIP3   OH268550   3.639   1.909   2.883  0.0011  0.4792  0.8449
15712TIP3    H168551   3.687   1.985   2.916  0.8181  1.6332 -2.5621
15712TIP3    H268552   3.552   1.918   2.921  0.6147  2.0557  2.0013
15713TIP3   OH268553   4.603   1.953   2.805  0.1391  0.4800 -0.0471
15713TIP3    H168554   4.540   1.968   2.876 -0.4784  0.1131 -0.5104
15713TIP3    H268555   4.552   1.963   2.725  0.4334 -0.7918 -0.4209
15714TIP3   OH268556   0.409   0.070   3.269  0.6451  0.1858  0.2528
15714TIP3    H168557   0.320   0.099   3.252  0.0720 -0.3852  2.0231
15714TIP3    H268558   0.464   0.146   3.246 -0.2607  0.5260 -0.8907
15715TIP3   OH268559   2.033   1.495   5.614 -0.0863 -0.5770  0.4069
15715TIP3    H168560   2.099   1.546   5.567 -1.7369  0.8419 -0.5064
15715TIP3    H268561   2.048   1.516   5.706  2.3595 -2.3656  0.5096
15716TIP3   OH268562   6.636   5.097  11.721  0.2876 -0.2844 -0.1553
15716TIP3    H168563   6.548   5.074  11.753  1.0125 -0.2324  2.0429
15716TIP3    H268564   6.639   5.192  11.724  0.4958 -0.2958  0.0326
15717TIP3   OH268565   3.133   1.400  15.782 -0.2273 -0.2321  0.5131
15717TIP3    H168566   3.074   1.362  15.847 -0.0491 -0.1672  0.7121
15717TIP3    H268567   3.209   1.343  15.781 -0.1285 -0.1011  0.5284
15718TIP3   OH268568   2.693   4.191   2.628 -0.0259  0.0632  0.0950
15718TIP3    H168569   2.787   4.201   2.614  0.1930  0.4500  1.7172
15718TIP3    H268570   2.661   4.152   2.546  1.6761 -0.9024 -0.1562
15719TIP3   OH268571   0.478   1.912  12.640 -0.0653  0.3863  0.1229
15719TIP3    H168572   0.460   1.826  12.679  0.1373  0.5164  0.5082
15719TIP3    H268573   0.553   1.945  12.690  0.3041  0.4837 -0.4854
15720TIP3   OH268574   1.346   5.785  11.685 -0.5104 -0.5885  0.1794
15720TIP3    H168575   1.301   5.866  11.711 -1.1368 -0.6939 -0.5486
15720TIP3    H268576   1.371   5.744  11.768  0.6490  0.7994  0.5551
15721TIP3   OH268577   6.577   3.501   4.855 -0.1079 -0.4188 -0.5625
15721TIP3    H168578   6.587   3.559   4.780  0.7105  0.1299 -0.0509
15721TIP3    H268579   6.639   3.536   4.920  0.6182 -2.0407 -0.3524
15722TIP3   OH268580   5.913   2.322  16.182 -0.5645 -0.3766  0.0459
15722TIP3    H168581   5.872   2.355  16.263  0.7298 -0.0004  0.5632
15722TIP3    H268582   5.873   2.235  16.170 -2.1845  0.3235  0.0180
15723TIP3   OH268583   1.921   0.648   4.851 -0.2664 -0.1598 -0.1388
15723TIP3    H168584   1.844   0.592   4.859 -0.2907 -0.1959 -0.6246
15723TIP3    H268585   1.995   0.587   4.845 -0.0698 -0.1262  1.4713
15724TIP3   OH268586   2.068   1.939  15.347  0.6556  0.1445  0.0190
15724TIP3    H168587   2.073   1.888  15.428  1.3766 -2.9018 -1.7935
15724TIP3    H268588   2.158   1.968  15.331  0.7625 -0.4178 -0.3896
15725TIP3   OH268589   3.607   1.857   3.624 -0.6997  0.0427  0.2365
15725TIP3    H168590   3.668   1.888   3.558  0.3581 -1.0738  0.6441
15725TIP3    H268591   3.528   1.909   3.611 -0.8847 -0.7744 -2.5063
15726TIP3   OH268592   0.682   5.315  15.639  0.3273 -0.1173  0.3258
15726TIP3    H168593   0.637   5.231  15.634 -2.0720  1.0885 -0.0264
15726TIP3    H268594   0.675   5.340  15.731  0.5547 -0.0486  0.3248
15727TIP3   OH268595   3.077   5.687  13.453  0.4487 -0.1314  0.1889
15727TIP3    H168596   3.045   5.706  13.365 -1.4810  0.4235  0.9386
15727TIP3    H268597   3.141   5.617  13.441 -1.0837 -1.3493 -1.4958
15728TIP3   OH268598   5.712   4.970   4.392 -0.0392  0.8524 -0.2919
15728TIP3    H168599   5.759   4.977   4.475 -1.2181  2.3533  0.2795
15728TIP3    H268600   5.741   4.886   4.356  3.0739  1.6605 -0.0071
15729TIP3   OH268601   3.672   0.429   1.895  0.1673 -0.0283 -0.2787
15729TIP3    H168602   3.664   0.383   1.978  0.3082  0.7406  0.1695
15729TIP3    H268603   3.699   0.361   1.833  1.0339 -0.4228  0.4993
15730TIP3   OH268604   6.460   0.347  14.969  0.2537 -0.0833  0.1740
15730TIP3    H168605   6.449   0.408  15.042  0.1937  1.8133 -1.3496
15730TIP3    H268606   6.511   0.274  15.006 -1.3512 -0.0990  2.5469
15731TIP3   OH268607   0.970   1.765  14.849  0.0507  0.4905 -0.5307
15731TIP3    H168608   0.999   1.728  14.766 -0.8930 -0.6292 -0.3836
15731TIP3    H268609   0.896   1.822  14.825 -0.3026  0.0689 -0.4517
15732TIP3   OH268610   1.035   4.537   2.270  0.2883  0.0860  0.3060
15732TIP3    H168611   0.989   4.589   2.337 -0.0159 -1.2620  1.1954
15732TIP3    H268612   1.084   4.601   2.219 -0.3398  1.2735  1.1443
15733TIP3   OH268613   5.554   5.419   6.423 -0.5116  0.0325  0.4723
15733TIP3    H168614   5.459   5.403   6.428 -0.5125 -0.3054 -0.3939
15733TIP3    H268615   5.560   5.510   6.394 -0.5487  0.3790  1.5080
15734TIP3   OH268616   4.278   5.045  16.390  0.4660 -0.6203  0.4272
15734TIP3    H168617   4.309   5.025  16.478 -0.2315  1.6711  1.2679
15734TIP3    H268618   4.225   4.969  16.366  0.3380 -1.1253  2.1492
15735TIP3   OH268619   5.793   2.380  11.587  0.3201  0.7005  0.1296
15735TIP3    H168620   5.719   2.320  11.600  0.2724  0.8228  0.4438
15735TIP3    H268621   5.753   2.468  11.592  0.8058  0.8587  2.7457
15736TIP3   OH268622   0.484   3.307  12.736 -0.0998  0.1190  0.1451
15736TIP3    H168623   0.477   3.329  12.829 -0.4113  0.1664  0.1116
15736TIP3    H268624   0.421   3.235  12.724  0.5783 -0.4932  0.1579
15737TIP3   OH268625   0.310   5.227   2.031 -0.1895 -0.3384 -0.1415
15737TIP3    H168626   0.356   5.152   1.992 -1.8791 -1.2034 -0.5824
15737TIP3    H268627   0.238   5.187   2.080  0.8301  0.8290  2.4859
15738TIP3   OH268628   0.281   5.609   4.450 -0.0508 -0.1312  0.0448
15738TIP3    H168629   0.194   5.648   4.442  0.4198  1.2474  1.3587
15738TIP3    H268630   0.341   5.678   4.423  0.6845 -0.9193 -0.3965
15739TIP3   OH268631   2.859   2.586   4.882  0.2603  0.2194 -0.6839
15739TIP3    H168632   2.870   2.617   4.792 -0.0352  0.9463 -0.4778
15739TIP3    H268633   2.863   2.666   4.935 -2.4143  0.1689 -0.2775
15740TIP3   OH268634   5.254   5.067   1.874  0.5349  0.1512  0.0602
15740TIP3    H168635   5.276   5.147   1.825 -1.2538  0.0147 -1.0431
15740TIP3    H268636   5.219   5.099   1.957  2.7222  0.3987  0.9771
15741TIP3   OH268637   4.985   0.878   5.255 -0.4915  0.3373  0.0474
15741TIP3    H168638   4.937   0.943   5.202 -1.6532  0.5457  1.2991
15741TIP3    H268639   5.065   0.923   5.281 -1.4043  1.4112  1.1173
15742TIP3   OH268640   3.051   0.733  16.285 -0.2160 -0.3361 -0.5346
15742TIP3    H168641   3.036   0.736  16.190 -1.5689  1.3553 -0.3064
15742TIP3    H268642   3.057   0.825  16.311 -0.5203 -0.7618  1.1273
15743TIP3   OH268643   2.645   3.068   2.591  0.0695 -0.1486 -0.0122
15743TIP3    H168644   2.642   3.054   2.686  1.9390 -1.1932 -0.0540
15743TIP3    H268645   2.596   2.994   2.555 -1.1402  0.5621  0.1322
15744TIP3   OH268646   6.517   2.613  13.275 -0.1059 -0.5648 -0.5461
15744TIP3    H168647   6.551   2.550  13.338 -1.1665 -0.4890  0.1368
15744TIP3    H268648   6.423   2.593  13.270  0.0921 -1.1363 -2.7739
15745TIP3   OH268649   3.759   5.345   5.417  0.1169  0.1411  0.5493
15745TIP3    H168650   3.710   5.392   5.484 -0.9983 -0.3433  0.0966
15745TIP3    H268651   3.797   5.270   5.462  0.2101  0.3632  0.8424
15746TIP3   OH268652   4.179   4.992  14.847 -0.1450 -0.1474  0.3199
15746TIP3    H168653   4.231   5.041  14.910  0.4900  1.8010 -1.6016
15746TIP3    H268654   4.093   4.985  14.887  0.6163 -0.3047  2.0201
15747TIP3   OH268655   1.543   2.469   4.061  0.0225  0.0012 -0.0583
15747TIP3    H168656   1.538   2.562   4.040 -1.4304 -0.4342 -1.9188
15747TIP3    H268657   1.636   2.448   4.056  0.8180  1.8883  3.3793
15748TIP3   OH268658   1.731   5.117  16.359  0.9032 -0.0274  0.4232
15748TIP3    H168659   1.726   5.210  16.334 -1.1920 -0.1698  0.1223
15748TIP3    H268660   1.822   5.105  16.388  0.9894  2.3580  1.4140
15749TIP3   OH268661   0.321   3.858  11.260  0.3985 -0.1958  0.4983
15749TIP3    H168662   0.404   3.835  11.302  0.9452  0.1087 -0.3851
15749TIP3    H268663   0.344   3.872  11.168 -0.5951  0.1138  0.2865
15750TIP3   OH268664   0.497   3.820  12.779  0.2410  0.6626 -0.3001
15750TIP3    H168665   0.506   3.884  12.708 -1.5240  0.8075 -0.4242
15750TIP3    H268666   0.507   3.735  12.735  0.4965  0.7876 -0.4870
15751TIP3   OH268667   5.031   3.660   4.756 -0.3029 -0.0118 -0.0739
15751TIP3    H168668   4.965   3.712   4.709 -2.4105 -2.0046  0.4849
15751TIP3    H268669   5.072   3.607   4.688 -0.2091  0.2863 -0.2515
15752TIP3   OH268670   6.177   4.056   1.211  0.3398 -0.3085 -0.0065
15752TIP3    H168671   6.241   4.052   1.281  0.0160 -0.9305  0.2560
15752TIP3    H268672   6.153   4.149   1.205  1.4794 -0.0185 -0.3157
15753TIP3   OH268673   5.275   3.314  12.158  0.6645 -0.3132 -0.0468
15753TIP3    H168674   5.217   3.242  12.179  0.2737 -0.4598 -1.5151
15753TIP3    H268675   5.219   3.379  12.115  1.5725 -0.5321 -1.6458
15754TIP3   OH268676   6.660   5.559  13.554 -0.0240  0.3275 -0.2214
15754TIP3    H168677   6.572   5.521  13.546 -0.3576  0.7910  1.0381
15754TIP3    H268678   6.682   5.551  13.647  2.0803 -1.4898 -0.7849
15755TIP3   OH268679   0.493   1.485  13.856 -0.8090  0.3779 -0.5236
15755TIP3    H168680   0.519   1.532  13.935 -0.5414  1.3781 -1.1942
15755TIP3    H268681   0.398   1.476  13.864 -0.8182  0.7368 -0.2292
15756TIP3   OH268682   0.885   3.921   1.919 -0.9570 -0.3984  0.0626
15756TIP3    H168683   0.866   3.940   2.011 -1.2732  0.1985 -0.1160
15756TIP3    H268684   0.806   3.948   1.873 -0.7854 -0.6599 -0.3882
15757TIP3   OH268685   5.689   4.129  12.656  0.4090  0.3746 -0.6908
15757TIP3    H168686   5.761   4.087  12.703  0.7376  0.3687 -1.1950
15757TIP3    H268687   5.610   4.086  12.689  0.5231  1.1530  0.7182
15758TIP3   OH268688   1.135   2.861  16.990 -0.3122  0.0694 -0.4522
15758TIP3    H168689   1.065   2.838  17.051  0.4118 -0.6762  0.1102
15758TIP3    H268690   1.089   2.901  16.915 -1.2673  0.2758  0.2258
15759TIP3   OH268691   2.826   3.502  12.552  0.3770  0.3386 -0.3059
15759TIP3    H168692   2.841   3.408  12.560  0.5555  0.3714 -0.2401
15759TIP3    H268693   2.857   3.524  12.464  1.8964  0.6189  0.2612
15760TIP3   OH268694   6.013   1.496   0.388  0.0963  0.4212  0.3383
15760TIP3    H168695   5.976   1.408   0.383  1.5311 -0.6268  4.2443
15760TIP3    H268696   6.010   1.517   0.482  4.4360  2.3611  0.2812
15761TIP3   OH268697   5.900   3.586   5.672 -0.1577  0.4027  0.5883
15761TIP3    H168698   5.856   3.624   5.748  0.7079  2.2686  0.2043
15761TIP3    H268699   5.982   3.636   5.664  0.6039 -0.9514 -0.5149
15762TIP3   OH268700   2.812   3.282  14.317  0.3780 -0.3621  0.1495
15762TIP3    H168701   2.765   3.199  14.322 -2.0918  0.8939 -0.4354
15762TIP3    H268702   2.780   3.332  14.392  1.8823  0.0542  0.5359
15763TIP3   OH268703   6.205   0.507   1.053 -0.2995  0.4364  0.6237
15763TIP3    H168704   6.168   0.591   1.082 -3.1376 -0.8947  1.2481
15763TIP3    H268705   6.164   0.491   0.968 -1.1853 -1.0595  1.2914
15764TIP3   OH268706   6.739   3.841  13.118 -0.4268 -0.2223 -0.3998
15764TIP3    H168707   6.693   3.813  13.038 -0.4053  1.7028 -1.1313
15764TIP3    H268708   6.830   3.849  13.091 -0.8524  3.5655 -1.1752
15765TIP3   OH268709   0.779   5.281   2.861  1.1142 -0.0708  0.2344
15765TIP3    H168710   0.825   5.236   2.790 -0.0334 -1.8014  0.5336
15765TIP3    H268711   0.791   5.374   2.841  3.0367 -0.4730 -0.7586
15766TIP3   OH268712   2.882   1.079  15.371  0.0986  0.1856 -0.2992
15766TIP3    H168713   2.930   1.080  15.453  1.3870 -0.4378 -1.0198
15766TIP3    H268714   2.862   0.987  15.356  0.6559  0.1886 -1.1151
15767TIP3   OH268715   0.444   2.355  14.973 -0.0644  0.3887  0.1164
15767TIP3    H168716   0.496   2.430  15.001  1.0321 -0.0927 -0.5652
15767TIP3    H268717   0.508   2.290  14.945 -0.8966 -1.5195  2.3055
15768TIP3   OH268718   0.374   0.018  14.997 -0.5752  0.4310 -0.3804
15768TIP3    H168719   0.393  -0.059  14.944 -0.5896  1.0039 -1.2341
15768TIP3    H268720   0.384  -0.012  15.087 -0.7296 -0.6072 -0.6937
15769TIP3   OH268721   4.967   0.785  12.811  0.1561 -0.5921 -0.3861
15769TIP3    H168722   4.897   0.735  12.855  1.0158 -0.5538  1.0878
15769TIP3    H268723   5.039   0.785  12.874  0.1208  2.7740 -0.1644
15770TIP3   OH268724   2.052   2.824  14.002 -0.1064  0.1747  0.1733
15770TIP3    H168725   2.102   2.902  13.979  0.7352 -0.5311 -0.4449
15770TIP3    H268726   1.981   2.857  14.058  0.0202  1.4196 -0.3678
15771TIP3   OH268727   2.952   4.979   4.243  0.6335 -0.6114  0.0427
15771TIP3    H168728   2.909   4.904   4.284 -0.3846 -0.0225  0.0904
15771TIP3    H268729   2.898   4.998   4.166  1.7910 -0.8969 -0.8633
15772TIP3   OH268730   0.723   1.334   3.002 -0.1413 -0.1304 -0.3095
15772TIP3    H168731   0.780   1.349   2.926  0.0707 -2.5884 -0.7309
15772TIP3    H268732   0.756   1.253   3.040 -0.7097  0.6735  2.0254
15773TIP3   OH268733   6.082   1.863   4.302  0.5390 -0.0338  0.3376
15773TIP3    H168734   6.083   1.877   4.207 -0.4350 -1.6446  0.0530
15773TIP3    H268735   6.128   1.781   4.316 -0.3146 -0.4068  1.1231
15774TIP3   OH268736   5.314   5.149  12.424 -0.3584  0.1826  0.5994
15774TIP3    H168737   5.385   5.100  12.466 -0.0301  0.2646  0.1493
15774TIP3    H268738   5.241   5.141  12.484 -0.5626 -1.5294  0.1850
15775TIP3   OH268739   5.132   0.200   1.598  0.1317  0.3429 -0.0914
15775TIP3    H168740   5.150   0.243   1.682  0.5160  0.9734 -0.4948
15775TIP3    H268741   5.157   0.264   1.532  0.1110 -0.2643 -0.6963
15776TIP3   OH268742   0.893   3.773   1.392 -0.3869  0.1635 -0.5833
15776TIP3    H168743   0.961   3.772   1.459  0.4433  0.5386 -1.3795
15776TIP3    H268744   0.848   3.856   1.405  0.2542  0.5825 -0.9191
15777TIP3   OH268745   0.242   6.064   5.101 -0.2201  0.0135 -0.0467
15777TIP3    H168746   0.239   5.969   5.092  2.3308  0.0126 -2.3002
15777TIP3    H268747   0.288   6.079   5.183  1.1496 -0.8027 -0.6232
15778TIP3   OH268748   1.306   4.416  11.687  0.5177  0.2266  0.3198
15778TIP3    H168749   1.229   4.360  11.694 -0.0995  1.0355  0.2113
15778TIP3    H268750   1.325   4.419  11.594  1.6876 -1.2594  0.4650
15779TIP3   OH268751   4.046   4.260   0.063 -0.5045 -0.4329  0.0228
15779TIP3    H168752   4.087   4.343   0.086  0.0520 -0.2165 -1.6530
15779TIP3    H268753   4.027   4.219   0.148 -0.2501  1.1175  0.8721
15780TIP3   OH268754   6.727   0.647  12.857  0.3036 -0.2043 -0.5145
15780TIP3    H168755   6.754   0.636  12.766  1.4306  0.6420 -0.3097
15780TIP3    H268756   6.713   0.741  12.867 -1.7583 -0.4749 -0.3062
15781TIP3   OH268757   2.537   6.546  12.493 -0.5530 -0.3874 -0.1831
15781TIP3    H168758   2.526   6.452  12.503  1.2627 -0.7505 -1.2353
15781TIP3    H268759   2.485   6.583  12.564  0.6006 -2.2807  1.7808
15782TIP3   OH268760   2.782   6.349  12.372 -0.6115 -0.1692  0.0001
15782TIP3    H168761   2.851   6.301  12.327 -0.7230  0.6799 -1.0995
15782TIP3    H268762   2.827   6.421  12.417 -0.8264  0.7972 -1.2818
15783TIP3   OH268763   1.945   6.066   1.987 -0.5013 -0.0189  0.3415
15783TIP3    H168764   1.934   5.974   2.009  1.3662  0.1067  2.1277
15783TIP3    H268765   1.940   6.112   2.071  0.0590  1.3505 -0.3271
15784TIP3   OH268766   4.122   1.752   4.926  0.2890 -0.6347 -0.2095
15784TIP3    H168767   4.051   1.780   4.868  0.4923 -1.6684 -0.9909
15784TIP3    H268768   4.123   1.817   4.996 -0.3929  0.2909 -1.0248
15785TIP3   OH268769   2.918   0.696  14.296 -0.2086 -0.5892 -0.1946
15785TIP3    H168770   2.992   0.651  14.337  1.9631  0.5902 -2.5416
15785TIP3    H268771   2.925   0.675  14.203 -4.6517 -2.7626 -0.2932
15786TIP3   OH268772   5.044   0.398   2.886 -0.1445  0.1745  0.2461
15786TIP3    H168773   4.991   0.318   2.888  0.1080  0.0054  0.1301
15786TIP3    H268774   5.002   0.455   2.951 -0.2933 -0.0709  0.3678
15787TIP3   OH268775   3.476   4.300   3.064  0.0378  0.4367  0.2471
15787TIP3    H168776   3.447   4.258   3.145  2.2485 -0.8797  0.4548
15787TIP3    H268777   3.436   4.248   2.995 -0.0133  0.0997  0.5234
15788TIP3   OH268778   6.683   6.749   4.066  0.3637 -0.1370 -0.5229
15788TIP3    H168779   6.720   6.795   4.141  0.9205 -0.1305 -0.7920
15788TIP3    H268780   6.721   6.794   3.990 -0.2571 -0.0919 -0.8084
15789TIP3   OH268781   2.413   3.108   2.189 -0.2222  0.1071  0.1730
15789TIP3    H168782   2.447   3.025   2.156 -0.9820 -0.9465  1.8993
15789TIP3    H268783   2.474   3.174   2.157  0.1995 -1.0620 -1.5393
15790TIP3   OH268784   4.880   4.963  14.190 -0.0214  0.6599 -0.1325
15790TIP3    H168785   4.923   5.043  14.161  0.9396  0.0246 -0.4961
15790TIP3    H268786   4.909   4.951  14.280  0.7154  0.1530 -0.4240
15791TIP3   OH268787   3.735   1.799  13.495  0.0386  0.1439  0.6011
15791TIP3    H168788   3.659   1.847  13.527  1.4101  1.9411  1.3479
15791TIP3    H268789   3.743   1.826  13.403  1.0537  1.8384  1.1242
15792TIP3   OH268790   0.810   2.875  16.905  0.2627 -0.3092 -0.0137
15792TIP3    H168791   0.824   2.788  16.868 -1.9468 -1.4283  1.5597
15792TIP3    H268792   0.751   2.918  16.843  0.4901 -0.3472 -0.2541
15793TIP3   OH268793   6.002   6.580   0.971 -0.2366  0.9578 -0.0703
15793TIP3    H168794   6.017   6.516   1.040  2.2142 -1.9981 -2.9917
15793TIP3    H268795   6.078   6.638   0.975  1.3300 -0.8177 -1.6561
15794TIP3   OH268796   4.964   1.019  10.906 -0.4075  0.4915 -0.2111
15794TIP3    H168797   5.018   1.075  10.850 -0.1029  0.5450  0.1331
15794TIP3    H268798   5.017   0.940  10.919 -0.5444  0.4141 -0.1265
15795TIP3   OH268799   0.704   0.538  16.092  0.5854 -0.2781  0.0591
15795TIP3    H168800   0.680   0.549  16.000  0.6340 -0.4920  0.0213
15795TIP3    H268801   0.762   0.462  16.092  1.8275  0.6285  0.0435
15796TIP3   OH268802   6.175   5.035  16.847  0.6349  0.4756 -0.2256
15796TIP3    H168803   6.124   4.996  16.917 -0.5258 -0.6245 -1.6215
15796TIP3    H268804   6.200   5.122  16.880 -0.9216  0.4760  1.0483
15797TIP3   OH268805   4.091   1.456   3.465 -0.3739  0.3906 -0.5449
15797TIP3    H168806   4.110   1.365   3.439  1.8534  0.4078  0.7582
15797TIP3    H268807   4.022   1.448   3.532  0.2792 -0.4276  0.0568
15798TIP3   OH268808   5.331   1.830   4.512  0.0511  0.1776  0.5081
15798TIP3    H168809   5.338   1.844   4.606 -2.9289  2.6226  0.5324
15798TIP3    H268810   5.241   1.798   4.499  0.6140 -0.7671 -1.4753
15799TIP3   OH268811   2.838   3.193  16.766  0.5850 -0.1942  0.6989
15799TIP3    H168812   2.745   3.214  16.764  0.2601 -1.5420 -0.5061
15799TIP3    H268813   2.851   3.135  16.691  2.5232  0.4236  0.4902
15800TIP3   OH268814   4.430   1.740   4.112 -0.0576  0.2043 -0.4698
15800TIP3    H168815   4.389   1.827   4.111  1.3615  0.8956 -1.6586
15800TIP3    H268816   4.464   1.728   4.024 -2.2278 -2.6035 -1.0693
15801TIP3   OH268817   4.797   0.034  13.754  0.7036  1.1088 -0.0906
15801TIP3    H168818   4.740   0.073  13.820  0.3870  0.0495  0.2871
15801TIP3    H268819   4.742  -0.033  13.713  1.4387  0.5917 -0.2503
15802TIP3   OH268820   3.237   1.890   1.552 -0.4340  0.2424  0.4066
15802TIP3    H168821   3.317   1.907   1.502 -1.2527  0.1239 -1.0114
15802TIP3    H268822   3.166   1.907   1.490 -1.4815 -0.7195  1.2900
15803TIP3   OH268823   5.949   5.594  13.238  0.3045 -0.7550 -0.3692
15803TIP3    H168824   5.895   5.642  13.176  0.0078 -1.1036 -0.3856
15803TIP3    H268825   5.909   5.612  13.324  1.2462  0.4533 -0.1641
15804TIP3   OH268826   3.410   0.628   0.755 -0.3048 -0.0921  0.3706
15804TIP3    H168827   3.485   0.570   0.768 -0.7633 -1.2472 -1.6992
15804TIP3    H268828   3.439   0.692   0.690 -0.9271 -0.2380 -0.0674
15805TIP3   OH268829   4.593   1.997  11.695 -0.2033  0.2204  0.1743
15805TIP3    H168830   4.566   1.956  11.777  1.7271 -2.2463 -0.3093
15805TIP3    H268831   4.626   2.083  11.721  1.5657 -0.9981  2.2127
15806TIP3   OH268832   1.015   3.551   4.702 -0.8983  0.1604  0.2151
15806TIP3    H168833   0.995   3.533   4.610 -1.1617  1.0937  0.0847
15806TIP3    H268834   1.049   3.640   4.703 -0.1863 -0.1082  0.9308
15807TIP3   OH268835   1.960   0.375   2.677 -0.3146 -0.1270 -0.7743
15807TIP3    H168836   1.975   0.462   2.640  1.3691 -0.7193 -1.5690
15807TIP3    H268837   1.886   0.340   2.626 -0.3110  0.4210 -1.1697
15808TIP3   OH268838   4.039   5.494  17.247  0.4150  0.1964  0.1246
15808TIP3    H168839   4.071   5.528  17.164 -1.9123  2.2278 -0.0392
15808TIP3    H268840   3.982   5.421  17.222 -0.6538  1.1020 -0.1293
15809TIP3   OH268841   3.622   0.114   5.215 -0.1333 -0.5699 -0.1925
15809TIP3    H168842   3.545   0.112   5.272 -0.2881  1.0195 -0.2960
15809TIP3    H268843   3.588   0.088   5.129 -0.5541  0.0198 -0.2147
15810TIP3   OH268844   4.277   0.009  15.272  0.1643  0.3790 -0.6421
15810TIP3    H168845   4.187   0.013  15.304 -0.1490  1.0790 -1.5603
15810TIP3    H268846   4.310  -0.075  15.304 -0.4811  0.5446  0.5308
15811TIP3   OH268847   4.756   5.014   3.815 -0.5313 -0.4546 -0.0417
15811TIP3    H168848   4.740   5.050   3.902  0.1340  2.6222 -1.0575
15811TIP3    H268849   4.830   4.954   3.826 -1.3003 -1.1471  1.6816
15812TIP3   OH268850   3.960   3.743   0.505 -0.0879  0.2254  0.2243
15812TIP3    H168851   3.949   3.657   0.464  0.5166 -0.2374  0.9926
15812TIP3    H268852   4.053   3.746   0.528 -0.3861  0.4932  1.4631
15813TIP3   OH268853   2.010   1.124  15.204  0.4690 -0.0884  0.1223
15813TIP3    H168854   1.987   1.215  15.223 -2.1709 -0.8030  0.6790
15813TIP3    H268855   2.043   1.126  15.114 -0.5208  1.2747 -0.2409
15814TIP3   OH268856   4.036   1.102   5.325  0.5992 -0.7239 -0.1426
15814TIP3    H168857   4.071   1.082   5.411  2.0244 -0.4493 -0.6276
15814TIP3    H268858   4.018   1.196   5.328 -0.5617 -0.9387  0.2432
15815TIP3   OH268859   3.440   4.893  15.494 -0.0630  0.4249  0.0033
15815TIP3    H168860   3.465   4.954  15.563 -0.0154 -0.4935  0.8085
15815TIP3    H268861   3.494   4.816  15.510 -1.4767 -0.5634  0.1483
15816TIP3   OH268862   2.377   3.562  14.161 -0.0428  0.3484 -0.5201
15816TIP3    H168863   2.293   3.550  14.117 -0.4468  0.9288  0.0600
15816TIP3    H268864   2.357   3.619  14.236  1.0155  1.2098 -0.8581
15817TIP3   OH268865   5.937   5.743  17.158 -0.4486 -0.3087  0.4117
15817TIP3    H168866   6.002   5.684  17.120  0.7954  1.6231 -0.6256
15817TIP3    H268867   5.966   5.756  17.248 -0.6566 -1.1478  0.6062
15818TIP3   OH268868   0.855   3.331  16.414 -0.2507 -0.4136  0.1788
15818TIP3    H168869   0.939   3.325  16.369  0.3152 -0.4737  1.2023
15818TIP3    H268870   0.852   3.254  16.471  0.2329  0.9579  2.1468
15819TIP3   OH268871   1.851   5.095   4.678  0.3374 -0.5043  0.2867
15819TIP3    H168872   1.899   5.136   4.606  1.3352 -0.6092  0.8747
15819TIP3    H268873   1.767   5.068   4.640  0.6948 -0.1980 -0.7255
15820TIP3   OH268874   2.911   3.569  14.910  0.1809  0.1075 -0.3038
15820TIP3    H168875   2.933   3.594  14.999 -2.7359  1.2714  0.2058
15820TIP3    H268876   2.856   3.492  14.919 -1.2724  1.0286 -0.9303
15821TIP3   OH268877   1.827   5.556  14.755 -0.2821 -0.1492 -0.1694
15821TIP3    H168878   1.752   5.578  14.699  0.0500 -0.2761 -0.6748
15821TIP3    H268879   1.898   5.610  14.721 -0.4059  0.8014  1.0112
15822TIP3   OH268880   0.441   5.045  14.046 -0.2527  0.5570 -0.0454
15822TIP3    H168881   0.388   4.991  13.987  0.2004 -1.2657  1.1326
15822TIP3    H268882   0.523   5.059  13.999 -0.4789  0.4406 -0.4756
15823TIP3   OH268883   0.017   1.378   5.414 -0.4426 -0.4512 -0.3859
15823TIP3    H168884   0.045   1.422   5.334 -2.4303  3.0732  0.6365
15823TIP3    H268885   0.079   1.408   5.481 -0.7583 -0.6944  0.0244
15824TIP3   OH268886   3.700   0.656  14.275  0.6518  0.1948  0.1171
15824TIP3    H168887   3.705   0.633  14.367  0.9321 -0.4305 -0.0451
15824TIP3    H268888   3.699   0.571  14.229  1.1063  0.5000 -0.4747
15825TIP3   OH268889   6.181   6.379   1.094  0.1919 -0.1421 -0.8434
15825TIP3    H168890   6.232   6.405   1.017  0.5696 -0.3073 -0.6524
15825TIP3    H268891   6.210   6.438   1.163  3.9342 -3.2912  0.6759
15826TIP3   OH268892   0.431   1.635  12.778  0.2930  0.4250  0.1752
15826TIP3    H168893   0.474   1.563  12.823 -0.1019  0.0657 -0.0141
15826TIP3    H268894   0.355   1.595  12.735 -0.5352  1.1373  0.9296
15827TIP3   OH268895   4.232   3.185   2.149 -0.3748  0.6167 -0.9378
15827TIP3    H168896   4.326   3.197   2.137  0.0194 -0.7974  0.3016
15827TIP3    H268897   4.214   3.099   2.111 -0.8881  0.2854  0.0242
15828TIP3   OH268898   3.379   1.670  15.054  0.4052 -0.1634  0.0723
15828TIP3    H168899   3.339   1.726  15.120  0.2800 -1.4362  1.1266
15828TIP3    H268900   3.369   1.718  14.972  1.8838  2.1252  1.1526
15829TIP3   OH268901   0.100   5.068  14.121  0.0924 -0.4508  0.1442
15829TIP3    H168902   0.137   5.109  14.199  1.3379 -0.4895 -0.3904
15829TIP3    H268903   0.141   4.982  14.118  0.8410 -0.0843 -1.0594
15830TIP3   OH268904   4.635   0.210   5.635  0.5249  0.4346 -0.2131
15830TIP3    H168905   4.714   0.243   5.678 -0.8881  0.7261  2.3247
15830TIP3    H268906   4.610   0.133   5.685 -1.2177  0.7777 -0.4661
15831TIP3   OH268907   4.921   0.308   2.370 -0.2699 -0.0009  0.3874
15831TIP3    H168908   4.988   0.376   2.368  0.0850 -0.3509 -1.6170
15831TIP3    H268909   4.838   0.357   2.367 -0.0690  0.3642  0.5900
15832TIP3   OH268910   0.434   3.057   2.812  0.2492 -0.3166  0.7132
15832TIP3    H168911   0.381   3.072   2.734  0.7436 -1.9358  0.0248
15832TIP3    H268912   0.523   3.078   2.785  0.2961  0.0877  1.1590
15833TIP3   OH268913   5.116   0.193  16.219  0.3223 -0.2662  0.2656
15833TIP3    H168914   5.028   0.231  16.223  0.3811 -0.0857 -0.0824
15833TIP3    H268915   5.122   0.138  16.297 -0.1002 -0.2794  0.2931
15834TIP3   OH268916   1.812   5.798  15.023 -1.1074 -0.4650 -0.3352
15834TIP3    H168917   1.827   5.820  14.931 -2.7955  2.2120 -0.0509
15834TIP3    H268918   1.719   5.774  15.028 -0.7359 -1.8922  0.4953
15835TIP3   OH268919   0.815   4.945   6.009  0.1195  0.1818 -0.8816
15835TIP3    H168920   0.898   4.955   5.962  0.0742 -1.5257 -1.3910
15835TIP3    H268921   0.841   4.912   6.095  0.1119  2.1336 -0.0771
15836TIP3   OH268922   4.709   6.068   5.849 -0.3923  0.0807  0.8343
15836TIP3    H168923   4.710   5.984   5.803  0.4993 -0.6298  2.1013
15836TIP3    H268924   4.656   6.051   5.927 -0.2393  0.7160  1.0741
15837TIP3   OH268925   6.680   2.143   5.464 -0.0573 -0.5665  0.5579
15837TIP3    H168926   6.667   2.059   5.420 -0.7756 -0.5671  0.7616
15837TIP3    H268927   6.654   2.127   5.555  0.4631 -0.3019  0.7567
15838TIP3   OH268928   3.942   0.458   2.827  0.8383 -0.1334  0.6847
15838TIP3    H168929   3.951   0.386   2.765  2.3438  0.1538  0.5294
15838TIP3    H268930   3.871   0.431   2.885 -1.1392 -0.0857 -1.5699
15839TIP3   OH268931   1.356   1.508   4.254  0.3227 -0.3708 -0.1447
15839TIP3    H168932   1.383   1.570   4.321 -0.6135 -0.3548  0.2321
15839TIP3    H268933   1.435   1.458   4.234  0.3334 -1.3054  1.9673
15840TIP3   OH268934   5.451   1.890   4.045 -0.1393  0.3683 -0.0518
15840TIP3    H168935   5.500   1.816   4.008 -0.2554  1.3183 -2.2515
15840TIP3    H268936   5.491   1.905   4.131  0.6419 -1.5021 -0.0468
15841TIP3   OH268937   1.495   0.731  15.576 -0.4608 -0.4976  0.2245
15841TIP3    H168938   1.586   0.759  15.566 -0.6355  0.1904  0.5109
15841TIP3    H268939   1.497   0.637  15.559  0.2862 -0.4703  0.1232
15842TIP3   OH268940   3.965   1.008   1.242 -0.2572 -0.1664 -0.1118
15842TIP3    H168941   3.934   0.965   1.162 -0.2252 -2.1807  0.9040
15842TIP3    H268942   3.886   1.045   1.281 -0.2288  1.1219 -1.1863
15843TIP3   OH268943   2.451   6.240   0.859 -0.1223  0.6601  0.4132
15843TIP3    H168944   2.487   6.266   0.774 -1.7314  0.4704 -0.3466
15843TIP3    H268945   2.426   6.322   0.900 -0.3445  0.6738  0.2487
15844TIP3   OH268946   1.889   3.644  16.423  0.0484  0.2141 -0.1415
15844TIP3    H168947   1.805   3.669  16.461 -0.3817 -1.5823  0.1539
15844TIP3    H268948   1.950   3.639  16.497 -0.2032 -0.9259 -0.0026
15845TIP3   OH268949   1.190   0.864   5.021  0.2044 -0.0660 -0.0862
15845TIP3    H168950   1.264   0.807   5.042 -0.8998 -0.8834  1.7784
15845TIP3    H268951   1.218   0.911   4.942  2.7935 -0.1650  0.6911
15846TIP3   OH268952   6.178   4.133   2.060 -0.6257 -0.5101  0.4227
15846TIP3    H168953   6.234   4.135   2.137 -1.2582  0.0962  0.8772
15846TIP3    H268954   6.090   4.145   2.094 -0.8546  0.3817 -0.4411
15847TIP3   OH268955   0.739   4.194  15.427  0.1664 -0.5300 -0.5718
15847TIP3    H168956   0.798   4.269  15.434  0.6926 -0.9181 -0.7168
15847TIP3    H268957   0.761   4.139  15.502 -1.7934  0.5232  0.8417
15848TIP3   OH268958   1.101   1.615  11.405  0.0044 -0.3108  0.3976
15848TIP3    H168959   1.172   1.677  11.416  0.2991 -0.4418 -0.6443
15848TIP3    H268960   1.089   1.575  11.492  1.1417 -0.2395  0.5934
15849TIP3   OH268961   2.871   2.545  16.191 -0.1602 -0.0500 -0.2585
15849TIP3    H168962   2.937   2.612  16.174  0.1220 -0.3982 -0.5457
15849TIP3    H268963   2.918   2.462  16.185 -0.6885 -0.3204 -0.8050
15850TIP3   OH268964   3.204   1.968   4.406  0.2220 -0.5806  0.1364
15850TIP3    H168965   3.288   1.984   4.449 -0.1886 -0.4513  0.9109
15850TIP3    H268966   3.212   2.011   4.321  0.9820 -0.6827  0.1475
15851TIP3   OH268967   1.485   2.776  11.850 -0.1367  0.1913 -0.6933
15851TIP3    H168968   1.404   2.826  11.863 -0.8086 -0.5199 -1.9168
15851TIP3    H268969   1.465   2.717  11.777  0.6890 -1.6724  0.5056
15852TIP3   OH268970   5.906   3.692   1.946  0.2738  0.7807 -0.0201
15852TIP3    H168971   5.872   3.724   1.863  0.7142 -0.5286 -0.7332
15852TIP3    H268972   5.843   3.625   1.973  1.6949 -0.9771 -0.8745
15853TIP3   OH268973   1.821   5.395   1.273  0.2109 -0.1616  0.2067
15853TIP3    H168974   1.909   5.388   1.237  1.3340  0.9294  2.5837
15853TIP3    H268975   1.776   5.455   1.213  1.5135  0.3621 -0.2837
15854TIP3   OH268976   0.305   5.940  16.155 -0.5266 -0.5040  0.1244
15854TIP3    H168977   0.219   5.978  16.175 -1.1629 -1.3469 -0.8797
15854TIP3    H268978   0.330   5.981  16.072  1.1404  1.4604  1.4991
15855TIP3   OH268979   2.529   3.007  10.985  0.3059  0.2115 -0.1957
15855TIP3    H168980   2.535   3.021  10.891  0.3294  1.5409 -0.0071
15855TIP3    H268981   2.544   2.913  10.996 -1.0361 -0.2251 -1.6341
15856TIP3   OH268982   3.567   2.036   0.464  0.3661 -0.5210 -0.0268
15856TIP3    H168983   3.614   1.954   0.484  1.2332  0.0826  0.4766
15856TIP3    H268984   3.525   2.019   0.379 -0.8345 -2.0521  0.8262
15857TIP3   OH268985   1.290   5.981   4.692 -0.0000  0.5702  0.6952
15857TIP3    H168986   1.378   6.019   4.700  0.6131 -0.4847 -0.6237
15857TIP3    H268987   1.249   6.029   4.620 -0.2163  0.5577  0.8100
15858TIP3   OH268988   0.290   1.067   2.366 -0.0539 -0.0288  0.1628
15858TIP3    H168989   0.268   1.083   2.274 -1.5942 -0.7593  0.3873
15858TIP3    H268990   0.344   1.142   2.391 -0.1610  0.5036 -1.1515
15859TIP3   OH268991   4.132   3.708   2.762  0.7275 -0.0112 -0.2086
15859TIP3    H168992   4.045   3.692   2.799  0.2527  1.0235 -0.8339
15859TIP3    H268993   4.192   3.675   2.829 -0.1339 -1.1917  0.0236
15860TIP3   OH268994   1.546   4.101  12.744  0.1074  0.1383  0.2143
15860TIP3    H168995   1.583   4.127  12.828  2.8364 -2.2459 -0.0918
15860TIP3    H268996   1.542   4.182  12.693  1.4064  1.1160  1.5932
15861TIP3   OH268997   5.774   5.947   5.125  0.0798  0.4565  0.1119
15861TIP3    H168998   5.781   5.923   5.218 -1.9263 -0.3650  0.0990
15861TIP3    H268999   5.701   6.009   5.121  0.7218  1.1788 -0.8147
15862TIP3   OH269000   1.703   0.278  15.519 -0.4365 -0.0610 -0.0459
15862TIP3    H169001   1.684   0.230  15.600  1.4201 -0.3250  0.2861
15862TIP3    H269002   1.717   0.209  15.453 -1.4174  0.1407 -0.4781
15863TIP3   OH269003   4.382   5.935   5.192  0.0790 -0.1435 -0.3518
15863TIP3    H169004   4.388   5.871   5.264  0.5806  0.7362  0.4060
15863TIP3    H269005   4.416   6.016   5.229 -0.7267  0.6256 -1.2406
15864TIP3   OH269006   6.530   4.606  14.063  0.4859 -0.4053  0.5203
15864TIP3    H169007   6.584   4.537  14.025  0.1500  0.5649 -1.9196
15864TIP3    H269008   6.592   4.662  14.110  1.2979 -0.4787 -0.4304
15865TIP3   OH269009   0.358   5.722   5.166 -0.0917  0.0698 -0.2653
15865TIP3    H169010   0.275   5.725   5.118  0.4518  0.1646 -1.2333
15865TIP3    H269011   0.423   5.704   5.098  0.7468  0.5987  0.3925
15866TIP3   OH269012   4.258   3.435  16.567 -0.0345  0.1570 -0.4318
15866TIP3    H169013   4.248   3.527  16.591  2.2045  0.1463  0.7735
15866TIP3    H269014   4.213   3.428  16.483  0.4822  2.5526 -0.9876
15867TIP3   OH269015   3.452   0.162  11.534 -0.1573  0.0886  0.0584
15867TIP3    H169016   3.422   0.179  11.444 -0.6894 -0.7048  0.0696
15867TIP3    H269017   3.529   0.106  11.523 -0.0616  0.2139  0.0918
15868TIP3   OH269018   4.587   2.774   3.942 -0.8232  0.2504 -0.0906
15868TIP3    H169019   4.528   2.699   3.935 -0.8936  0.3761 -1.1194
15868TIP3    H269020   4.595   2.790   4.036  0.3346 -1.9210  0.2351
15869TIP3   OH269021   5.393   0.026   5.436  0.0782 -0.4375 -0.3748
15869TIP3    H169022   5.303   0.019   5.405  0.4384  0.6417 -1.7243
15869TIP3    H269023   5.430   0.099   5.388  1.8703 -1.2300 -0.2856
15870TIP3   OH269024   3.167   6.462  17.419  0.5872  0.3973 -0.5207
15870TIP3    H169025   3.191   6.509  17.339 -0.1609  0.4789 -0.7054
15870TIP3    H269026   3.107   6.521  17.464  1.5163  0.6385  0.4346
15871TIP3   OH269027   3.608   1.108  10.612  0.6086  0.0696  0.3287
15871TIP3    H169028   3.622   1.066  10.697  1.0023 -0.1863  0.1387
15871TIP3    H269029   3.695   1.119  10.576  0.4147 -0.2822 -0.2638
15872TIP3   OH269030   5.847   2.201  11.886 -0.0905 -0.0434 -0.2402
15872TIP3    H169031   5.817   2.291  11.872  0.9439  0.0311 -2.3854
15872TIP3    H269032   5.797   2.170  11.961 -0.9715  2.0858  0.1143
15873TIP3   OH269033   4.817   5.648  15.565  0.0208  0.8151 -0.1542
15873TIP3    H169034   4.832   5.560  15.531  0.8088 -0.1659  2.4279
15873TIP3    H269035   4.751   5.685  15.507 -1.8386 -2.2304 -0.2216
15874TIP3   OH269036   6.642   0.952  13.537 -0.8366 -0.4073 -0.4140
15874TIP3    H169037   6.546   0.954  13.543 -0.9881 -0.0507 -2.3283
15874TIP3    H269038   6.670   1.032  13.581 -1.6249  0.9313 -2.2406
15875TIP3   OH269039   0.954   1.733   4.411  0.6763  0.0549 -0.3454
15875TIP3    H169040   0.873   1.682   4.407  1.3878 -1.0886 -1.0419
15875TIP3    H269041   0.946   1.786   4.490 -1.5808  1.4360 -1.4068
15876TIP3   OH269042   6.470   4.009  16.108  0.4654  0.2430 -0.1294
15876TIP3    H169043   6.405   3.976  16.046 -0.0684 -1.0197  1.0634
15876TIP3    H269044   6.551   4.014  16.057 -0.3498  1.0135 -1.3993
15877TIP3   OH269045   1.134   3.211  17.023  0.1001  0.7789 -0.8364
15877TIP3    H169046   1.065   3.153  17.055  0.8026 -0.2614 -1.1344
15877TIP3    H269047   1.122   3.292  17.072 -1.7897  0.9041 -1.4171
15878TIP3   OH269048   6.244   1.657  16.095 -0.0727  0.3981 -0.0764
15878TIP3    H169049   6.211   1.594  16.031 -0.7733  0.3964  0.2876
15878TIP3    H269050   6.210   1.741  16.065  1.1633  0.6863 -0.7757
15879TIP3   OH269051   3.262   1.762  13.689 -0.4658  0.2780  0.7491
15879TIP3    H169052   3.274   1.823  13.615  0.0821 -1.2545 -0.4872
15879TIP3    H269053   3.291   1.811  13.765 -1.2105  1.9893 -0.0091
15880TIP3   OH269054   3.809   4.962  17.080 -0.5226 -0.5293 -0.2667
15880TIP3    H169055   3.816   4.944  17.174  1.2514  1.4342  0.0432
15880TIP3    H269056   3.894   4.934  17.044 -0.6023  0.1560 -1.0093
15881TIP3   OH269057   6.188   3.239  15.027  0.2505  0.0788  0.6223
15881TIP3    H169058   6.117   3.231  15.091 -0.4671  1.9731  0.1178
15881TIP3    H269059   6.268   3.227  15.078 -0.3740 -2.3874  1.1581
15882TIP3   OH269060   5.709   6.172  16.508  0.4692  0.3587 -0.0633
15882TIP3    H169061   5.761   6.108  16.557 -1.7326 -0.9334  0.7409
15882TIP3    H269062   5.745   6.170  16.420  1.0692 -1.3489  0.1802
15883TIP3   OH269063   0.168   0.588  11.613 -0.1025  0.6982  0.0236
15883TIP3    H169064   0.257   0.590  11.647 -0.0940  1.5589 -0.0456
15883TIP3    H269065   0.113   0.616  11.686 -0.3612 -0.0981  0.1550
15884TIP3   OH269066   0.351   6.000  11.200 -0.2169 -0.3543  0.4510
15884TIP3    H169067   0.358   5.957  11.115  0.9337 -0.5730  0.6500
15884TIP3    H269068   0.367   5.931  11.264 -2.6850 -0.5698  0.9456
15885TIP3   OH269069   0.926   0.900  12.959  0.4653  0.4139 -0.3734
15885TIP3    H169070   0.864   0.924  12.890  0.4975 -0.2305 -0.6281
15885TIP3    H269071   0.887   0.937  13.039 -1.3478 -1.7163 -0.1804
15886TIP3   OH269072   4.201   3.251   0.159  0.3526 -0.1838 -0.0761
15886TIP3    H169073   4.295   3.261   0.147  0.5407 -0.8120  0.7994
15886TIP3    H269074   4.162   3.312   0.096  1.3441  0.3331 -0.2036
15887TIP3   OH269075   0.904   2.795   0.771 -0.9518  0.5466 -0.2239
15887TIP3    H169076   0.825   2.848   0.774 -0.3990  1.4446 -0.8412
15887TIP3    H269077   0.941   2.813   0.684 -1.7858 -2.3987 -1.2859
15888TIP3   OH269078   2.805   6.715  14.777  0.3841 -0.2294  0.4098
15888TIP3    H169079   2.765   6.635  14.742 -0.5075  1.1924 -2.1306
15888TIP3    H269080   2.737   6.754  14.831  0.7217 -1.0199  1.4268
15889TIP3   OH269081   0.383   0.935   0.082  0.4436 -0.4206 -0.1813
15889TIP3    H169082   0.302   0.977   0.053 -0.0122 -1.5337 -0.6099
15889TIP3    H269083   0.421   0.996   0.145  0.8299  1.5514 -2.1826
15890TIP3   OH269084   5.596   2.575   3.180 -0.4024 -0.5774 -0.1854
15890TIP3    H169085   5.601   2.485   3.212 -2.1390 -1.0198 -1.0402
15890TIP3    H269086   5.539   2.570   3.103  0.6608  1.0346 -1.1419
15891TIP3   OH269087   0.211   1.382   2.369  0.0212 -0.0167  0.3439
15891TIP3    H169088   0.119   1.371   2.343 -0.2993  0.3697  1.2273
15891TIP3    H269089   0.258   1.313   2.324 -1.1147 -1.9327  1.8993
15892TIP3   OH269090   2.593   2.024  14.446 -0.6151  0.6422  0.2268
15892TIP3    H169091   2.575   2.016  14.540 -0.3643  3.1936  0.5847
15892TIP3    H269092   2.522   2.079  14.413  0.7659  2.0840 -0.4729
15893TIP3   OH269093   0.845   4.008   5.464 -0.2834 -0.5540 -0.1631
15893TIP3    H169094   0.767   4.053   5.430 -0.7361  1.8491  3.4587
15893TIP3    H269095   0.809   3.937   5.517 -0.0694  0.2261  1.0739
15894TIP3   OH269096   1.454   2.500  17.066 -0.6982 -0.0833  0.6126
15894TIP3    H169097   1.373   2.504  17.117 -0.0491  4.2927  1.7553
15894TIP3    H269098   1.518   2.548  17.120  2.3579 -2.2440 -0.8099
15895TIP3   OH269099   2.051   0.483  11.199  0.1058  0.1480  0.3464
15895TIP3    H169100   2.048   0.576  11.222 -1.8172  0.3408 -0.4445
15895TIP3    H269101   2.075   0.439  11.280 -0.8580  1.2227  1.2581
15896TIP3   OH269102   1.599   2.817   4.364 -0.0375 -0.4468 -0.0930
15896TIP3    H169103   1.571   2.903   4.334  0.0296 -0.8311 -1.3045
15896TIP3    H269104   1.692   2.827   4.384 -0.2476 -0.0076  0.7153
15897TIP3   OH269105   6.147   0.123   2.087 -0.1428  0.3335 -0.3821
15897TIP3    H169106   6.200   0.170   2.022 -1.7095  1.9249 -0.5963
15897TIP3    H269107   6.140   0.034   2.053  0.8815  0.5603 -1.2456
15898TIP3   OH269108   0.869   5.949  13.257  0.3515  0.8268 -0.0011
15898TIP3    H169109   0.784   5.929  13.296 -0.2941 -2.0944 -2.4908
15898TIP3    H269110   0.922   5.871  13.274  1.5497  1.3924 -0.9946
15899TIP3   OH269111   5.005   1.995  15.014 -0.0042  0.2942 -0.5080
15899TIP3    H169112   5.018   1.935  15.087  0.9307  0.9321 -0.1290
15899TIP3    H269113   5.092   2.006  14.976 -0.5718 -0.5700 -2.1716
15900TIP3   OH269114   0.612   6.166   4.382 -0.2328 -0.2388  0.1102
15900TIP3    H169115   0.635   6.259   4.371 -0.9136  0.0565  1.0956
15900TIP3    H269116   0.657   6.122   4.309  0.2099  0.8392 -0.2939
15901TIP3   OH269117   1.846   1.775   2.125 -0.4943 -0.0509  0.6651
15901TIP3    H169118   1.876   1.704   2.068  0.4398  1.2752 -0.5678
15901TIP3    H269119   1.792   1.731   2.191  2.6803 -2.4007  1.9927
15902TIP3   OH269120   5.988   0.086   0.404  0.1793  0.5706 -0.0746
15902TIP3    H169121   5.941   0.027   0.344  0.8364  0.6335 -0.6630
15902TIP3    H269122   6.039   0.028   0.460  0.5427  0.5655 -0.4114
15903TIP3   OH269123   2.068   4.195   3.544  0.0913 -0.5648  0.1005
15903TIP3    H169124   2.118   4.123   3.583  1.4513  0.4904  0.3830
15903TIP3    H269125   2.131   4.239   3.487 -0.7312  0.3715 -0.1018
15904TIP3   OH269126   6.373   3.863   4.021  0.3541  0.0854 -0.2231
15904TIP3    H169127   6.437   3.888   4.087  0.9706 -2.3854  0.2257
15904TIP3    H269128   6.413   3.887   3.937  0.8662  0.5535  0.1500
15905TIP3   OH269129   6.629   5.792   5.727 -0.1018  0.5404 -0.1229
15905TIP3    H169130   6.626   5.753   5.815  0.6935 -0.1817 -0.4018
15905TIP3    H269131   6.721   5.812   5.713 -0.1374  0.1041 -1.0207
15906TIP3   OH269132   3.006   4.040   5.391 -0.3324  0.2453  0.4903
15906TIP3    H169133   3.073   3.978   5.422 -1.2682 -0.5531  0.9941
15906TIP3    H269134   3.052   4.123   5.383  0.6328 -0.1961  1.2072
15907TIP3   OH269135   3.849   3.063  17.074 -0.5248 -0.6275  0.0668
15907TIP3    H169136   3.782   2.996  17.058 -1.5161 -0.0253  1.4263
15907TIP3    H269137   3.828   3.097  17.161  0.7180  0.5817 -0.0670
15908TIP3   OH269138   3.313   1.766  16.363 -0.2226 -0.0036  0.0184
15908TIP3    H169139   3.307   1.812  16.446 -1.8171  0.8472 -0.5316
15908TIP3    H269140   3.238   1.797  16.312 -1.0804 -2.8024 -0.5971
15909TIP3   OH269141   0.747   5.918   4.659  0.1181  0.3543  0.2931
15909TIP3    H169142   0.774   5.992   4.712  1.0855  0.1790  0.0563
15909TIP3    H269143   0.813   5.851   4.676  0.7619  0.4764 -1.5240
15910TIP3   OH269144   3.573   3.935  11.933  0.1539 -0.1387  0.6601
15910TIP3    H169145   3.571   3.840  11.929 -2.0602 -0.1654  1.0348
15910TIP3    H269146   3.510   3.964  11.866  1.0599  1.0756  0.3023
15911TIP3   OH269147   2.538   3.647   0.212 -0.2847 -0.4363  0.4051
15911TIP3    H169148   2.626   3.610   0.210 -0.6332 -1.4060  1.6130
15911TIP3    H269149   2.542   3.713   0.281  0.1923  1.5137 -1.3867
15912TIP3   OH269150   1.324   0.063  16.037 -0.5679 -0.1213 -0.3160
15912TIP3    H169151   1.366   0.040  16.120 -0.4472 -1.0008 -0.6112
15912TIP3    H269152   1.386   0.122  15.994  0.1191 -0.9370 -0.4836
15913TIP3   OH269153   2.678   4.698   0.698 -0.3606 -0.1978  0.1209
15913TIP3    H169154   2.607   4.761   0.686  0.8937  0.9452 -1.9303
15913TIP3    H269155   2.754   4.752   0.719  0.0959 -1.3226  1.4719
15914TIP3   OH269156   2.262   6.506  17.162  0.2026  0.2174  0.0934
15914TIP3    H169157   2.184   6.561  17.165 -1.8622 -2.4882  0.2239
15914TIP3    H269158   2.297   6.517  17.074 -0.2683  1.5117  0.0541
15915TIP3   OH269159   2.788   2.693   1.627 -0.1123 -0.1386 -0.1888
15915TIP3    H169160   2.879   2.686   1.658 -0.1724  0.4636  0.1365
15915TIP3    H269161   2.744   2.743   1.695  0.0149  2.3132 -1.7721
15916TIP3   OH269162   1.588   0.752  14.023 -0.3052 -0.8176 -0.0454
15916TIP3    H169163   1.641   0.710  14.091  0.3594  0.3779  0.2079
15916TIP3    H269164   1.640   0.743  13.944  0.6148  0.8771  0.3166
15917TIP3   OH269165   0.657   5.969   0.975 -0.0638 -0.1550 -0.5922
15917TIP3    H169166   0.597   6.018   0.920  1.8947  0.4054 -2.3921
15917TIP3    H269167   0.642   5.878   0.953 -1.1633 -0.1244 -0.0031
15918TIP3   OH269168   1.763   2.229  13.681 -0.5750 -0.1643  0.8574
15918TIP3    H169169   1.785   2.142  13.649  1.0059  0.1502  0.9824
15918TIP3    H269170   1.716   2.270  13.608  0.7431 -0.3383 -0.1441
15919TIP3   OH269171   0.695   0.368  14.347 -0.5188  0.0892  0.1146
15919TIP3    H169172   0.626   0.432  14.365 -0.5364 -0.1467  0.9228
15919TIP3    H269173   0.682   0.300  14.414  0.2971 -0.1130  0.0689
15920TIP3   OH269174   1.894   6.013   3.843  0.5149  0.0072 -0.1922
15920TIP3    H169175   1.912   6.106   3.855 -0.5773 -0.0021  1.9532
15920TIP3    H269176   1.841   6.009   3.763  0.6276  1.2109 -0.3457
15921TIP3   OH269177   2.514   0.592   6.088 -0.1060  0.8447 -0.0156
15921TIP3    H169178   2.490   0.501   6.104 -0.3733  0.7523 -0.9241
15921TIP3    H269179   2.549   0.593   5.999 -0.9778  1.7851 -0.3728
15922TIP3   OH269180   4.108   1.094   0.892 -0.2490 -0.4695  0.2700
15922TIP3    H169181   4.147   1.113   0.977 -0.5131  3.1538 -0.2582
15922TIP3    H269182   4.039   1.030   0.910 -2.3420  2.3222  3.4565
15923TIP3   OH269183   1.644   6.313   5.782 -0.3673  0.4408  0.1102
15923TIP3    H169184   1.580   6.248   5.813 -2.1193  1.7670 -0.5390
15923TIP3    H269185   1.677   6.276   5.700 -0.6874 -0.0331  0.1882
15924TIP3   OH269186   0.191   0.461  14.804  0.1432  0.4329 -0.3510
15924TIP3    H169187   0.145   0.501  14.877  0.0233  0.9777 -0.7179
15924TIP3    H269188   0.239   0.388  14.843 -1.5917 -0.6102 -0.0830
15925TIP3   OH269189   3.075   2.181  15.853  0.2033  0.1513  0.0455
15925TIP3    H169190   3.127   2.251  15.894  1.7695 -0.9600  0.0522
15925TIP3    H269191   2.997   2.174  15.909  0.6511  0.9962  0.8121
15926TIP3   OH269192   3.029   1.471   5.826 -0.2935  0.3537  0.0765
15926TIP3    H169193   3.006   1.420   5.904 -0.4890  2.4976  1.5034
15926TIP3    H269194   2.946   1.482   5.780 -0.3824 -0.0135  0.1459
15927TIP3   OH269195   1.461   1.513   0.144 -0.8473  0.1276  0.2904
15927TIP3    H169196   1.528   1.575   0.113  0.2082 -1.3045 -0.4518
15927TIP3    H269197   1.415   1.487   0.064  0.2520 -1.7265  0.1938
15928TIP3   OH269198   1.156   5.863   6.032  0.0310  0.2210  0.5074
15928TIP3    H169199   1.108   5.793   5.987 -1.7037  0.3218  2.1145
15928TIP3    H269200   1.187   5.822   6.112  1.7951  0.4625 -0.0039
15929TIP3   OH269201   4.136   3.844   5.276 -0.0667 -0.2073  0.3618
15929TIP3    H169202   4.078   3.797   5.217 -0.1308 -0.3031  0.5010
15929TIP3    H269203   4.100   3.932   5.281 -0.1709 -0.2527  0.4084
15930TIP3   OH269204   5.406   4.044   6.103  0.3769 -0.3248  0.0506
15930TIP3    H169205   5.501   4.060   6.104  0.5825 -1.4042  1.8059
15930TIP3    H269206   5.393   3.971   6.162 -1.5694 -0.2997 -0.2678
15931TIP3   OH269207   5.055   5.121   4.509  0.9053  0.6410 -0.0541
15931TIP3    H169208   5.065   5.193   4.571  1.0135 -0.5972  1.4518
15931TIP3    H269209   4.962   5.121   4.487  0.3189 -0.4106  2.1384
15932TIP3   OH269210   0.577   4.400   2.838  0.6604 -0.2146 -0.6140
15932TIP3    H169211   0.650   4.399   2.777  0.5024 -2.1198 -0.8404
15932TIP3    H269212   0.499   4.399   2.782  0.4945 -0.2384 -0.3851
15933TIP3   OH269213   5.320   5.494   2.201 -0.0326  0.3068 -0.0135
15933TIP3    H169214   5.230   5.514   2.176  0.2966 -0.3318 -1.8732
15933TIP3    H269215   5.320   5.499   2.296 -2.0553  0.1892  0.0384
15934TIP3   OH269216   6.195   1.184  14.707 -0.3277 -0.4778  0.0539
15934TIP3    H169217   6.283   1.168  14.743 -0.2608 -1.3358 -0.4650
15934TIP3    H269218   6.208   1.184  14.612 -0.6679  0.7848 -0.0158
15935TIP3   OH269219   1.207   6.724   2.150  0.4113  0.2539 -0.0036
15935TIP3    H169220   1.227   6.631   2.137  2.7776  0.6574  0.3711
15935TIP3    H269221   1.126   6.724   2.201 -0.7269 -1.5369 -1.6470
15936TIP3   OH269222   4.837   0.467  15.278  0.4458  0.7772  0.3423
15936TIP3    H169223   4.792   0.551  15.274  0.2402  0.6365 -0.4084
15936TIP3    H269224   4.823   0.428  15.192 -0.0853 -0.3499  0.9242
15937TIP3   OH269225   4.805   2.356   2.983 -0.5446 -0.5408  0.3760
15937TIP3    H169226   4.735   2.361   2.917 -0.5612  1.0654  0.4810
15937TIP3    H269227   4.775   2.414   3.053  0.1893 -1.0503  1.1191
15938TIP3   OH269228   4.090   3.599  15.437  0.2822  0.0052  0.3488
15938TIP3    H169229   4.024   3.660  15.471 -0.4519 -1.2231  1.2040
15938TIP3    H269230   4.154   3.592  15.507  1.6160  1.5285 -0.6471
15939TIP3   OH269231   2.357   1.015   2.699  0.4043 -0.0773  0.5418
15939TIP3    H169232   2.294   0.992   2.631 -0.5587  0.5382  1.1861
15939TIP3    H269233   2.349   0.945   2.764 -0.9314  0.8707  1.4581
15940TIP3   OH269234   5.971   5.476  16.623 -1.0770  0.1800 -0.3375
15940TIP3    H169235   5.998   5.568  16.623  0.2096 -0.1367  1.8632
15940TIP3    H269236   5.904   5.471  16.691  1.1363 -1.0144  1.9119
15941TIP3   OH269237   0.019   1.786   3.491 -0.2656  0.3180 -0.4668
15941TIP3    H169238  -0.054   1.817   3.545 -0.1624 -1.8106  1.0362
15941TIP3    H269239  -0.001   1.694   3.474  0.5787  0.4789 -2.6858
15942TIP3   OH269240   0.913   5.697   4.787  0.3013  0.1192 -0.3644
15942TIP3    H169241   0.987   5.670   4.733  0.8461 -1.0764  0.8898
15942TIP3    H269242   0.854   5.622   4.785  0.1985  0.1650  0.4280
15943TIP3   OH269243   4.069   0.349  13.708  0.2500 -0.2105 -0.3204
15943TIP3    H169244   4.126   0.277  13.681 -0.6532 -1.0732  0.0215
15943TIP3    H269245   4.060   0.338  13.802  0.4979  0.6539 -0.1914
15944TIP3   OH269246   5.283   0.425  16.104 -0.3730 -0.9226  0.4242
15944TIP3    H169247   5.222   0.361  16.142 -2.5131  0.6302 -0.1943
15944TIP3    H269248   5.237   0.460  16.028  1.2786  0.4195 -0.0234
15945TIP3   OH269249   0.806   0.800   0.682  0.0664  0.7151  0.0711
15945TIP3    H169250   0.720   0.832   0.655  0.0335 -0.2398 -1.0369
15945TIP3    H269251   0.806   0.708   0.657  0.4950  0.0191  2.3260
15946TIP3   OH269252   6.570   2.856   5.563  0.5723  0.1672 -0.1635
15946TIP3    H169253   6.492   2.908   5.583 -0.2893 -1.0838 -0.1274
15946TIP3    H269254   6.639   2.895   5.616  0.3013  2.0886 -1.1421
15947TIP3   OH269255   3.567   5.071   5.852 -0.2431 -0.4275  0.5575
15947TIP3    H169256   3.539   5.139   5.913 -0.7440  0.4434 -0.6006
15947TIP3    H269257   3.660   5.089   5.837 -0.1998 -0.4410  0.8058
15948TIP3   OH269258   0.568   1.191   3.460 -0.5005 -0.0972  0.1307
15948TIP3    H169259   0.648   1.227   3.497  0.9669 -0.6560 -2.2377
15948TIP3    H269260   0.508   1.265   3.453  0.9992  1.0586 -0.9843
15949TIP3   OH269261   4.330   4.470   1.416 -0.6671  0.3627 -0.1388
15949TIP3    H169262   4.335   4.563   1.436 -1.0001  0.3288  0.1131
15949TIP3    H269263   4.330   4.426   1.501 -1.1595  0.1694 -0.2331
15950TIP3   OH269264   1.168   0.499  12.576 -0.6305 -0.0334 -0.7423
15950TIP3    H169265   1.154   0.466  12.664 -1.9009 -0.0323 -0.9336
15950TIP3    H269266   1.133   0.588  12.577  0.6309  0.4841 -0.8739
15951TIP3   OH269267   0.615   4.500  12.327  0.5932  0.4493  0.5353
15951TIP3    H169268   0.535   4.548  12.346  0.7137  0.7380  0.3118
15951TIP3    H269269   0.647   4.471  12.413  0.4176  0.5999  0.6507
15952TIP3   OH269270   2.537   1.822   3.538 -0.2104 -0.0726  0.8343
15952TIP3    H169271   2.579   1.908   3.542 -0.7674  0.2037  0.8087
15952TIP3    H269272   2.467   1.833   3.474 -0.4629 -0.4706  1.0403
15953TIP3   OH269273   1.334   5.226  15.353  0.2608  0.5259 -0.1977
15953TIP3    H169274   1.311   5.133  15.361 -0.2997  0.7113  0.4635
15953TIP3    H269275   1.270   5.261  15.291  1.9607 -0.0149 -2.3427
15954TIP3   OH269276   6.619   3.053  10.761 -0.6440 -0.6074 -0.0174
15954TIP3    H169277   6.712   3.037  10.749 -0.2146  1.7345 -0.3134
15954TIP3    H269278   6.591   3.096  10.680 -1.2342  1.4976  1.2219
15955TIP3   OH269279   5.092   1.461   0.675  0.2118  0.2989 -0.3283
15955TIP3    H169280   5.114   1.522   0.605 -0.3450  0.5599 -0.2798
15955TIP3    H269281   5.074   1.378   0.630 -0.8719  0.6492 -0.5799
15956TIP3   OH269282   1.205   5.163  17.438  0.5891  0.0762  0.3753
15956TIP3    H169283   1.293   5.127  17.439  1.1395  1.3521 -0.1898
15956TIP3    H269284   1.214   5.251  17.473 -0.2615  0.6406 -0.7603
15957TIP3   OH269285   5.129   4.634  11.816  0.2037  0.4905 -0.6424
15957TIP3    H169286   5.110   4.728  11.821  0.6083  0.5480 -0.0840
15957TIP3    H269287   5.044   4.592  11.832  0.2907  0.7559  0.6552
15958TIP3   OH269288   4.295   6.197  15.032 -0.0659  0.7460  0.3222
15958TIP3    H169289   4.204   6.174  15.051 -0.2556  0.7268 -0.5810
15958TIP3    H269290   4.318   6.262  15.099 -0.4142  0.0171  1.1730
15959TIP3   OH269291   0.366   5.648   0.586 -0.3486 -0.0523  0.3619
15959TIP3    H169292   0.346   5.660   0.679 -0.1483  0.5470  0.3315
15959TIP3    H269293   0.280   5.639   0.544 -0.4762  0.4684  0.5046
15960TIP3   OH269294   3.591   4.034   1.195  0.2134  0.1533 -0.0269
15960TIP3    H169295   3.513   4.066   1.150  0.9224  1.2183 -0.5447
15960TIP3    H269296   3.593   4.082   1.277  0.5818  0.4967 -0.2321
15961TIP3   OH269297   0.551   2.310   2.593  0.0266  0.3918  0.1327
15961TIP3    H169298   0.560   2.405   2.583 -0.4085  0.6051  1.5478
15961TIP3    H269299   0.479   2.299   2.655 -0.8349 -0.9162 -1.0402
15962TIP3   OH269300   6.597   5.493  17.434  0.6768 -0.0616  0.0886
15962TIP3    H169301   6.664   5.531  17.491  0.4009  0.1673  0.2610
15962TIP3    H269302   6.536   5.565  17.417 -0.5892 -0.7460  1.4999
15963TIP3   OH269303   3.301   0.110   5.866  0.3970  0.7176  0.3705
15963TIP3    H169304   3.248   0.108   5.946 -1.4353  0.2070 -0.8034
15963TIP3    H269305   3.337   0.199   5.863  0.1931  0.8574  1.5655
15964TIP3   OH269306   0.559   2.642  13.342  0.0444 -0.1357  0.6025
15964TIP3    H169307   0.511   2.625  13.423  0.7655 -0.5115  0.9625
15964TIP3    H269308   0.491   2.664  13.279 -0.5654 -0.2177  1.2094
15965TIP3   OH269309   3.305   0.786  12.650 -0.7587  0.4741 -0.1288
15965TIP3    H169310   3.311   0.832  12.567 -0.4370  0.1972 -0.2661
15965TIP3    H269311   3.376   0.823  12.703 -0.5864  0.2368 -0.1914
15966TIP3   OH269312   3.129   3.435  13.590  0.2936  0.8601 -0.4053
15966TIP3    H169313   3.089   3.353  13.563 -0.8737  1.3856 -0.3268
15966TIP3    H269314   3.078   3.464  13.666  2.4550  0.2702  1.3641
15967TIP3   OH269315   5.385   2.901  15.874 -0.0648  0.2149  0.0160
15967TIP3    H169316   5.434   2.891  15.956 -0.0997  2.9464  0.4595
15967TIP3    H269317   5.303   2.943  15.900 -0.2748  0.6978 -1.3511
15968TIP3   OH269318   0.360   1.313   0.497 -0.2840  0.5101  0.3310
15968TIP3    H169319   0.312   1.259   0.433 -0.0069  0.5266  0.1055
15968TIP3    H269320   0.447   1.323   0.458  0.6556 -1.4132  1.7568
15969TIP3   OH269321   3.087   3.659   3.803 -0.1933  0.1420 -0.1704
15969TIP3    H169322   3.100   3.646   3.710 -0.3304 -1.0221 -0.0464
15969TIP3    H269323   2.998   3.692   3.811 -0.4538 -0.4816 -0.4133
15970TIP3   OH269324   3.876   1.785   1.405 -0.0645  0.1689 -0.0139
15970TIP3    H169325   3.934   1.789   1.329  0.7792 -0.8313  0.5629
15970TIP3    H269326   3.882   1.873   1.444  0.0339  0.4723 -0.6980
15971TIP3   OH269327   6.438   1.266  12.759  1.1598 -0.1537 -0.3901
15971TIP3    H169328   6.390   1.195  12.716  0.0091  0.9641 -1.0224
15971TIP3    H269329   6.419   1.254  12.852  0.0459 -0.0338 -0.5860
15972TIP3   OH269330   4.058   0.344   1.824 -0.2916 -0.4189 -0.2330
15972TIP3    H169331   4.144   0.352   1.866 -0.2431 -1.2914 -0.1302
15972TIP3    H269332   4.005   0.296   1.888 -1.1973  1.0438  0.1658
15973TIP3   OH269333   6.675   6.371  16.922 -0.1150  0.4393 -0.1048
15973TIP3    H169334   6.591   6.409  16.897 -1.5404 -1.5664  1.3334
15973TIP3    H269335   6.713   6.433  16.984 -1.4977  0.4642  0.7484
15974TIP3   OH269336   5.410   0.870  16.578 -0.9066  0.6117 -0.4681
15974TIP3    H169337   5.384   0.786  16.617 -1.5384  0.7722 -0.5251
15974TIP3    H269338   5.498   0.855  16.545 -0.7626  0.1591  0.0937
15975TIP3   OH269339   3.704   4.440  13.419  0.3620 -0.5209 -0.2091
15975TIP3    H169340   3.776   4.499  13.400  0.2491 -0.7214 -1.3303
15975TIP3    H269341   3.698   4.383  13.342  0.0534 -1.5720  0.5606
15976TIP3   OH269342   1.542   5.328   2.118  0.0640 -0.0925  0.0762
15976TIP3    H169343   1.588   5.402   2.080  2.0957 -1.7712 -0.9695
15976TIP3    H269344   1.570   5.326   2.209  1.3599 -0.5020 -0.3055
15977TIP3   OH269345   2.862   5.911  15.970  0.3200  0.1958  0.6731
15977TIP3    H169346   2.798   5.961  15.920 -0.5296 -1.4532  0.0245
15977TIP3    H269347   2.811   5.873  16.043  0.9324  0.2671  1.1441
15978TIP3   OH269348   0.839   6.380  10.872 -0.2413 -0.2673 -0.6043
15978TIP3    H169349   0.831   6.313  10.940  1.8063  0.6162  0.6184
15978TIP3    H269350   0.795   6.343  10.796 -0.9624 -2.1083  0.6290
15979TIP3   OH269351   0.026   6.093  15.095  0.2899 -0.2763 -0.2610
15979TIP3    H169352  -0.024   6.154  15.041  0.2991 -0.7653 -0.8439
15979TIP3    H269353  -0.038   6.055  15.155  0.4910  1.1062  0.8700
15980TIP3   OH269354   3.780   3.536  14.890 -0.3243  0.0450 -0.3289
15980TIP3    H169355   3.713   3.468  14.897  0.1473 -0.3760  0.2365
15980TIP3    H269356   3.794   3.547  14.796 -1.8214  0.7770 -0.4828
15981TIP3   OH269357   4.131   1.051   3.807  0.1902  0.2186 -0.1097
15981TIP3    H169358   4.094   1.017   3.726 -0.6294  3.5111 -1.2692
15981TIP3    H269359   4.108   0.985   3.873 -1.2073 -1.4355 -2.1043
15982TIP3   OH269360   2.340   6.538   2.484 -0.0112  0.2276  0.1164
15982TIP3    H169361   2.311   6.606   2.544 -0.8233  0.5734 -0.6486
15982TIP3    H269362   2.360   6.463   2.540  2.7138  1.6056  1.2005
15983TIP3   OH269363   5.927   1.637  15.114  0.6159 -0.1407 -0.8048
15983TIP3    H169364   5.844   1.588  15.107 -1.7565  3.5024 -0.6655
15983TIP3    H269365   5.930   1.667  15.205  1.9429  0.0731 -0.9018
15984TIP3   OH269366   0.296   4.285   0.310  0.0338  0.0620  0.2386
15984TIP3    H169367   0.205   4.259   0.324 -0.2966  0.2913 -1.3155
15984TIP3    H269368   0.347   4.207   0.330 -0.5485 -0.2509  0.5221
15985TIP3   OH269369   0.281   1.793  11.932  0.0875  0.7069  0.1488
15985TIP3    H169370   0.331   1.714  11.911  1.2360  0.4687  3.3220
15985TIP3    H269371   0.345   1.853  11.971 -1.5238  1.5738  1.5957
15986TIP3   OH269372   4.733   3.755  11.708 -0.1381  0.2358 -0.2016
15986TIP3    H169373   4.643   3.778  11.682 -0.5942  0.2305  1.3110
15986TIP3    H269374   4.731   3.660  11.718  0.1302  0.2026 -0.4488
15987TIP3   OH269375   1.772   1.810  10.231  0.2027  0.5461  0.3829
15987TIP3    H169376   1.693   1.841  10.274 -0.3539 -0.6436  0.2527
15987TIP3    H269377   1.787   1.723  10.267  0.5907  0.1517 -0.6873
15988TIP3   OH269378   6.579   5.030  14.398 -0.2946  0.1691 -0.1341
15988TIP3    H169379   6.494   5.038  14.441 -0.8399 -1.2603 -0.8986
15988TIP3    H269380   6.641   5.010  14.468 -0.9871 -1.0232  0.1520
15989TIP3   OH269381   3.021   6.124  13.283 -0.7294  0.5630  0.0105
15989TIP3    H169382   3.094   6.178  13.254  0.2002 -0.1842  0.9101
15989TIP3    H269383   2.944   6.178  13.268 -0.1450  0.8721 -2.2051
15990TIP3   OH269384   5.997   0.758   3.612 -0.0705  0.2102  0.1808
15990TIP3    H169385   6.082   0.763   3.655  0.8938 -1.8996 -1.2591
15990TIP3    H269386   5.979   0.847   3.581  0.8226  1.0160  1.8813
15991TIP3   OH269387   5.720   0.918  16.532  0.2243 -0.5110 -0.3308
15991TIP3    H169388   5.782   0.987  16.552 -0.1373 -0.5062  0.8615
15991TIP3    H269389   5.702   0.928  16.439 -0.7905  1.8223  0.0496
15992TIP3   OH269390   0.847   5.177   5.673 -0.0682  0.3776  0.0824
15992TIP3    H169391   0.800   5.190   5.755 -1.3277 -0.3580 -0.4978
15992TIP3    H269392   0.897   5.096   5.687 -0.4226  0.1551  0.0591
15993TIP3   OH269393   1.445   2.300   1.212  0.1646  0.1715 -0.1497
15993TIP3    H169394   1.362   2.293   1.165  0.3801  1.4348 -0.7502
15993TIP3    H269395   1.497   2.362   1.160  1.3526 -0.3351  0.4041
15994TIP3   OH269396   4.041   0.719  13.432  0.3369  0.3327  0.5355
15994TIP3    H169397   4.092   0.775  13.375  0.9699  0.1962  0.9560
15994TIP3    H269398   4.071   0.740  13.520  0.3361 -0.4059  0.7239
15995TIP3   OH269399   6.025   2.638  12.845  0.1498 -0.0504  0.3016
15995TIP3    H169400   5.950   2.696  12.831  1.9497  2.1574 -0.7819
15995TIP3    H269401   6.005   2.560  12.792 -1.6917  0.1143  0.6672
15996TIP3   OH269402   6.724   0.224   1.780 -1.1647 -0.1474  0.4116
15996TIP3    H169403   6.759   0.136   1.771 -3.4404 -1.4667  2.9996
15996TIP3    H269404   6.764   0.258   1.860 -0.5057  1.0974 -0.4255
15997TIP3   OH269405   6.107   3.990   3.743  0.2278  0.3108 -0.0759
15997TIP3    H169406   6.156   4.069   3.764 -0.6348  0.9499 -0.4329
15997TIP3    H269407   6.137   3.966   3.655 -1.9315  2.1855 -1.4103
15998TIP3   OH269408   6.116   3.542   6.382 -0.2534 -0.2597 -0.1855
15998TIP3    H169409   6.073   3.472   6.334  0.4072 -0.1448 -0.9720
15998TIP3    H269410   6.206   3.512   6.393  0.1482  0.6202 -0.8909
15999TIP3   OH269411   0.813   4.035  12.579  0.2698  0.3860 -0.1322
15999TIP3    H169412   0.785   4.046  12.489 -2.8153 -1.1764  0.4833
15999TIP3    H269413   0.893   3.983  12.573  0.6972  1.1819 -1.9516
16000TIP3   OH269414   5.237   6.359  13.310 -0.2885 -0.1937 -0.4142
16000TIP3    H169415   5.209   6.450  13.314  0.6290  0.0961 -0.2497
16000TIP3    H269416   5.269   6.339  13.398 -3.0563 -1.5754  0.3894
16001TIP3   OH269417   4.871   4.173   3.026  0.3958  0.2851  0.1644
16001TIP3    H169418   4.903   4.258   2.994 -0.1826  0.2272 -0.6122
16001TIP3    H269419   4.902   4.168   3.116  3.2919 -0.1255 -0.7367
16002TIP3   OH269420   0.401   0.751  11.651  0.3955  0.0981  0.0373
16002TIP3    H169421   0.490   0.728  11.679 -0.0613 -1.1480  0.5404
16002TIP3    H269422   0.405   0.752  11.556  0.7750 -0.7326  0.0375
16003TIP3   OH269423   4.827   6.078   1.179 -0.1556 -0.0451  0.2102
16003TIP3    H169424   4.732   6.074   1.171 -0.0568 -1.9117 -0.4535
16003TIP3    H269425   4.843   6.149   1.243 -2.1207 -1.5090  2.4821
16004TIP3   OH269426   0.741   6.640   5.986  0.0814 -0.2711  0.5557
16004TIP3    H169427   0.743   6.632   6.081  1.4131  2.3650  0.8217
16004TIP3    H269428   0.766   6.553   5.954  1.1122 -0.7902  2.6255
16005TIP3   OH269429   4.859   1.552  14.525  0.1332 -0.1040  0.3849
16005TIP3    H169430   4.823   1.565  14.438 -0.6208 -0.5041  0.6240
16005TIP3    H269431   4.801   1.600  14.583 -0.2401 -1.0382  0.8142
16006TIP3   OH269432   0.493   4.731  15.378  0.0746 -0.5248 -0.1505
16006TIP3    H169433   0.561   4.693  15.322 -0.1918  0.7008 -1.3531
16006TIP3    H269434   0.474   4.815  15.338 -1.0753 -0.1861  1.0626
16007TIP3   OH269435   4.932   1.899   5.671  0.2212  0.6854 -0.1764
16007TIP3    H169436   4.896   1.914   5.758 -1.2663 -0.2435 -0.6040
16007TIP3    H269437   4.859   1.865   5.620  1.7714 -1.7086 -0.9738
16008TIP3   OH269438   5.676   0.297   0.334  0.4540  0.0888 -0.2333
16008TIP3    H169439   5.636   0.277   0.418  2.7064  0.2144  0.9539
16008TIP3    H269440   5.659   0.220   0.280 -0.6518 -0.1805  0.4672
16009TIP3   OH269441   2.382   5.714   5.605  0.1446 -0.6631  0.3014
16009TIP3    H169442   2.352   5.627   5.578  0.7242 -0.7219 -0.1816
16009TIP3    H269443   2.304   5.769   5.600 -0.6541 -1.5381  2.4034
16010TIP3   OH269444   1.498   5.975  13.010 -0.1087  0.2965 -0.1053
16010TIP3    H169445   1.411   5.972  13.050 -0.7456  0.2865 -1.4424
16010TIP3    H269446   1.558   5.960  13.083 -1.3114 -1.7395  0.5522
16011TIP3   OH269447   1.859   5.818   0.460 -0.6253 -0.8859 -0.0169
16011TIP3    H169448   1.950   5.798   0.437  0.0941 -0.1385  1.9723
16011TIP3    H269449   1.850   5.911   0.442 -2.0848 -1.5309 -3.3605
16012TIP3   OH269450   5.476   1.329  11.551 -0.0746  0.2501  0.0428
16012TIP3    H169451   5.469   1.320  11.456  0.6941 -2.2804  0.1547
16012TIP3    H269452   5.489   1.423  11.565 -0.9193  0.7848 -2.2732
16013TIP3   OH269453   5.111   6.400   1.426  0.4251 -0.3065 -0.0944
16013TIP3    H169454   5.052   6.470   1.453 -2.4080 -1.3710 -2.8410
16013TIP3    H269455   5.168   6.441   1.361 -0.2831 -0.1637 -0.6472
16014TIP3   OH269456   4.822   6.365   4.806 -0.7613 -0.5426 -0.2037
16014TIP3    H169457   4.883   6.438   4.790 -0.3280 -0.9074 -0.2576
16014TIP3    H269458   4.744   6.406   4.843  0.0905 -0.2205  1.3062
16015TIP3   OH269459   2.074   6.267   0.438 -0.5584 -0.3435 -0.4479
16015TIP3    H169460   2.118   6.324   0.501 -1.0534 -3.2104  2.7490
16015TIP3    H269461   1.992   6.313   0.419  0.2762  1.3097 -0.2951
16016TIP3   OH269462   6.748   2.772  12.740  0.0202 -0.0170  0.4953
16016TIP3    H169463   6.826   2.811  12.699 -1.6357  1.5538 -1.3844
16016TIP3    H269464   6.767   2.678  12.743  2.5589  0.4500  1.5175
16017TIP3   OH269465   2.980   6.600  11.546 -0.0399 -0.2015  0.1220
16017TIP3    H169466   2.906   6.630  11.598  1.1950  0.0890  1.7987
16017TIP3    H269467   2.957   6.511  11.520 -1.0601 -0.0361  0.4398
16018TIP3   OH269468   0.493   1.972  12.019 -0.3421 -0.3908 -0.1962
16018TIP3    H169469   0.514   2.037  11.952 -0.5089 -1.5109 -1.3842
16018TIP3    H269470   0.437   2.019  12.081 -0.1227  0.7026 -0.7966
16019TIP3   OH269471   1.842   5.409  15.836  0.0299  1.0295  0.1115
16019TIP3    H169472   1.815   5.433  15.925  2.0718  0.2471  0.9920
16019TIP3    H269473   1.916   5.350  15.849  0.3844  0.9274 -2.1272
16020TIP3   OH269474   0.589   4.744   1.848 -0.1273  0.4395  0.4594
16020TIP3    H169475   0.493   4.738   1.847 -0.0683 -0.8775 -0.7094
16020TIP3    H269476   0.612   4.770   1.758  0.6552 -0.6799  0.3166
16021TIP3   OH269477   2.179   2.392  11.022 -0.1949  0.1208 -0.0346
16021TIP3    H169478   2.091   2.417  10.996 -0.7594 -2.2584 -0.6110
16021TIP3    H269479   2.236   2.458  10.982 -1.7277  2.9329  2.0265
16022TIP3   OH269480   5.906   4.374   2.820  1.0111 -0.5865 -0.4952
16022TIP3    H169481   5.870   4.462   2.812 -1.3683 -1.6191 -2.3710
16022TIP3    H269482   5.979   4.372   2.759  1.0941  0.0898 -0.4206
16023TIP3   OH269483   6.251   2.975  13.075 -0.3982  0.1041  0.5203
16023TIP3    H169484   6.170   2.928  13.057 -0.4567  0.8283 -1.2854
16023TIP3    H269485   6.320   2.919  13.041 -0.4469  1.1160 -1.3620
16024TIP3   OH269486   1.160   2.207   0.562  0.3591  0.3789  0.1726
16024TIP3    H169487   1.247   2.175   0.584  0.2887 -0.2659 -0.4695
16024TIP3    H269488   1.145   2.279   0.623  2.4445  2.3264 -1.4937
16025TIP3   OH269489   0.866   2.663   4.905  0.0173  0.7560 -0.4839
16025TIP3    H169490   0.804   2.691   4.973 -0.3854 -0.6161 -0.2584
16025TIP3    H269491   0.811   2.623   4.838  0.7311 -2.9325  0.9135
16026TIP3   OH269492   1.799   0.279   2.890 -0.3245 -0.0224 -0.5544
16026TIP3    H169493   1.880   0.294   2.839  0.0607  0.7130  0.2434
16026TIP3    H269494   1.791   0.184   2.894  0.1735 -0.1029 -1.1562
16027TIP3   OH269495   4.741   1.472   5.675 -0.4634  0.2687 -0.1789
16027TIP3    H169496   4.769   1.535   5.741  1.4789  0.6828 -1.3258
16027TIP3    H269497   4.770   1.387   5.710 -0.8029  0.3027  0.1916
16028TIP3   OH269498   3.835   4.070  16.496 -0.0875 -0.1436  0.5872
16028TIP3    H169499   3.870   4.111  16.575  1.6075 -0.8311  0.2560
16028TIP3    H269500   3.839   3.976  16.514 -1.7951 -0.2649  0.4955
16029TIP3   OH269501   1.862   3.053   5.887 -0.0333 -0.5747 -0.1377
16029TIP3    H169502   1.782   3.004   5.903 -0.6980  0.1699 -1.0484
16029TIP3    H269503   1.929   3.008   5.938 -0.6250 -2.3705 -0.8718
16030TIP3   OH269504   2.395   2.720   4.007  0.0666 -0.1737  0.2135
16030TIP3    H169505   2.485   2.744   4.029 -0.5378  0.6707  1.8989
16030TIP3    H269506   2.362   2.794   3.956  0.3674 -0.5835 -0.6030
16031TIP3   OH269507   4.464   5.095  15.425  0.4246  0.4091  0.2542
16031TIP3    H169508   4.518   5.122  15.351 -1.1722  2.9903 -0.0557
16031TIP3    H269509   4.456   5.000  15.415  3.0877  0.2205 -0.8605
16032TIP3   OH269510   4.697   2.638  16.397  0.4113  0.3735 -0.0411
16032TIP3    H169511   4.719   2.580  16.470  0.5874 -0.6499 -0.8900
16032TIP3    H269512   4.760   2.710  16.403  0.6132  0.1449  0.6409
16033TIP3   OH269513   2.741   6.744  13.569  0.1406 -0.5955 -0.3904
16033TIP3    H169514   2.807   6.801  13.611 -1.9737  1.1200  0.8154
16033TIP3    H269515   2.685   6.805  13.521 -1.4628 -1.8172 -0.1165
16034TIP3   OH269516   0.626   4.254  10.935 -0.1360  0.0565 -0.4547
16034TIP3    H169517   0.618   4.209  11.019  3.6966  0.4897  0.3455
16034TIP3    H269518   0.665   4.188  10.876  2.6075  1.2709 -0.1420
16035TIP3   OH269519   0.094   5.976   3.497  0.2404 -0.8555 -0.1405
16035TIP3    H169520   0.119   5.887   3.471  0.0928 -1.5902  1.9899
16035TIP3    H269521   0.164   6.004   3.556  0.6485  0.7632 -1.3454
16036TIP3   OH269522   5.076   2.986   4.703 -0.1735  0.0962 -0.1287
16036TIP3    H169523   5.099   2.973   4.795 -0.4171  0.8410  0.0429
16036TIP3    H269524   5.117   3.070   4.680 -4.2073  2.6256  0.7620
16037TIP3   OH269525   5.938   1.549  16.359  0.4533  0.2207  0.2929
16037TIP3    H169526   5.953   1.601  16.438 -0.8425  0.7106  0.2393
16037TIP3    H269527   5.945   1.612  16.287 -2.5741  0.7186  0.3145
16038TIP3   OH269528   1.436   0.434  11.266  0.4657 -0.0270 -0.2219
16038TIP3    H169529   1.406   0.410  11.178 -0.7006 -0.9541  0.4228
16038TIP3    H269530   1.379   0.506  11.292  0.4651 -0.1055 -0.0064
16039TIP3   OH269531   1.775   1.532  12.868  0.2225 -0.2659  0.1634
16039TIP3    H169532   1.853   1.516  12.815  1.7728  2.1178  1.5454
16039TIP3    H269533   1.794   1.488  12.951 -0.7691 -1.2223 -0.0901
16040TIP3   OH269534   5.245   1.518   0.914 -0.0197 -0.6473 -0.1865
16040TIP3    H169535   5.303   1.466   0.858  1.1760  0.0990  0.3145
16040TIP3    H269536   5.171   1.540   0.857  0.4544 -1.1436 -1.0246
16041TIP3   OH269537   3.801   0.840  10.297 -0.6112  0.1069 -0.5085
16041TIP3    H169538   3.881   0.811  10.253  0.2829  1.9598 -0.1999
16041TIP3    H269539   3.822   0.927  10.331 -1.3240 -0.9978  3.3058
16042TIP3   OH269540   3.242   0.822   4.262 -0.2193 -0.5163  0.2009
16042TIP3    H169541   3.210   0.735   4.288 -0.7884 -0.5277 -0.5073
16042TIP3    H269542   3.163   0.868   4.233  0.1100  0.1834  0.4209
16043TIP3   OH269543   1.625   5.416  15.625  0.1212 -1.1197 -0.5538
16043TIP3    H169544   1.640   5.408  15.719  1.3550 -1.3186 -0.7557
16043TIP3    H269545   1.578   5.498  15.614  1.4413 -0.2632  0.0834
16044TIP3   OH269546   0.674   5.343   4.373  0.5685  0.5733  0.3729
16044TIP3    H169547   0.766   5.369   4.377  0.2482  2.0734 -0.7404
16044TIP3    H269548   0.646   5.369   4.285 -0.9779  0.3621  0.7681
16045TIP3   OH269549   4.909   1.882  14.784  0.0086 -0.0267 -0.4190
16045TIP3    H169550   4.986   1.886  14.727  0.6480 -1.6103  0.2442
16045TIP3    H269551   4.943   1.904  14.871  0.2552 -2.6520  0.2639
16046TIP3   OH269552   0.176   5.038  14.562 -0.8353  0.8323 -0.0887
16046TIP3    H169553   0.210   5.096  14.495  0.2655  1.2492  0.7924
16046TIP3    H269554   0.100   5.085  14.598 -0.0003  1.7329  0.5655
16047TIP3   OH269555   5.901   0.436   2.535  0.4782  0.0996 -0.1832
16047TIP3    H169556   5.984   0.447   2.582  1.3850  0.9195 -1.8735
16047TIP3    H269557   5.901   0.508   2.471  0.0277 -1.7820 -2.4011
16048TIP3   OH269558   2.420   0.426   5.059  0.4021  0.1634 -0.3702
16048TIP3    H169559   2.437   0.469   5.143 -0.4378  1.5085 -0.8628
16048TIP3    H269560   2.383   0.341   5.083  0.4927  0.3933  0.6255
16049TIP3   OH269561   1.534   0.862   4.163  0.0430 -0.1936  0.2330
16049TIP3    H169562   1.537   0.949   4.203  1.5328 -0.3992  0.6066
16049TIP3    H269563   1.568   0.803   4.230 -1.0719 -1.1113  0.0321
16050TIP3   OH269564   6.503   6.681  14.300  0.0466 -0.0328  0.2292
16050TIP3    H169565   6.577   6.659  14.357 -0.4457 -3.0460 -0.1095
16050TIP3    H269566   6.528   6.647  14.214 -0.2463  2.2706 -0.8372
16051TIP3   OH269567   4.166   3.946   0.894 -0.4100  0.5083 -0.1314
16051TIP3    H169568   4.249   3.977   0.857  0.4246 -2.1331 -0.7711
16051TIP3    H269569   4.183   3.937   0.987 -0.3873  1.1707 -0.0728
16052TIP3   OH269570   6.124   4.791  11.792  0.3285  0.0824  0.4591
16052TIP3    H169571   6.030   4.791  11.813  0.3088  2.4489  0.6610
16052TIP3    H269572   6.163   4.730  11.854 -0.9251  0.0495  1.2424
16053TIP3   OH269573   0.166   5.604  14.486  0.1545  0.3780  0.7835
16053TIP3    H169574   0.094   5.649  14.442 -0.6745 -2.2243 -0.7265
16053TIP3    H269575   0.243   5.656  14.465 -0.4612  0.1918 -2.4580
16054TIP3   OH269576   4.851   3.089  12.807  0.4844  0.6655 -0.4318
16054TIP3    H169577   4.777   3.133  12.848 -0.4891  0.7818 -2.1990
16054TIP3    H269578   4.923   3.101  12.868 -0.3301  2.7222  0.1957
16055TIP3   OH269579   0.426   4.917   4.950  0.1112  0.0991  0.5158
16055TIP3    H169580   0.375   4.995   4.931 -1.4490 -0.7654  0.9629
16055TIP3    H269581   0.497   4.918   4.885 -0.8324  1.0099 -0.5461
16056TIP3   OH269582   1.142   2.159  16.983 -0.7512 -0.3297  0.3849
16056TIP3    H169583   1.155   2.128  16.893  4.0340 -0.0650  0.7693
16056TIP3    H269584   1.096   2.087  17.026  0.4017 -2.2207 -1.3421
16057TIP3   OH269585   5.411   3.904   2.548  0.5307  0.1186 -0.1600
16057TIP3    H169586   5.428   3.811   2.533 -0.6657  0.0106 -1.0009
16057TIP3    H269587   5.400   3.941   2.461 -3.3301  0.1438  0.1738
16058TIP3   OH269588   4.144   5.561   4.668 -0.5105 -0.4694  0.0259
16058TIP3    H169589   4.117   5.616   4.742  1.5001  2.6085 -1.3442
16058TIP3    H269590   4.229   5.525   4.693 -1.4334 -2.4239  0.5653
16059TIP3   OH269591   3.146   3.641   4.097  0.1152  0.1928  0.2135
16059TIP3    H169592   3.126   3.576   4.165 -0.3358  0.9296  0.8035
16059TIP3    H269593   3.148   3.590   4.016 -1.2252 -0.4221  0.5274
16060TIP3   OH269594   1.668   0.161   1.312  0.0153  0.4252  0.0312
16060TIP3    H169595   1.681   0.254   1.329 -2.5046  0.9223 -0.3438
16060TIP3    H269596   1.756   0.124   1.311  1.0536  2.7041  0.6546
16061TIP3   OH269597   2.798   5.970   2.414  0.0666  0.4020  0.8570
16061TIP3    H169598   2.873   5.920   2.445 -0.3988  1.5908  4.3589
16061TIP3    H269599   2.834   6.056   2.391  0.3531 -0.3672 -1.8986
16062TIP3   OH269600   6.024   4.758   2.479 -0.2328 -0.1743  0.1859
16062TIP3    H169601   5.952   4.793   2.531 -0.7996  0.1377 -0.7868
16062TIP3    H269602   5.990   4.675   2.444  0.9264 -1.5509  2.0895
16063TIP3   OH269603   4.179   3.564   2.991 -0.8093 -0.5141 -0.0389
16063TIP3    H169604   4.158   3.513   3.069  0.2325 -0.5121  0.2547
16063TIP3    H269605   4.241   3.509   2.943  0.1221  0.3411  0.1447
16064TIP3   OH269606   3.119   4.150   4.224 -0.8124  0.4670  0.0409
16064TIP3    H169607   3.043   4.159   4.282 -2.1062 -1.3164 -1.2608
16064TIP3    H269608   3.092   4.193   4.143 -1.4267 -2.1090 -1.2257
16065TIP3   OH269609   1.473   6.210  14.672 -0.4929  0.2675 -0.0386
16065TIP3    H169610   1.429   6.181  14.752  0.0939 -0.0253  0.1846
16065TIP3    H269611   1.460   6.139  14.610 -2.6486  1.3190 -0.8773
16066TIP3   OH269612   4.560   0.824  14.142 -0.8595  0.0669  0.3447
16066TIP3    H169613   4.546   0.907  14.097 -1.6784 -0.2171  0.0567
16066TIP3    H269614   4.584   0.763  14.072 -0.4908  0.0076  0.5233
16067TIP3   OH269615   6.224   0.248   5.253  0.3173  0.2176 -0.1519
16067TIP3    H169616   6.205   0.331   5.296  0.1828 -0.7351  1.7280
16067TIP3    H269617   6.291   0.207   5.308  4.4572  1.2677 -3.8132
16068TIP3   OH269618   0.661   2.715  15.277  0.0751 -0.3162  0.2126
16068TIP3    H169619   0.728   2.684  15.338 -1.5303 -1.3217  1.5471
16068TIP3    H269620   0.645   2.642  15.218 -0.4432 -0.3911  0.4409
16069TIP3   OH269621   2.869   0.126   6.123 -0.2998 -0.5316  0.1666
16069TIP3    H169622   2.941   0.100   6.065 -0.0034 -1.0454  0.7591
16069TIP3    H269623   2.814   0.181   6.068  0.9279  0.4951 -0.1037
16070TIP3   OH269624   3.066   4.144  16.961  0.2004  0.2320  0.3557
16070TIP3    H169625   3.054   4.208  16.891 -1.2338  0.0324  0.3848
16070TIP3    H269626   2.978   4.130  16.996  0.7731 -0.2947  1.6489
16071TIP3   OH269627   6.152   4.180   2.362  0.4046 -0.0725 -0.2213
16071TIP3    H169628   6.208   4.105   2.383 -2.9499 -2.7661  0.1673
16071TIP3    H269629   6.094   4.188   2.438 -1.5611  0.5962 -1.6989
16072TIP3   OH269630   5.262   3.350  14.933 -0.6751 -0.1052 -0.4244
16072TIP3    H169631   5.214   3.426  14.900 -0.7719 -0.0120 -0.0705
16072TIP3    H269632   5.202   3.276  14.919 -0.2805 -0.2464 -1.4826
16073TIP3   OH269633   2.287   4.274   2.455  0.2761  0.0376  0.1799
16073TIP3    H169634   2.361   4.304   2.509 -0.1153 -0.1405  0.8209
16073TIP3    H269635   2.308   4.183   2.435  0.5242  0.1632 -0.1624
16074TIP3   OH269636   5.271   5.722   2.920 -0.0241  0.1120  0.6657
16074TIP3    H169637   5.280   5.779   2.996 -1.6635  0.8769  0.3380
16074TIP3    H269638   5.350   5.738   2.868 -0.3945  2.0650  0.6184
16075TIP3   OH269639   2.326   2.688  14.970 -0.0618  0.2095  0.5472
16075TIP3    H169640   2.301   2.763  14.916 -0.3551  0.6581  1.2948
16075TIP3    H269641   2.246   2.636  14.977 -1.2456  2.1054  3.7012
16076TIP3   OH269642   2.352   1.757  14.314 -0.1225 -0.2825  0.2604
16076TIP3    H169643   2.349   1.768  14.409  1.5581 -1.0672  0.4386
16076TIP3    H269644   2.263   1.780  14.285 -0.7489 -0.2654  2.0259
16077TIP3   OH269645   0.018   6.578   4.581  0.3279  0.3336 -0.3545
16077TIP3    H169646   0.087   6.568   4.516  0.0352  0.0762 -0.6292
16077TIP3    H269647  -0.028   6.494   4.581 -0.5110  0.7829 -0.7779
16078TIP3   OH269648   1.079   1.460  13.476  0.4637 -0.0046 -0.1154
16078TIP3    H169649   1.089   1.406  13.398 -1.6261 -0.1923 -0.3083
16078TIP3    H269650   1.136   1.419  13.541 -0.1367 -1.7571 -0.6270
16079TIP3   OH269651   0.922   1.185  16.037  0.3336  0.1567  0.4921
16079TIP3    H169652   0.842   1.178  15.985 -0.8287  1.8866  1.9248
16079TIP3    H269653   0.932   1.279  16.052  2.5472 -0.0448  0.5278
16080TIP3   OH269654   2.098   3.461   6.055 -0.0627  0.3465  0.2250
16080TIP3    H169655   2.049   3.543   6.062 -0.2459  0.2692 -0.1248
16080TIP3    H269656   2.158   3.462   6.129  1.1366  1.5947 -0.6990
16081TIP3   OH269657   3.381   4.619   4.734  0.6080  0.1061  0.2282
16081TIP3    H169658   3.388   4.690   4.670  0.1766  0.2147  0.2976
16081TIP3    H269659   3.370   4.540   4.680 -2.1383  0.4481  0.1382
16082TIP3   OH269660   4.992   3.358  11.421 -0.7404 -0.4566 -0.3537
16082TIP3    H169661   4.955   3.446  11.411 -1.0997 -0.3481  1.5780
16082TIP3    H269662   4.916   3.302  11.437 -0.2867 -0.5712  1.5909
16083TIP3   OH269663   0.894   0.727  15.787 -0.1874  0.2185  0.1457
16083TIP3    H169664   0.944   0.703  15.709 -1.6746  1.2948 -1.2028
16083TIP3    H269665   0.949   0.790  15.833  0.9513 -0.8586  0.3049
16084TIP3   OH269666   6.488   2.488   1.702  0.3744 -0.1319  0.1187
16084TIP3    H169667   6.414   2.449   1.748  1.4185  0.0781  2.1013
16084TIP3    H269668   6.485   2.450   1.614 -0.6199 -2.0454  0.9265
16085TIP3   OH269669   1.189   5.312  13.892 -0.1928 -0.0673  0.2373
16085TIP3    H169670   1.144   5.360  13.962  1.5589  0.3911  1.0972
16085TIP3    H269671   1.234   5.241  13.937  0.2807 -0.2593 -0.5378
16086TIP3   OH269672   5.931   4.589  13.207  0.5334  1.0384  0.4318
16086TIP3    H169673   5.996   4.652  13.238  0.3641  1.6182 -0.3458
16086TIP3    H269674   5.930   4.601  13.112  3.5031 -2.9702 -0.4173
16087TIP3   OH269675   0.525   4.842  14.493  0.2182 -0.1898 -0.5537
16087TIP3    H169676   0.550   4.906  14.427 -0.8034  1.2065  0.3382
16087TIP3    H269677   0.606   4.824  14.541  0.6919 -0.2232 -1.3575
16088TIP3   OH269678   4.232   5.363   3.343  0.3921 -0.1446 -0.1723
16088TIP3    H169679   4.178   5.429   3.385  2.4837  0.7947  1.2079
16088TIP3    H269680   4.182   5.336   3.266 -1.8824  0.8027  0.8882
16089TIP3   OH269681   6.380   4.950   2.592 -0.1530 -0.1931  0.2988
16089TIP3    H169682   6.289   4.976   2.603  0.3420  1.7761  0.2106
16089TIP3    H269683   6.406   4.915   2.677 -0.6277  0.5211  0.7493
16090TIP3   OH269684   1.684   3.285  12.518 -0.4631  0.3709  0.0798
16090TIP3    H169685   1.683   3.298  12.423  0.5754 -0.2334 -0.0298
16090TIP3    H269686   1.642   3.363  12.553 -0.0964  0.9954 -0.8408
16091TIP3   OH269687   0.684   2.957   0.804  0.6587 -0.3229  0.3239
16091TIP3    H169688   0.608   2.918   0.848  1.1352 -0.0048  1.4665
16091TIP3    H269689   0.673   3.051   0.817  1.4444 -0.2967  0.8485
16092TIP3   OH269690   3.368   3.875   0.868  0.5978  0.2982 -0.3490
16092TIP3    H169691   3.446   3.916   0.831  1.2133  0.2717  0.8716
16092TIP3    H269692   3.398   3.790   0.900 -0.7674 -1.4896 -3.3530
16093TIP3   OH269693   6.529   3.970  11.368 -0.4239 -0.6226  0.4529
16093TIP3    H169694   6.498   3.956  11.457  3.2159 -0.7955  1.8929
16093TIP3    H269695   6.486   4.051  11.339 -1.3878 -0.3487  2.5048
16094TIP3   OH269696   4.096   0.404  13.131 -0.1562 -0.1074  0.2268
16094TIP3    H169697   4.077   0.490  13.093  0.0094 -1.7067 -3.8549
16094TIP3    H269698   4.011   0.359  13.131  0.2216 -0.8310 -0.1913
16095TIP3   OH269699   3.318   0.442  12.032 -0.1058 -0.4029 -0.0410
16095TIP3    H169700   3.332   0.474  11.943  1.8824 -1.6805 -0.2449
16095TIP3    H269701   3.292   0.351  12.022  0.6720 -0.7211  0.6809
16096TIP3   OH269702   5.963   1.679  10.540  0.2082 -0.1337  0.1421
16096TIP3    H169703   5.937   1.760  10.497 -0.0541  1.8217  3.6293
16096TIP3    H269704   6.056   1.669  10.517  0.0435  0.6821 -0.9885
16097TIP3   OH269705   6.157   3.591  14.961  0.1781 -0.2672 -0.3009
16097TIP3    H169706   6.118   3.668  14.920  1.2005  0.4275 -0.0001
16097TIP3    H269707   6.083   3.533  14.978 -0.5595  0.4855 -0.8786
16098TIP3   OH269708   4.848   5.301  12.244 -0.1032 -0.6743 -0.5508
16098TIP3    H169709   4.936   5.283  12.213  0.4071  1.2601 -0.3855
16098TIP3    H269710   4.793   5.296  12.166  0.4824  0.0101 -1.0186
16099TIP3   OH269711   5.480   4.033  12.382 -1.0401 -0.0836  0.1942
16099TIP3    H169712   5.572   4.015  12.401 -1.0104 -0.8726 -0.6102
16099TIP3    H269713   5.432   3.999  12.457 -0.6580  0.6401  0.7758
16100TIP3   OH269714   0.807   3.027   2.932  0.0787 -0.1018 -0.1172
16100TIP3    H169715   0.775   3.114   2.908  1.3014  0.4255  0.0727
16100TIP3    H269716   0.810   2.979   2.850  1.1573  0.6472 -0.5439
16101TIP3   OH269717   0.029   5.911   4.718  0.1461  0.2554  0.0208
16101TIP3    H169718   0.102   5.852   4.699 -0.5634 -0.5052 -0.4025
16101TIP3    H269719  -0.041   5.884   4.659 -0.6719  0.6111  0.7844
16102TIP3   OH269720   3.775   2.725  16.077 -0.3088  0.0291 -0.2657
16102TIP3    H169721   3.865   2.745  16.104 -0.5696 -0.6384  1.1582
16102TIP3    H269722   3.744   2.806  16.036  0.4354  0.7712  0.5906
16103TIP3   OH269723   3.458   1.626   0.780 -0.3798  0.2967  0.2232
16103TIP3    H169724   3.435   1.553   0.837 -1.4750  0.1208 -0.4180
16103TIP3    H269725   3.385   1.633   0.719  1.1263 -0.0894 -1.7338
16104TIP3   OH269726   3.156   2.154   5.287  0.3647  0.2012 -0.1702
16104TIP3    H169727   3.082   2.106   5.325 -0.0625  0.5494 -0.5503
16104TIP3    H269728   3.175   2.222   5.351  1.5147 -0.9579  0.7721
16105TIP3   OH269729   4.319   0.971   5.165 -0.4778  0.1262  0.2832
16105TIP3    H169730   4.283   1.059   5.166 -0.1905  0.2544  1.7939
16105TIP3    H269731   4.271   0.924   5.233  1.0571 -0.1560  1.2354
16106TIP3   OH269732   3.036   6.655   6.011  0.0721 -0.0624  0.1759
16106TIP3    H169733   3.081   6.739   6.014 -0.3279  0.1389  0.5293
16106TIP3    H269734   3.107   6.590   6.001  0.3526  0.3390 -0.5579
16107TIP3   OH269735   3.325   6.735  16.811 -0.2687 -0.0078  0.4199
16107TIP3    H169736   3.405   6.699  16.851 -0.1785 -1.5803 -1.0610
16107TIP3    H269737   3.337   6.830  16.815  1.2308 -0.1876  1.0822
16108TIP3   OH269738   4.174   5.416  14.105 -0.0328  0.0640  0.1963
16108TIP3    H169739   4.184   5.510  14.089 -0.9129  0.1227 -0.0797
16108TIP3    H269740   4.205   5.374  14.025  1.9751  0.0168  0.9525
16109TIP3   OH269741   3.813   6.123  17.047 -0.3778  0.6983 -0.0989
16109TIP3    H169742   3.836   6.208  17.009 -0.2825  0.2543 -1.0711
16109TIP3    H269743   3.750   6.143  17.116 -0.0999  1.5827 -0.0907
16110TIP3   OH269744   0.278   4.087   1.416  0.4219 -0.1114 -0.1829
16110TIP3    H169745   0.196   4.084   1.463  0.2231 -0.2949 -0.5348
16110TIP3    H269746   0.330   4.153   1.462  1.2081 -2.0319  1.8325
16111TIP3   OH269747   3.019   4.198  12.158  0.8392  0.5912 -0.1028
16111TIP3    H169748   3.047   4.110  12.132 -1.3286 -0.3722  0.6359
16111TIP3    H269749   2.952   4.222  12.094 -1.5421 -0.0795  1.9651
16112TIP3   OH269750   4.508   4.330  16.779  0.2957 -0.1840  0.1023
16112TIP3    H169751   4.446   4.303  16.712 -0.1844 -1.4090  0.9857
16112TIP3    H269752   4.594   4.313  16.741  0.0247 -1.2046 -0.1039
16113TIP3   OH269753   5.794   2.702   4.523  0.2833  0.3511 -0.3607
16113TIP3    H169754   5.854   2.693   4.596 -1.3688  0.1676  1.0381
16113TIP3    H269755   5.794   2.795   4.503 -0.8939  0.7800  1.3957
16114TIP3   OH269756   0.065   5.578   0.174  0.5614 -0.0811 -0.3133
16114TIP3    H169757   0.159   5.586   0.158  0.2428  2.7658 -1.2878
16114TIP3    H269758   0.055   5.601   0.267  0.8233 -0.7018 -0.1228
16115TIP3   OH269759   1.296   2.642  14.732 -0.3266 -0.3960  0.3138
16115TIP3    H169760   1.281   2.655  14.825 -0.4640  1.2382  0.1002
16115TIP3    H269761   1.342   2.721  14.704 -0.5068 -0.7412 -1.0478
16116TIP3   OH269762   4.066   0.124   4.347 -0.2963  0.4190 -0.1637
16116TIP3    H169763   4.060   0.220   4.350 -0.2847  0.4455  4.0324
16116TIP3    H269764   3.996   0.093   4.404  1.1169 -1.9534  0.4298
16117TIP3   OH269765   2.991   0.309   1.608 -0.1372 -0.7372 -0.5907
16117TIP3    H169766   3.081   0.341   1.607 -0.8655  1.9445  2.1747
16117TIP3    H269767   2.982   0.264   1.693 -2.0319  1.5834  0.5612
16118TIP3   OH269768   6.614   1.431   1.216 -0.1863  0.3893 -0.3257
16118TIP3    H169769   6.548   1.485   1.260 -0.0318  1.1820 -1.0388
16118TIP3    H269770   6.578   1.342   1.218 -1.9459  1.0070 -1.8997
16119TIP3   OH269771   3.657   1.910   1.253 -0.1449 -0.4737  0.1585
16119TIP3    H169772   3.652   1.817   1.228 -0.3048 -0.5639  0.5129
16119TIP3    H269773   3.750   1.931   1.246 -0.1233 -0.6275 -0.0448
16120TIP3   OH269774   5.071   4.493  16.348  0.0780 -0.0574 -0.0167
16120TIP3    H169775   5.021   4.568  16.317  0.1255 -0.3586 -0.8502
16120TIP3    H269776   5.163   4.517  16.334  0.1313  0.0824  0.5478
16121TIP3   OH269777   4.095   6.310   1.768 -0.4891 -0.2536 -0.4576
16121TIP3    H169778   4.012   6.274   1.735 -0.7546 -1.7162  1.6535
16121TIP3    H269779   4.068   6.388   1.818 -0.5060 -0.2885 -0.4120
16122TIP3   OH269780   2.286   0.521  14.137 -0.4122  0.2004  0.3146
16122TIP3    H169781   2.324   0.447  14.091 -1.9310 -0.3523 -0.1235
16122TIP3    H269782   2.219   0.482  14.194 -0.7567  1.1657  0.5952
16123TIP3   OH269783   6.439   2.164  11.362 -0.8974  0.5597  0.2404
16123TIP3    H169784   6.501   2.092  11.355  1.3332  2.2948  1.0342
16123TIP3    H269785   6.363   2.126  11.406  0.5712 -1.1159  1.4558
16124TIP3   OH269786   1.776   6.299  16.406 -0.3913  0.2128 -0.7585
16124TIP3    H169787   1.718   6.247  16.461 -0.4545 -0.4383 -1.4281
16124TIP3    H269788   1.864   6.281  16.439 -0.4609  0.1463 -0.6114
16125TIP3   OH269789   4.152   5.231   0.597 -0.9094  0.1927  0.0808
16125TIP3    H169790   4.111   5.300   0.650 -2.2745 -1.3129  1.0877
16125TIP3    H269791   4.207   5.183   0.659  0.3500  0.5828 -0.6995
16126TIP3   OH269792   4.917   0.156   2.897  0.3847  0.4950  0.3706
16126TIP3    H169793   4.906   0.062   2.888 -2.2093  0.6064  1.4178
16126TIP3    H269794   4.917   0.171   2.992 -1.4018  1.6602  0.2497
16127TIP3   OH269795   4.588   2.468  13.567 -0.3483 -0.5861  0.1333
16127TIP3    H169796   4.612   2.382  13.601  0.3895  0.0893  1.3919
16127TIP3    H269797   4.628   2.530  13.628 -0.4788  0.6611 -1.0066
16128TIP3   OH269798   1.921   4.582   5.104 -1.0050  0.5326 -0.3130
16128TIP3    H169799   1.893   4.564   5.014 -0.3802 -1.8995 -0.1029
16128TIP3    H269800   1.852   4.545   5.158  0.3084 -1.3401  0.1731
16129TIP3   OH269801   0.105   0.918  14.081 -0.2178  0.3500  0.0820
16129TIP3    H169802   0.058   0.886  14.003  0.4912 -1.8507  0.4746
16129TIP3    H269803   0.197   0.905  14.059  0.0114  0.4053  0.9972
16130TIP3   OH269804   0.764   1.363  11.662 -0.4638 -0.3822  0.5473
16130TIP3    H169805   0.777   1.320  11.577 -1.3364 -2.0731  1.2326
16130TIP3    H269806   0.754   1.456  11.640 -2.3184 -0.9593 -1.3970
16131TIP3   OH269807   0.736   3.834  17.158  0.5515  0.0636  0.0466
16131TIP3    H169808   0.667   3.830  17.092 -0.9244 -1.1676  1.5464
16131TIP3    H269809   0.791   3.757  17.140  2.0038  1.3831 -1.5337
16132TIP3   OH269810   6.542   0.321  15.698  0.4988  0.4911  0.2374
16132TIP3    H169811   6.475   0.264  15.734 -0.4995  1.4039 -0.1162
16132TIP3    H269812   6.605   0.262  15.657  0.1925 -0.4058  1.0263
16133TIP3   OH269813   2.086   5.258  16.649  0.1834  0.3811  0.1866
16133TIP3    H169814   2.116   5.292  16.565 -0.4498  1.3633  0.3385
16133TIP3    H269815   2.160   5.272  16.708  0.2110  0.8019  0.0620
16134TIP3   OH269816   3.304   0.720  15.461 -0.6203  0.1531 -0.2223
16134TIP3    H169817   3.326   0.776  15.387  0.7407 -0.0420  0.0022
16134TIP3    H269818   3.321   0.631  15.430  0.7545  0.1168  0.5369
16135TIP3   OH269819   0.720   0.403  13.993 -0.3215 -0.0980  0.0015
16135TIP3    H169820   0.724   0.487  14.039  1.4776  1.3529 -2.5670
16135TIP3    H269821   0.779   0.414  13.918 -1.4360 -3.0555 -1.4473
16136TIP3   OH269822   6.451   1.564  11.894 -0.2034  0.1167 -0.2702
16136TIP3    H169823   6.388   1.623  11.852  0.7422  1.2699 -0.1277
16136TIP3    H269824   6.419   1.555  11.984 -0.4025  0.3745 -0.3133
16137TIP3   OH269825   1.370   1.882  10.514 -0.7967 -0.7500  0.2329
16137TIP3    H169826   1.279   1.866  10.488 -1.4199  0.6365  1.3600
16137TIP3    H269827   1.380   1.834  10.596 -0.9647  0.1421  0.7961
16138TIP3   OH269828   5.965   1.663   2.105 -0.6066  0.2466  0.2117
16138TIP3    H169829   6.043   1.665   2.161 -0.5910  1.7359  0.1608
16138TIP3    H269830   5.990   1.607   2.032 -0.0796 -0.4475  0.9032
16139TIP3   OH269831   2.620   1.657   5.305  0.1881 -0.0684  0.1215
16139TIP3    H169832   2.596   1.708   5.383 -3.2526  2.1205 -2.1039
16139TIP3    H269833   2.576   1.573   5.317 -1.7880  0.8802 -0.1168
16140TIP3   OH269834   0.348   0.226  11.974 -0.0782 -0.6129  0.3415
16140TIP3    H169835   0.306   0.249  11.891  2.4007 -1.3339 -1.2157
16140TIP3    H269836   0.375   0.135  11.963  2.7085  0.0708  0.8014
16141TIP3   OH269837   0.051   5.224  12.665 -0.0678  0.0962 -0.2067
16141TIP3    H169838   0.028   5.138  12.698 -2.7322  0.5852 -0.5545
16141TIP3    H269839   0.094   5.268  12.738  1.5930 -1.5617 -0.1183
16142TIP3   OH269840   0.185   6.692  16.813  0.0561 -0.0197 -0.0437
16142TIP3    H169841   0.249   6.749  16.770 -0.9528  0.4044 -1.0293
16142TIP3    H269842   0.117   6.678  16.747  0.1656 -2.2257  0.2060
16143TIP3   OH269843   0.756   4.712  12.125  0.3322  0.4423  0.1540
16143TIP3    H169844   0.753   4.696  12.220 -0.3823 -0.9801 -0.0893
16143TIP3    H269845   0.829   4.658  12.094  0.5097  0.8377 -0.1246
16144TIP3   OH269846   6.719   2.481   4.196  0.1434 -0.1476 -0.0790
16144TIP3    H169847   6.704   2.388   4.183  1.0235 -0.1641 -1.1551
16144TIP3    H269848   6.776   2.506   4.123  0.5197  1.0728  0.6085
16145TIP3   OH269849   3.565   4.420   3.662 -0.2955 -0.8158 -0.0204
16145TIP3    H169850   3.499   4.434   3.730 -0.8988 -1.0443 -0.5482
16145TIP3    H269851   3.649   4.438   3.706 -0.7149 -0.3571  0.6086
16146TIP3   OH269852   1.738   1.855  13.355  0.1740  0.5305 -0.0092
16146TIP3    H169853   1.654   1.819  13.383  0.7567 -0.1000  0.9730
16146TIP3    H269854   1.715   1.920  13.288 -0.9811 -0.9830 -1.1630
16147TIP3   OH269855   4.269   0.603  17.415 -0.6078  0.1712 -0.2526
16147TIP3    H169856   4.294   0.516  17.385 -0.3315 -0.1274  0.8024
16147TIP3    H269857   4.291   0.661  17.342  1.2942 -0.3439 -0.1515
16148TIP3   OH269858   1.951   1.047   3.065  0.5318 -0.3321 -0.2058
16148TIP3    H169859   1.880   1.096   3.024  0.1858  1.0450  1.8474
16148TIP3    H269860   1.916   1.023   3.151  2.1231 -0.6748  0.3814
16149TIP3   OH269861   4.689   3.191  14.333  0.0288  0.5026 -0.0589
16149TIP3    H169862   4.669   3.120  14.272 -2.1944 -0.4239  1.6014
16149TIP3    H269863   4.664   3.271  14.286 -2.2911 -0.2358 -0.2241
16150TIP3   OH269864   4.565   2.936   2.691 -0.0536  0.7006  0.5916
16150TIP3    H169865   4.608   3.008   2.737 -0.8057  1.5250  0.0312
16150TIP3    H269866   4.619   2.921   2.614  0.5670  0.0902  1.1332
16151TIP3   OH269867   2.671   0.724   3.531  0.4459  0.1690 -0.0042
16151TIP3    H169868   2.667   0.787   3.603  0.4593  1.7033 -1.2691
16151TIP3    H269869   2.650   0.776   3.453 -0.9053 -1.6939 -0.9660
16152TIP3   OH269870   6.718   4.670  16.886  0.7684 -0.3940  0.6562
16152TIP3    H169871   6.729   4.717  16.803 -0.0548 -0.3230  0.5727
16152TIP3    H269872   6.782   4.598  16.881  0.3279 -0.7502 -0.3154
16153TIP3   OH269873   6.601   1.527  13.585  0.0070 -0.2840  0.6571
16153TIP3    H169874   6.534   1.470  13.549  1.1932 -0.7904 -0.8295
16153TIP3    H269875   6.570   1.616  13.567 -0.8814 -0.4766  1.1864
16154TIP3   OH269876   5.673   4.490   4.729  0.0126 -0.1691  0.2543
16154TIP3    H169877   5.763   4.523   4.737 -0.2520  0.1915  2.6091
16154TIP3    H269878   5.629   4.556   4.675  0.2404  1.9209  2.4167
16155TIP3   OH269879   4.801   4.364  14.549 -0.6740 -0.7711  0.0597
16155TIP3    H169880   4.847   4.305  14.609 -3.5272  0.2734  3.6745
16155TIP3    H269881   4.831   4.451  14.573 -0.6297 -0.3951 -1.2815
16156TIP3   OH269882   2.801   1.667   2.242  0.0236  0.8509  0.0864
16156TIP3    H169883   2.813   1.756   2.208  1.1214  1.0080  0.8624
16156TIP3    H269884   2.880   1.649   2.293  0.2647 -0.9277 -0.8160
16157TIP3   OH269885   4.607   0.536   0.677 -0.2873 -0.2937  0.2661
16157TIP3    H169886   4.615   0.596   0.603 -0.1756 -0.2667  0.2985
16157TIP3    H269887   4.681   0.559   0.734  0.6534 -1.4417 -0.4318
16158TIP3   OH269888   0.201   6.728  10.308  0.1017 -0.3648  0.3404
16158TIP3    H169889   0.112   6.747  10.280  0.6390 -1.0130 -1.9806
16158TIP3    H269890   0.198   6.637  10.338 -0.5459  0.4292  2.9351
16159TIP3   OH269891   0.782   4.032   1.415  0.3689  0.4438 -0.1385
16159TIP3    H169892   0.774   4.080   1.497  0.9630 -0.3676  0.4062
16159TIP3    H269893   0.799   4.100   1.350  0.8456  1.0115  0.5639
16160TIP3   OH269894   0.767   3.086   4.240  0.7517 -0.6052 -0.5244
16160TIP3    H169895   0.795   3.158   4.183 -0.0786 -1.1101 -1.6087
16160TIP3    H269896   0.770   3.123   4.328 -1.3039  1.3797 -1.1665
16161TIP3   OH269897   4.942   3.651   5.024  0.0803  0.1969  0.6950
16161TIP3    H169898   4.973   3.643   4.934  1.9343  0.8032  1.2271
16161TIP3    H269899   4.864   3.707   5.018  0.8079  1.1395 -0.4278
16162TIP3   OH269900   5.167   1.031   2.318 -0.3747  0.7112 -0.8040
16162TIP3    H169901   5.076   1.042   2.346 -0.4444 -0.3180 -0.5837
16162TIP3    H269902   5.217   1.031   2.399 -0.1697  1.3075 -0.9272
16163TIP3   OH269903   5.549   5.941   2.869 -0.2905 -0.1111 -0.3197
16163TIP3    H169904   5.476   5.998   2.894 -2.2757 -2.4494 -0.3744
16163TIP3    H269905   5.592   5.988   2.797 -2.2276  1.0191 -0.8174
16164TIP3   OH269906   4.539   5.884  16.065  0.1079 -0.1311  0.1642
16164TIP3    H169907   4.465   5.941  16.087 -0.2771 -0.4165 -0.3763
16164TIP3    H269908   4.503   5.796  16.064  1.0168 -0.6004  2.4938
16165TIP3   OH269909   0.007   2.493  17.305 -0.5162 -0.5139  0.1580
16165TIP3    H169910   0.043   2.570  17.263  0.5748  0.8568  3.2578
16165TIP3    H269911   0.064   2.421  17.278  0.2616  0.3213 -0.4604
16166TIP3   OH269912   5.146   2.660  13.465 -0.0262 -0.3575 -0.2007
16166TIP3    H169913   5.081   2.598  13.433 -0.3951  0.1164 -0.3833
16166TIP3    H269914   5.107   2.746  13.448  0.2058 -0.0828  0.6006
16167TIP3   OH269915   0.907   2.902   1.058 -0.2264  0.3872  0.3221
16167TIP3    H169916   0.891   2.997   1.065  0.1801  0.4650  0.2450
16167TIP3    H269917   0.877   2.879   0.970  0.6526  0.6517 -0.0565
16168TIP3   OH269918   6.627   1.308  15.437  0.1667 -0.3550 -0.0903
16168TIP3    H169919   6.616   1.396  15.400  0.9102 -0.1572  0.1381
16168TIP3    H269920   6.568   1.253  15.386  0.7658  0.0075 -1.1939
16169TIP3   OH269921   5.766   5.016  12.800  0.2117  0.1163  0.2555
16169TIP3    H169922   5.705   4.951  12.766 -0.7097  1.4198 -0.6861
16169TIP3    H269923   5.711   5.075  12.852  0.4755  1.7702 -1.2608
16170TIP3   OH269924   3.878   3.271  16.752 -0.4132  0.2514  0.5099
16170TIP3    H169925   3.883   3.282  16.657 -0.0560 -1.0953  0.3544
16170TIP3    H269926   3.890   3.360  16.787  1.4901  0.4845 -0.6301
16171TIP3   OH269927   4.637   4.034  10.762  0.2622 -0.2401 -0.1534
16171TIP3    H169928   4.643   4.100  10.693 -3.3414  1.3381  0.8171
16171TIP3    H269929   4.672   3.954  10.722  1.4873  1.3883 -2.5854
16172TIP3   OH269930   3.139   0.420  13.911 -0.2862 -0.4809 -0.2293
16172TIP3    H169931   3.135   0.516  13.906 -0.4997 -0.5394 -2.4776
16172TIP3    H269932   3.218   0.397  13.862 -0.1632 -1.4605  0.3981
16173TIP3   OH269933   3.029   2.327  16.193  0.5995  0.0790  0.5903
16173TIP3    H169934   3.085   2.357  16.121 -0.0035 -0.3357 -0.0704
16173TIP3    H269935   3.018   2.234  16.176  0.9257 -0.1418  1.5629
16174TIP3   OH269936   3.678   5.036   3.948 -0.2531 -0.5047 -0.3671
16174TIP3    H169937   3.706   4.945   3.942  2.9743  0.1337  2.1288
16174TIP3    H269938   3.729   5.082   3.881 -0.4762 -0.2761 -0.3832
16175TIP3   OH269939   2.864   5.836  12.814 -0.4572  0.0774  0.4201
16175TIP3    H169940   2.877   5.763  12.874 -0.1605 -0.5226 -0.3533
16175TIP3    H269941   2.769   5.846  12.809 -0.4804  0.3061  1.1808
16176TIP3   OH269942   2.326   6.197  15.216 -0.1696 -0.1566 -0.1140
16176TIP3    H169943   2.394   6.137  15.246  2.6425  2.2808 -1.1780
16176TIP3    H269944   2.333   6.272  15.274 -2.6325 -0.1604  0.2853
16177TIP3   OH269945   0.770   2.541  14.363 -0.0447  0.0134 -0.3002
16177TIP3    H169946   0.808   2.629  14.363  0.3467 -0.1524 -0.5430
16177TIP3    H269947   0.680   2.554  14.392  0.6631  0.2185  2.0955
16178TIP3   OH269948   4.114   4.641  14.399  0.2075 -0.0181  0.6035
16178TIP3    H169949   4.076   4.727  14.379 -0.8173 -0.5928 -0.0390
16178TIP3    H269950   4.038   4.582  14.403  0.9800 -1.0896 -0.0746
16179TIP3   OH269951   5.302   1.581   1.534  0.2703 -0.7486  0.0198
16179TIP3    H169952   5.366   1.610   1.469 -0.8585  1.3812 -0.2240
16179TIP3    H269953   5.323   1.489   1.548  1.4118 -0.9233 -2.3255
16180TIP3   OH269954   0.609   6.748   4.180 -0.3239  0.3563 -0.0642
16180TIP3    H169955   0.704   6.750   4.192 -0.2880 -1.1727  0.1471
16180TIP3    H269956   0.580   6.838   4.196  1.2148  1.1174 -1.3292
16181TIP3   OH269957   3.452   4.924   5.588  0.3962  0.1615  0.3762
16181TIP3    H169958   3.484   5.013   5.574  2.1894 -0.4107  0.5877
16181TIP3    H269959   3.475   4.905   5.679 -0.1763 -0.4598  0.3980
16182TIP3   OH269960   2.689   1.953  13.968 -0.0962  0.5408  0.3501
16182TIP3    H169961   2.742   1.912  14.035 -1.3823  0.2389  1.2293
16182TIP3    H269962   2.639   2.021  14.015 -2.1596 -0.6960  0.0623
16183TIP3   OH269963   4.105   0.750  11.166  0.1970  0.2223 -0.5979
16183TIP3    H169964   4.102   0.660  11.197 -1.9856  0.0133 -1.2874
16183TIP3    H269965   4.194   0.779  11.187  0.4771 -1.5813  0.9933
16184TIP3   OH269966   0.446   3.256   1.909  0.0893  0.5011 -0.4763
16184TIP3    H169967   0.408   3.262   1.821  1.4143 -0.7031 -1.1873
16184TIP3    H269968   0.505   3.181   1.904 -1.1609 -0.7781  1.9985
16185TIP3   OH269969   1.044   3.228   2.693 -0.2873  0.2807 -0.7002
16185TIP3    H169970   1.131   3.262   2.713 -0.4722  0.0392  0.6095
16185TIP3    H269971   1.042   3.142   2.734 -0.1377 -1.0206 -3.2159
16186TIP3   OH269972   1.319   4.651  14.638  0.0631  0.4777  0.1716
16186TIP3    H169973   1.227   4.652  14.664 -0.2436  1.7067 -0.8576
16186TIP3    H269974   1.354   4.735  14.670  0.4214  0.6983 -0.7622
16187TIP3   OH269975   3.922   2.986   5.806  0.0917  0.5116  0.0147
16187TIP3    H169976   3.959   3.037   5.878  0.3795  0.0232  0.2172
16187TIP3    H269977   3.986   2.916   5.790 -0.1633  0.3759 -0.4427
16188TIP3   OH269978   5.253   1.202  14.442  0.0791 -0.4824 -0.2113
16188TIP3    H169979   5.226   1.185  14.533 -0.6842  1.9630  0.1063
16188TIP3    H269980   5.287   1.292  14.444  3.0839 -1.4647 -1.7654
16189TIP3   OH269981   4.702   2.208   3.462 -0.3893  0.4155 -0.0109
16189TIP3    H169982   4.625   2.253   3.427  1.0367  1.5296 -1.9371
16189TIP3    H269983   4.771   2.273   3.458  0.8583 -0.7939  0.9286
16190TIP3   OH269984   6.511   4.056   4.514  0.0001  0.5754  0.5120
16190TIP3    H169985   6.531   4.149   4.524 -0.3341  0.6378  0.6009
16190TIP3    H269986   6.454   4.035   4.588 -0.3069  0.4105  0.2344
16191TIP3   OH269987   6.416   0.692  16.964  0.5523  0.0905  0.3252
16191TIP3    H169988   6.472   0.731  16.896  2.2556  0.8304  2.0576
16191TIP3    H269989   6.419   0.598  16.947  0.8075  0.2690 -0.7070
16192TIP3   OH269990   6.361   3.696   3.460  0.8079 -0.1722 -0.3879
16192TIP3    H169991   6.350   3.614   3.411  0.0884 -0.3703  0.0792
16192TIP3    H269992   6.442   3.684   3.509 -0.4612 -1.6139  1.5240
16193TIP3   OH269993   4.495   3.936  16.110  0.0581  0.1522  0.5970
16193TIP3    H169994   4.548   3.994  16.165  3.5952  0.3622 -2.6016
16193TIP3    H269995   4.450   3.996  16.049  0.3955 -0.2285 -0.0431
16194TIP3   OH269996   0.580   4.426   0.756  0.5789  0.0167  0.5064
16194TIP3    H169997   0.487   4.441   0.738  0.5982  1.0611  1.2042
16194TIP3    H269998   0.593   4.461   0.844  1.3774 -1.2212  0.9056
16195TIP3   OH269999   1.793   5.292  11.337  0.0508 -0.0419  0.4080
16195TIP3    H170000   1.825   5.207  11.310  0.1714 -0.3846  1.5499
16195TIP3    H270001   1.851   5.355  11.294  0.9426 -0.5905  0.7717
16196TIP3   OH270002   1.954   3.299  11.856  0.3963  1.1211  0.0642
16196TIP3    H170003   2.004   3.374  11.824 -0.3273  2.2616  1.4695
16196TIP3    H270004   2.014   3.253  11.915  0.9768  0.3369 -1.1179
16197TIP3   OH270005   0.828   5.955  10.964 -0.5882  0.3143  0.4609
16197TIP3    H170006   0.868   5.968  10.878  0.7350  0.6214  1.1031
16197TIP3    H270007   0.747   5.908  10.946  0.7608 -1.6446 -0.7632
16198TIP3   OH270008   0.641   2.811   6.073  0.0731 -0.6590 -0.1185
16198TIP3    H170009   0.728   2.845   6.054  0.0267  0.4119  1.4211
16198TIP3    H270010   0.657   2.739   6.135 -0.1898  0.4401  1.2685
16199TIP3   OH270011   3.925   3.850  15.293  0.6392 -0.1896  0.1046
16199TIP3    H170012   3.943   3.818  15.204  0.4065  0.5539 -0.2166
16199TIP3    H270013   3.870   3.782  15.332 -0.2117  0.0045 -0.7201
16200TIP3   OH270014   0.040   5.098   0.103  0.6268 -0.0543 -0.0726
16200TIP3    H170015   0.128   5.136   0.107  0.9392 -0.8947  1.3245
16200TIP3    H270016   0.053   5.004   0.114 -0.6200  0.0412  3.2454
16201TIP3   OH270017   5.280   3.252  11.811  0.7404 -0.0642 -0.2175
16201TIP3    H170018   5.307   3.256  11.719 -0.7829 -1.2363 -0.7400
16201TIP3    H270019   5.317   3.332  11.849  3.4034 -0.6598 -1.2598
16202TIP3   OH270020   2.531   4.816   2.243  0.5277  0.9676 -0.5150
16202TIP3    H170021   2.447   4.834   2.285  0.4002 -0.0864 -0.3039
16202TIP3    H270022   2.554   4.899   2.200 -1.6299  0.7194 -2.3609
16203TIP3   OH270023   1.570   2.473   3.333 -0.2880 -0.0666 -0.4548
16203TIP3    H170024   1.611   2.446   3.415  0.8578 -0.9626 -1.2896
16203TIP3    H270025   1.541   2.563   3.350  0.9987  0.1930  0.5590
16204TIP3   OH270026   6.688   3.548   5.851 -0.0153 -0.1347 -0.4180
16204TIP3    H170027   6.769   3.591   5.824 -0.3172 -0.2168 -1.5094
16204TIP3    H270028   6.697   3.536   5.946  1.2600 -0.1806 -0.5293
16205TIP3   OH270029   5.921   4.857  15.392 -0.2386 -0.0285 -0.0446
16205TIP3    H170030   5.913   4.950  15.369 -0.9062 -0.2586 -0.8178
16205TIP3    H270031   5.842   4.817  15.355  0.2869 -0.9841 -0.1583
16206TIP3   OH270032   5.454   1.244   1.159 -0.4348  0.6165  0.2814
16206TIP3    H170033   5.486   1.322   1.113 -0.9069  0.0594 -1.0397
16206TIP3    H270034   5.491   1.251   1.247  1.5590  1.0603 -0.5529
16207TIP3   OH270035   0.931   2.082   0.767 -0.0577 -0.2113  0.1538
16207TIP3    H170036   0.965   2.170   0.751 -2.5077  0.4366 -2.3949
16207TIP3    H270037   0.912   2.080   0.861  0.1888  1.9460  0.2878
16208TIP3   OH270038   2.769   4.086   5.151  0.6096  0.2300  0.2487
16208TIP3    H170039   2.781   4.148   5.079  0.6226 -1.3302 -1.1525
16208TIP3    H270040   2.858   4.055   5.171  1.0532  2.8727  3.1137
16209TIP3   OH270041   4.620   1.424  17.266  0.5746 -0.1292 -0.4819
16209TIP3    H170042   4.668   1.458  17.341 -0.4696  0.7778 -0.2142
16209TIP3    H270043   4.581   1.342  17.297 -0.5839  0.6781  0.2653
16210TIP3   OH270044   4.729   0.195  10.466 -0.1937 -0.4517 -0.2004
16210TIP3    H170045   4.800   0.146  10.425  0.1437  0.5802 -0.8783
16210TIP3    H270046   4.650   0.145  10.445 -0.2097  0.6778 -3.2757
16211TIP3   OH270047   1.717   2.927   3.340  0.3771  0.0359  0.1684
16211TIP3    H170048   1.675   3.013   3.332  2.0757  0.9983  1.0257
16211TIP3    H270049   1.767   2.917   3.258 -1.8273 -1.3643 -1.1121
16212TIP3   OH270050   3.559   2.434  12.330 -0.1458 -0.3064 -0.1431
16212TIP3    H170051   3.631   2.378  12.357  2.8161  0.9008 -4.4349
16212TIP3    H270052   3.485   2.375  12.315  0.9898 -2.1033  1.0664
16213TIP3   OH270053   1.870   0.328   3.920  0.0960  0.0125  0.2817
16213TIP3    H170054   1.952   0.376   3.929 -0.1373  0.7575 -1.3061
16213TIP3    H270055   1.896   0.236   3.924  1.0478  0.2370 -0.4139
16214TIP3   OH270056   2.331   0.111   3.616 -0.8366 -0.5297  0.8130
16214TIP3    H170057   2.409   0.058   3.636  0.4882  0.9528 -0.1209
16214TIP3    H270058   2.331   0.180   3.683 -1.0865 -0.2837  0.5656
16215TIP3   OH270059   2.585   5.566  14.528 -0.3566  0.3236  0.3011
16215TIP3    H170060   2.563   5.510  14.453 -2.6997  1.5828 -0.0479
16215TIP3    H270061   2.591   5.654  14.492 -0.0854  0.7688  1.3891
16216TIP3   OH270062   2.555   5.497  13.679 -0.0263  0.0400 -0.2513
16216TIP3    H170063   2.627   5.558  13.660  0.4960 -0.1172  1.0773
16216TIP3    H270064   2.481   5.553  13.700 -0.1597  0.2053 -1.1327
16217TIP3   OH270065   0.188   0.302  11.429  0.4345  0.2434 -0.2602
16217TIP3    H170066   0.271   0.277  11.388 -0.9999 -2.2249 -1.9134
16217TIP3    H270067   0.134   0.334  11.357  0.0461  2.3310  0.8803
16218TIP3   OH270068   2.795   0.353  10.795  0.0750 -0.1762 -0.3318
16218TIP3    H170069   2.875   0.342  10.745  0.2371 -0.1437 -0.0832
16218TIP3    H270070   2.738   0.406  10.739  0.4580  0.3165 -0.2593
16219TIP3   OH270071   4.089   6.267   2.503 -0.3551 -0.1145  0.2244
16219TIP3    H170072   4.106   6.300   2.415 -0.3729 -0.8038 -0.0439
16219TIP3    H270073   4.176   6.242   2.536 -0.3468  0.1480  0.4130
16220TIP3   OH270074   5.185   0.110  15.906  0.1109  0.2451 -0.4198
16220TIP3    H170075   5.101   0.153  15.890  0.2782 -0.3874 -3.6168
16220TIP3    H270076   5.230   0.168  15.967 -2.2473  1.0846  0.6530
16221TIP3   OH270077   0.515   5.776  12.802 -0.3005 -0.4066 -0.2456
16221TIP3    H170078   0.489   5.729  12.881 -0.0613  1.4646  1.0199
16221TIP3    H270079   0.581   5.720  12.760 -0.4878 -1.4681  0.8493
16222TIP3   OH270080   0.426   4.659  17.404  0.7301  0.3698 -0.3163
16222TIP3    H170081   0.342   4.697  17.379  0.4287 -0.4293 -0.5177
16222TIP3    H270082   0.487   4.689  17.336  0.5679  0.7463 -0.3009
16223TIP3   OH270083   2.767   2.503  16.945 -0.3968 -0.0129 -0.3862
16223TIP3    H170084   2.827   2.556  16.893 -1.2696  0.6499 -0.7382
16223TIP3    H270085   2.680   2.522  16.909 -0.9661  0.0499  0.9601
16224TIP3   OH270086   6.698   0.390  12.086  0.3227  0.5190 -0.0856
16224TIP3    H170087   6.696   0.367  11.993 -1.7345 -0.2270  0.1153
16224TIP3    H270088   6.792   0.398  12.106  0.8001  1.5090 -2.3915
16225TIP3   OH270089   4.155   4.511   5.500  0.1628 -0.1889 -0.4722
16225TIP3    H170090   4.249   4.525   5.505  0.1673 -0.1926 -0.5572
16225TIP3    H270091   4.117   4.580   5.555  0.2411 -0.4929 -0.0273
16226TIP3   OH270092   6.267   1.165  11.725  0.1848 -0.6072 -0.2263
16226TIP3    H170093   6.345   1.221  11.723 -0.1869 -0.0698  0.0444
16226TIP3    H270094   6.195   1.224  11.705 -0.2014 -1.0219 -0.0705
16227TIP3   OH270095   5.258   0.586  15.005  0.2185 -0.0452 -0.0024
16227TIP3    H170096   5.290   0.573  14.915 -0.1964 -1.3046  0.0069
16227TIP3    H270097   5.214   0.670  15.003  0.6647  0.1826 -0.8519
16228TIP3   OH270098   4.172   5.079   1.936 -0.0617  0.9567  0.0294
16228TIP3    H170099   4.232   5.092   1.862 -0.8839  0.5218 -0.7331
16228TIP3    H270100   4.097   5.135   1.917  0.2012  1.7182  1.1248
16229TIP3   OH270101   3.290   0.637  14.218 -0.1891  0.1657 -0.0126
16229TIP3    H170102   3.342   0.561  14.193 -0.6670 -0.3590  0.5417
16229TIP3    H270103   3.229   0.604  14.284 -0.7834  0.9099 -0.1672
16230TIP3   OH270104   5.895   6.334  13.710 -0.3285  0.1200  0.5141
16230TIP3    H170105   5.981   6.364  13.740  0.4026 -1.8982  0.5752
16230TIP3    H270106   5.905   6.324  13.615 -0.8725  0.9533  0.3550
16231TIP3   OH270107   5.871   2.685  16.349  0.0275 -0.0372  0.1473
16231TIP3    H170108   5.818   2.762  16.331  0.2081 -0.0839 -0.5958
16231TIP3    H270109   5.808   2.615  16.367 -0.1393  0.4739  1.7213
16232TIP3   OH270110   6.474   6.316   3.841  0.2233  0.2788  0.0133
16232TIP3    H170111   6.513   6.382   3.899  2.1164 -0.6704 -0.0856
16232TIP3    H270112   6.407   6.274   3.893  1.9580 -0.6312  1.6152
16233TIP3   OH270113   2.493   1.536  10.491 -0.3085  0.0608 -0.2918
16233TIP3    H170114   2.424   1.496  10.438  0.6298 -0.3926 -1.1985
16233TIP3    H270115   2.515   1.617  10.445 -2.0253  1.5797  1.4028
16234TIP3   OH270116   2.145   1.501  16.498 -0.1626  0.1412  0.7139
16234TIP3    H170117   2.153   1.589  16.462 -3.0244  0.4116  0.4845
16234TIP3    H270118   2.089   1.512  16.575  1.2798 -1.2116  2.0348
16235TIP3   OH270119   5.022   3.078  10.881  0.2291 -0.0356 -0.9036
16235TIP3    H170120   5.045   3.111  10.795  1.0224  0.8833 -0.3636
16235TIP3    H270121   4.946   3.022  10.867  1.4641 -1.4337 -2.4719
16236TIP3   OH270122   6.169   4.179  16.870  0.7035  0.0524  0.0393
16236TIP3    H170123   6.250   4.185  16.819  1.6021 -0.8243  1.3137
16236TIP3    H270124   6.197   4.157  16.959 -0.9107  0.1418  0.6174
16237TIP3   OH270125   0.965   0.618  14.678 -0.2343 -0.2301 -0.3496
16237TIP3    H170126   1.023   0.546  14.654 -1.1692 -0.6643 -1.3870
16237TIP3    H270127   0.884   0.600  14.632 -0.7232  1.1357 -0.0740
16238TIP3   OH270128   2.353   6.392   2.959  0.3036 -0.5370 -0.2442
16238TIP3    H170129   2.363   6.475   3.005  0.7813 -0.8081  0.1452
16238TIP3    H270130   2.269   6.400   2.914  0.7858  0.5176 -0.9735
16239TIP3   OH270131   0.885   4.598   4.369 -0.2435 -0.3757 -0.7284
16239TIP3    H170132   0.849   4.594   4.457 -0.3164  3.0206 -0.4718
16239TIP3    H270133   0.814   4.566   4.313 -0.2765 -2.3541  0.3578
16240TIP3   OH270134   1.045   5.186   4.590 -0.5011  0.1898 -0.2929
16240TIP3    H170135   1.031   5.242   4.666 -0.6884  1.8201 -1.4885
16240TIP3    H270136   1.138   5.164   4.594 -0.3074  1.0047 -0.0725
16241TIP3   OH270137   0.544   2.278  12.932 -0.5792 -0.0006 -0.2565
16241TIP3    H170138   0.633   2.241  12.939 -0.5696 -0.4531 -2.1744
16241TIP3    H270139   0.558   2.372  12.920 -0.4966  0.2984  1.7677
16242TIP3   OH270140   3.290   3.797   2.503  0.5292  0.4770 -0.1885
16242TIP3    H170141   3.245   3.877   2.475 -0.8427  0.0838  0.8326
16242TIP3    H270142   3.259   3.729   2.443  0.3164  0.3483  0.0664
16243TIP3   OH270143   0.933   0.444  16.433  0.3376  0.2054  0.6778
16243TIP3    H170144   0.951   0.443  16.339  0.2227  0.0710  0.6574
16243TIP3    H270145   0.842   0.416  16.441 -0.1314  1.6501  0.7311
16244TIP3   OH270146   0.051   2.852   5.394 -0.2388 -0.0545  0.5035
16244TIP3    H170147   0.066   2.766   5.434  0.9051  1.1798  2.9545
16244TIP3    H270148  -0.041   2.871   5.413 -0.4105 -0.6016  0.2318
16245TIP3   OH270149   3.359   1.280  15.737 -0.2558 -0.5378 -0.3628
16245TIP3    H170150   3.447   1.294  15.770 -0.3514  2.6521 -1.1706
16245TIP3    H270151   3.371   1.252  15.646 -0.1149 -2.4986  0.2117
16246TIP3   OH270152   3.728   0.016  12.391  0.0244 -0.6644 -0.3921
16246TIP3    H170153   3.801  -0.024  12.343  0.5358  0.2567 -0.4200
16246TIP3    H270154   3.770   0.080  12.449 -0.8709  1.6600 -2.1368
16247TIP3   OH270155   3.753   3.874  12.726  0.9510  0.0971  0.1907
16247TIP3    H170156   3.765   3.859  12.632  1.5465  0.8366  0.1414
16247TIP3    H270157   3.665   3.912  12.732  0.8537 -0.0799 -0.0464
16248TIP3   OH270158   6.654   1.186   5.906 -0.1418  0.4586  0.9693
16248TIP3    H170159   6.712   1.133   5.960 -0.7700 -1.0236  0.2609
16248TIP3    H270160   6.713   1.232   5.846  0.3549 -1.6408 -0.2878
16249TIP3   OH270161   2.896   2.323  12.102  0.1983  0.3195  0.0868
16249TIP3    H170162   2.816   2.373  12.120  0.1425 -0.0930  1.0606
16249TIP3    H270163   2.868   2.253  12.043 -0.4249 -0.4940  1.2905
16250TIP3   OH270164   0.279   3.058   2.571  0.0427 -0.2909  0.0215
16250TIP3    H170165   0.307   3.136   2.523 -1.2466  1.0432  1.2808
16250TIP3    H270166   0.218   3.014   2.512  0.7245 -0.2991 -0.6790
16251TIP3   OH270167   2.374   1.235  12.691  0.5214  0.1316  1.0378
16251TIP3    H170168   2.312   1.196  12.753  0.0045  1.6201  1.5181
16251TIP3    H270169   2.387   1.169  12.624 -2.0460 -0.0340  0.6178
16252TIP3   OH270170   0.650   1.780   6.312  0.1989  0.2843  0.3112
16252TIP3    H170171   0.590   1.706   6.305  0.7683 -0.2018  0.5580
16252TIP3    H270172   0.719   1.762   6.249  0.3387  0.6196  0.3637
16253TIP3   OH270173   4.815   2.430   1.923 -0.2305 -0.4186  0.2451
16253TIP3    H170174   4.760   2.508   1.930 -0.4011 -0.4390 -0.7765
16253TIP3    H270175   4.809   2.389   2.010  0.7047  1.2454  1.1559
16254TIP3   OH270176   0.973   6.490   4.701 -0.0832  0.4439 -0.1856
16254TIP3    H170177   0.972   6.395   4.711  1.0477  0.3786 -0.5141
16254TIP3    H270178   1.026   6.505   4.623  1.4023  1.4067  0.9538
16255TIP3   OH270179   2.732   3.688  17.374 -0.1635  0.5901 -0.1411
16255TIP3    H170180   2.716   3.743  17.451  2.0883 -0.6947  1.3444
16255TIP3    H270181   2.818   3.714  17.343  0.5330 -1.3895  0.0059
16256TIP3   OH270182   6.198   5.949   4.116  0.6386 -0.1885 -0.3729
16256TIP3    H170183   6.144   5.881   4.156 -0.7719  0.6099 -0.8569
16256TIP3    H270184   6.225   6.004   4.189 -0.3469  0.1746 -0.2598
16257TIP3   OH270185   3.105   5.073   1.426  0.1302 -0.2560  0.1071
16257TIP3    H170186   3.186   5.065   1.376 -1.8345 -0.9418 -3.2266
16257TIP3    H270187   3.075   5.162   1.409  0.5414  0.3005  2.0571
16258TIP3   OH270188   6.161   5.227  12.850  0.0270  0.1830 -0.0021
16258TIP3    H170189   6.205   5.270  12.924 -1.8849 -3.1498  3.4628
16258TIP3    H270190   6.084   5.281  12.834 -1.1263 -0.4739  2.6860
16259TIP3   OH270191   5.770   6.049   0.096  0.3473 -0.0463  0.2505
16259TIP3    H170192   5.690   6.023   0.051  0.4955 -0.7137  0.3608
16259TIP3    H270193   5.771   6.144   0.090 -0.0316 -0.0829 -0.4750
16260TIP3   OH270194   1.227   4.016  12.868  0.6253 -0.0792  0.2906
16260TIP3    H170195   1.241   4.087  12.931  0.2493 -0.6223  1.0027
16260TIP3    H270196   1.232   4.058  12.782  2.1272  0.5167  0.6402
16261TIP3   OH270197   5.675   0.385  17.087 -0.2114 -0.0440  0.1614
16261TIP3    H170198   5.655   0.292  17.091  1.7416 -0.4856  0.6720
16261TIP3    H270199   5.695   0.401  16.994  0.6681 -0.4428  0.2670
16262TIP3   OH270200   2.946   4.586   3.039  0.4454 -0.2783  0.9191
16262TIP3    H170201   2.900   4.577   2.955 -1.7282 -0.9746  2.1077
16262TIP3    H270202   2.999   4.506   3.045 -0.7379 -1.0836  0.9622
16263TIP3   OH270203   2.851   6.325  13.312  0.2945  0.0339  0.4767
16263TIP3    H170204   2.808   6.410  13.302  1.9781  0.8267 -0.4120
16263TIP3    H270205   2.835   6.300  13.403  0.7900  1.9004  1.1191
16264TIP3   OH270206   3.254   5.779  17.000  0.2389  0.1651  0.3157
16264TIP3    H170207   3.310   5.720  16.950  1.0289  1.2676 -0.1377
16264TIP3    H270208   3.168   5.772  16.958  0.1590 -1.0903  0.6437
16265TIP3   OH270209   4.811   4.032   5.280  0.2659 -0.3701  0.3916
16265TIP3    H170210   4.889   4.027   5.335 -0.2372 -1.8789  1.0210
16265TIP3    H270211   4.802   4.126   5.260  1.0539  0.0903  2.0055
16266TIP3   OH270212   1.108   2.399   1.465  0.1435 -0.9030  0.2110
16266TIP3    H170213   1.110   2.495   1.473 -0.1092 -0.9609  1.1230
16266TIP3    H270214   1.128   2.368   1.553  0.5243 -1.6998 -0.1468
16267TIP3   OH270215   4.930   4.742   0.389  0.0289 -0.6664 -0.7569
16267TIP3    H170216   4.870   4.704   0.453 -0.0511  1.1733  0.3338
16267TIP3    H270217   5.015   4.703   0.410 -0.4850 -2.2351 -1.4210
16268TIP3   OH270218   0.255   2.688  12.449  0.1984 -0.4031  0.0916
16268TIP3    H170219   0.321   2.629  12.413  0.6424  0.2547 -0.2009
16268TIP3    H270220   0.173   2.661  12.407  0.3708 -0.8711  0.0462
16269TIP3   OH270221   1.181   3.495  16.923 -0.8867  0.0792  0.0887
16269TIP3    H170222   1.157   3.406  16.895  1.5239 -0.5228 -0.3009
16269TIP3    H270223   1.205   3.486  17.015  1.0169 -0.0929 -0.3794
16270TIP3   OH270224   6.336   0.674  14.783  0.5887 -0.0839  0.4000
16270TIP3    H170225   6.338   0.585  14.748 -3.5677  0.1307 -0.9033
16270TIP3    H270226   6.265   0.674  14.847  0.9369  2.1790  0.9108
16271TIP3   OH270227   3.883   4.968  15.556 -0.0231  0.0182  0.8364
16271TIP3    H170228   3.804   5.009  15.519  0.3411  0.7179  0.8211
16271TIP3    H270229   3.913   4.907  15.488  0.4341  1.0255  0.1096
16272TIP3   OH270230   1.569   1.477  11.660  0.3280 -0.0415 -0.1144
16272TIP3    H170231   1.516   1.478  11.580  0.1920 -0.5551 -0.0298
16272TIP3    H270232   1.576   1.385  11.684 -0.2214  0.1491  0.8481
16273TIP3   OH270233   6.480   0.656   4.058  0.1698  0.6148 -0.2124
16273TIP3    H170234   6.555   0.712   4.076 -0.2882  1.5051 -0.9946
16273TIP3    H270235   6.433   0.650   4.142  0.6894  0.6756  0.0856
16274TIP3   OH270236   1.233   5.654  16.645  0.3536  0.4986 -0.2250
16274TIP3    H170237   1.227   5.718  16.574  0.3313 -0.0207 -0.6942
16274TIP3    H270238   1.232   5.569  16.601 -0.7664  0.1384  0.4631
16275TIP3   OH270239   3.509   6.549  10.896 -0.5567 -0.1211  0.3151
16275TIP3    H170240   3.495   6.567  10.989  1.2685 -2.5208  1.1576
16275TIP3    H270241   3.583   6.489  10.894  0.2512  0.7799 -2.8087
16276TIP3   OH270242   6.102   5.498   2.318 -0.1043 -0.3463 -0.0683
16276TIP3    H170243   6.081   5.409   2.289  1.9557 -1.1894  0.8408
16276TIP3    H270244   6.192   5.493   2.348  1.2744  2.8078 -3.0128
16277TIP3   OH270245   0.803   6.094   2.403 -0.0362  0.4448  0.3596
16277TIP3    H170246   0.765   6.111   2.317 -0.2173  1.0208  0.5442
16277TIP3    H270247   0.834   6.180   2.432  3.6088 -0.3397 -0.7780
16278TIP3   OH270248   4.766   0.339   4.684  0.3941 -0.0762 -0.1298
16278TIP3    H170249   4.682   0.311   4.647  0.0854  0.0463  0.4703
16278TIP3    H270250   4.830   0.279   4.645 -0.1704 -1.1992  0.5854
16279TIP3   OH270251   2.164   2.744   3.288 -0.1157 -0.0331  0.1206
16279TIP3    H170252   2.203   2.754   3.375  0.3839 -0.9064  0.0119
16279TIP3    H270253   2.072   2.724   3.305  0.3879 -2.3126  0.5670
16280TIP3   OH270254   0.719   5.324  15.214  0.3725  0.1654  0.2648
16280TIP3    H170255   0.630   5.318  15.248  0.5222 -1.0293  0.4858
16280TIP3    H270256   0.708   5.358  15.125 -0.3063 -0.0166  0.2693
16281TIP3   OH270257   5.679   0.432   3.718  0.0535  0.7346 -0.2373
16281TIP3    H170258   5.719   0.445   3.632 -0.0754  1.2502 -0.2222
16281TIP3    H270259   5.711   0.506   3.771  2.5699 -1.1275  1.0736
16282TIP3   OH270260   2.711   3.121  11.164  0.3676  1.0564 -0.1485
16282TIP3    H170261   2.632   3.104  11.114  0.9099 -0.6131 -0.4918
16282TIP3    H270262   2.680   3.151  11.249 -0.7100 -1.4236  0.4061
16283TIP3   OH270263   2.297   4.161  10.911 -0.7101 -0.7176  0.1941
16283TIP3    H170264   2.206   4.134  10.903 -0.8773 -0.2164  0.3673
16283TIP3    H270265   2.294   4.242  10.962 -0.2796 -0.0606 -0.7892
16284TIP3   OH270266   0.059   4.466   1.312 -0.4138 -0.4306  0.1012
16284TIP3    H170267   0.124   4.527   1.278 -2.4799  1.2552 -1.0713
16284TIP3    H270268  -0.017   4.478   1.256 -1.6779 -2.5354  1.2188
16285TIP3   OH270269   2.460   2.905  15.696 -0.2374 -0.0801  0.5374
16285TIP3    H170270   2.451   2.996  15.666  1.4878 -0.6832 -2.2270
16285TIP3    H270271   2.421   2.853  15.626  0.0562 -1.5137  1.3981
16286TIP3   OH270272   3.094   0.141  11.992  0.3530 -0.0001 -0.1613
16286TIP3    H170273   3.066   0.141  11.900  1.0059  1.8567 -0.4146
16286TIP3    H270274   3.189   0.126  11.988  0.1975 -1.2240  0.3268
16287TIP3   OH270275   6.703   4.848   0.256 -0.2615 -0.4368 -0.7735
16287TIP3    H170276   6.741   4.904   0.323 -2.5442  0.3929 -0.0866
16287TIP3    H270277   6.740   4.761   0.273 -0.5494 -0.1840  1.3708
16288TIP3   OH270278   4.343   1.397  13.522 -0.1451  0.1911  0.1816
16288TIP3    H170279   4.279   1.392  13.451  0.3816  0.5887 -0.3252
16288TIP3    H270280   4.428   1.397  13.479  0.1622  2.2424  0.6643
16289TIP3   OH270281   3.034   0.882  12.779 -0.1171 -0.1160  0.4979
16289TIP3    H170282   2.938   0.878  12.779 -0.1100 -0.3125 -0.0452
16289TIP3    H270283   3.061   0.829  12.704  0.4175 -0.0217  0.6163
16290TIP3   OH270284   3.118   0.277  14.195  0.0318  0.2433 -0.1851
16290TIP3    H170285   3.087   0.319  14.115 -0.4121 -0.9359 -0.6626
16290TIP3    H270286   3.141   0.349  14.253 -1.1587  1.1521 -0.7871
16291TIP3   OH270287   0.321   4.327   6.212 -0.0419 -0.0356  0.5944
16291TIP3    H170288   0.243   4.323   6.157  1.4704 -0.6240 -1.6622
16291TIP3    H270289   0.291   4.301   6.299 -2.2545 -0.7281 -0.3125
16292TIP3   OH270290   3.201   3.549   3.445  0.0665 -0.3123 -0.2507
16292TIP3    H170291   3.197   3.543   3.350 -0.7583 -2.2346 -0.1401
16292TIP3    H270292   3.290   3.577   3.464  0.5782 -0.9970 -1.5485
16293TIP3   OH270293   6.355   5.448  12.872  0.5945 -0.0795  1.3838
16293TIP3    H170294   6.287   5.506  12.909  0.8337  0.4624  0.9876
16293TIP3    H270295   6.437   5.483  12.905  0.8400  0.5883  0.1492
16294TIP3   OH270296   2.381   6.321   2.658 -0.0197  0.5803 -0.6206
16294TIP3    H170297   2.327   6.246   2.634  0.2792  0.3956 -0.7175
16294TIP3    H270298   2.362   6.335   2.751  2.6169 -1.9040  0.4379
16295TIP3   OH270299   6.499   3.439  16.558  0.5029 -0.0719  0.5628
16295TIP3    H170300   6.437   3.507  16.584 -0.9625 -1.9794  2.4236
16295TIP3    H270301   6.531   3.466  16.472 -2.0716  1.5442  0.0265
16296TIP3   OH270302   5.316   4.077   5.768  0.4256  0.6251  0.0393
16296TIP3    H170303   5.238   4.063   5.821  0.3281  2.9172  0.6011
16296TIP3    H270304   5.378   4.118   5.828  1.4586  0.4037 -0.8448
16297TIP3   OH270305   4.506   0.062  12.768  0.5362 -0.5556 -0.6766
16297TIP3    H170306   4.441   0.016  12.715 -2.1468  2.5354 -0.3528
16297TIP3    H270307   4.558   0.112  12.704  1.1248 -1.2393 -0.7500
16298TIP3   OH270308   4.387   3.421  12.277 -0.0118  0.5095 -0.3502
16298TIP3    H170309   4.424   3.411  12.365  0.0743 -1.7915 -0.5887
16298TIP3    H270310   4.324   3.493  12.285 -1.2429 -0.7134  2.0490
16299TIP3   OH270311   1.130   4.156  11.307 -0.3354 -0.2820  0.4676
16299TIP3    H170312   1.218   4.122  11.287 -0.2316 -0.1174  0.6413
16299TIP3    H270313   1.070   4.089  11.273 -0.1435 -0.3696  0.2996
16300TIP3   OH270314   4.616   6.282  16.155 -0.6041  0.1455 -0.3860
16300TIP3    H170315   4.585   6.333  16.230  0.6787  1.6005 -0.8004
16300TIP3    H270316   4.537   6.253  16.111 -1.4064  2.5436 -0.6301
16301TIP3   OH270317   2.588   5.862  15.966 -0.8347 -0.6392  0.0659
16301TIP3    H170318   2.511   5.859  16.023 -0.7769 -0.9339  0.1335
16301TIP3    H270319   2.553   5.852  15.878 -0.9093 -0.3597  0.0635
16302TIP3   OH270320   6.695   0.722   3.235  0.4435 -0.0302 -0.2204
16302TIP3    H170321   6.754   0.671   3.179  0.7950 -1.2740  1.2248
16302TIP3    H270322   6.753   0.769   3.295  0.1229  2.0988 -1.4768
16303TIP3   OH270323   0.456   2.095  10.049 -0.1366  0.2709 -0.5996
16303TIP3    H170324   0.443   2.101  10.144 -0.6525  3.1823 -0.7595
16303TIP3    H270325   0.545   2.125  10.035  0.5894 -1.8979 -0.9622
16304TIP3   OH270326   6.625   6.170  12.796  0.2651  0.6317  0.5661
16304TIP3    H170327   6.641   6.147  12.705  3.1912  1.0681  0.8860
16304TIP3    H270328   6.590   6.090  12.835 -0.1532  0.1661 -0.7163
16305TIP3   OH270329   5.623   3.599  16.550 -0.4416 -0.1329 -0.0168
16305TIP3    H170330   5.673   3.564  16.624  1.6352 -0.7546 -1.6011
16305TIP3    H270331   5.548   3.642  16.590  1.8785  1.8278  2.6403
16306TIP3   OH270332   4.912   2.526  13.405 -0.0031 -0.2509 -0.5429
16306TIP3    H170333   4.939   2.551  13.316  1.8324  4.2411  0.9630
16306TIP3    H270334   4.822   2.557  13.411 -0.1207 -0.5304 -0.8438
16307TIP3   OH270335   4.591   0.539  12.770  0.2539  0.4135 -0.6717
16307TIP3    H170336   4.675   0.533  12.724  0.5356 -2.7051 -0.0299
16307TIP3    H270337   4.532   0.482  12.720 -1.2068  1.7492 -0.5395
16308TIP3   OH270338   0.867   1.885   4.668 -0.0783 -0.2183 -0.3777
16308TIP3    H170339   0.934   1.921   4.726  2.5407 -2.0576 -1.9866
16308TIP3    H270340   0.820   1.821   4.722  2.4006 -2.0186 -0.1740
16309TIP3   OH270341   6.161   6.069   3.550 -0.2090 -0.2358  0.4658
16309TIP3    H170342   6.147   5.975   3.542 -1.4225 -0.1114  0.9381
16309TIP3    H270343   6.089   6.108   3.501  1.2418  0.4729 -1.2129
16310TIP3   OH270344   2.266   6.057  16.574 -0.0251 -0.0008 -0.5674
16310TIP3    H170345   2.205   5.991  16.606  2.2030 -1.5524  0.8463
16310TIP3    H270346   2.330   6.008  16.522  0.0860  1.5360 -1.9611
16311TIP3   OH270347   0.990   1.902   3.193 -0.0632 -0.4656 -0.0105
16311TIP3    H170348   1.043   1.934   3.267  0.9061 -1.8144 -0.0934
16311TIP3    H270349   0.923   1.970   3.181  3.1813  2.7621 -1.6561
16312TIP3   OH270350   3.793   4.458  10.834  0.2491  0.0536 -0.2077
16312TIP3    H170351   3.816   4.371  10.802  1.0981  0.8208 -1.7477
16312TIP3    H270352   3.747   4.499  10.761 -1.2970  0.4658  0.9523
16313TIP3   OH270353   0.467   5.933   4.150 -0.5551 -0.9149 -0.0870
16313TIP3    H170354   0.390   5.989   4.157 -0.5862 -1.0252  0.5131
16313TIP3    H270355   0.464   5.899   4.060  0.0152  0.7967 -0.7863
16314TIP3   OH270356   0.842   4.767   1.977 -0.0314 -0.2651 -0.4745
16314TIP3    H170357   0.748   4.748   1.981 -0.1569 -0.7775 -3.3335
16314TIP3    H270358   0.847   4.852   1.934  0.8345  0.8563  1.7057
16315TIP3   OH270359   4.298   4.291  16.179  0.1017 -0.4186  0.3008
16315TIP3    H170360   4.243   4.223  16.219  0.7513 -0.7996  0.5573
16315TIP3    H270361   4.328   4.252  16.097 -1.0455  0.2788 -0.4833
16316TIP3   OH270362   5.620   6.565  14.685  0.1737  0.1704  0.0468
16316TIP3    H170363   5.592   6.591  14.598 -0.7210 -1.4581 -0.2019
16316TIP3    H270364   5.584   6.631  14.744 -1.0079  0.1485 -0.6352
16317TIP3   OH270365   1.658   0.142  16.465 -0.1443 -0.0709  0.6324
16317TIP3    H170366   1.696   0.059  16.438 -0.1126  0.0590  0.2786
16317TIP3    H270367   1.728   0.184  16.517  0.2539  0.2280 -0.1325
16318TIP3   OH270368   3.218   4.273   2.177 -0.0944  0.4505  0.1324
16318TIP3    H170369   3.212   4.368   2.171 -2.2815  0.4134  1.1137
16318TIP3    H270370   3.214   4.243   2.086 -1.4604  1.2288 -0.0897
16319TIP3   OH270371   0.960   1.515   3.250 -0.3379 -0.0834 -0.2632
16319TIP3    H170372   0.931   1.593   3.297  0.0459  0.6469 -1.1923
16319TIP3    H270373   1.004   1.549   3.172  0.4752 -1.2180 -0.3326
16320TIP3   OH270374   0.786   4.748   4.814  0.1531  0.0385  0.6920
16320TIP3    H170375   0.819   4.727   4.902 -2.0132 -1.2694  1.2628
16320TIP3    H270376   0.754   4.838   4.822 -0.2959 -0.1671  1.3454
16321TIP3   OH270377   4.814   0.747  12.228 -0.1202  0.2659  0.4834
16321TIP3    H170378   4.897   0.741  12.180 -0.7609 -1.8283 -0.4979
16321TIP3    H270379   4.761   0.807  12.177  0.0608 -0.0362 -0.0653
16322TIP3   OH270380   0.888   2.807   5.537 -0.0388  0.0653  0.5527
16322TIP3    H170381   0.870   2.717   5.508 -0.3669  0.2063  0.3027
16322TIP3    H270382   0.965   2.833   5.487  1.2440 -0.7489  2.0590
16323TIP3   OH270383   4.885   0.179   3.699  0.1341  0.4410  0.2563
16323TIP3    H170384   4.904   0.095   3.740  1.0834  0.7036  0.3879
16323TIP3    H270385   4.789   0.184   3.696  0.0540  0.0379  1.6566
16324TIP3   OH270386   5.674   1.027   5.345 -0.1419 -0.0112  0.5374
16324TIP3    H170387   5.730   1.105   5.353 -0.3328  0.3346 -1.1881
16324TIP3    H270388   5.588   1.057   5.374 -0.4087  0.6906 -0.8781
16325TIP3   OH270389   0.347   4.641  15.895  0.8256  0.0162  0.1721
16325TIP3    H170390   0.372   4.661  15.986 -0.5748  0.4479  0.4921
16325TIP3    H270391   0.319   4.725  15.859  0.2903 -0.3605 -0.2995
16326TIP3   OH270392   5.584   0.871  16.299 -0.6730 -0.1884 -0.0188
16326TIP3    H170393   5.554   0.797  16.350 -0.0715 -1.1616 -1.0354
16326TIP3    H270394   5.627   0.832  16.222  0.4460  1.1770 -0.1363
16327TIP3   OH270395   1.603   2.192   5.843  0.0660 -0.1923 -0.2350
16327TIP3    H170396   1.663   2.172   5.771  0.0217  0.9286 -0.5960
16327TIP3    H270397   1.658   2.235   5.909 -0.0698 -0.4406  0.0461
16328TIP3   OH270398   4.693   1.665  15.131 -0.5749 -0.0492  0.4869
16328TIP3    H170399   4.719   1.692  15.220 -1.0122  2.5837 -0.0932
16328TIP3    H270400   4.669   1.747  15.088 -1.7497 -1.4363 -1.6373
16329TIP3   OH270401   4.086   4.557  11.459 -0.2729  0.2897  1.0263
16329TIP3    H170402   4.102   4.560  11.365 -0.9557 -2.5661  0.7236
16329TIP3    H270403   4.160   4.507  11.495 -1.6646 -1.5368  1.4801
16330TIP3   OH270404   1.078   1.032  14.597  0.2999  0.0294 -0.5829
16330TIP3    H170405   1.154   1.089  14.586  0.6832 -0.6316 -1.4287
16330TIP3    H270406   1.013   1.066  14.535  0.4045 -0.2421 -0.8426
16331TIP3   OH270407   3.560   1.937   2.173  0.1941 -0.0399  0.0475
16331TIP3    H170408   3.553   1.919   2.266 -0.6568 -0.8279 -0.1536
16331TIP3    H270409   3.607   2.021   2.168  1.9420 -0.8986  1.1064
16332TIP3   OH270410   1.733   4.245   0.648  0.0569 -0.1131 -0.6574
16332TIP3    H170411   1.777   4.329   0.638 -1.2187  0.6256 -0.3386
16332TIP3    H270412   1.640   4.268   0.656 -0.1763 -1.4502  0.9073
16333TIP3   OH270413   6.045   2.461  15.700  0.1298  0.7489  0.0452
16333TIP3    H170414   6.117   2.406  15.730  0.5684  2.4757  2.4658
16333TIP3    H270415   5.984   2.464  15.774 -2.6677 -0.8103 -1.9757
16334TIP3   OH270416   2.010   6.120  17.303  0.5064  0.2468 -0.1896
16334TIP3    H170417   1.990   6.157  17.389  0.7735  1.3879 -0.6105
16334TIP3    H270418   1.929   6.129  17.254  1.1730  2.3280 -0.9962
16335TIP3   OH270419   1.972   6.062   4.731 -0.0479 -0.1923  0.0253
16335TIP3    H170420   2.023   6.116   4.671  0.7599 -0.9585  0.0085
16335TIP3    H270421   1.911   6.014   4.675  1.2544 -1.5201 -0.3039
16336TIP3   OH270422   3.259   3.162  13.334  0.5028 -0.3585  0.6031
16336TIP3    H170423   3.272   3.257  13.331  0.3506 -0.3015  1.4822
16336TIP3    H270424   3.261   3.135  13.242  0.5812  0.4878  0.3429
16337TIP3   OH270425   2.966   6.064   3.632 -0.3791 -0.4024 -0.1223
16337TIP3    H170426   3.013   6.000   3.684  1.0073  1.0198  0.4666
16337TIP3    H270427   3.013   6.066   3.548 -1.0603 -0.8979 -0.5199
16338TIP3   OH270428   5.624   1.490   0.021 -0.7037 -0.5240  0.0242
16338TIP3    H170429   5.662   1.557  -0.036  0.9887 -0.8901  0.6564
16338TIP3    H270430   5.621   1.411  -0.033  3.4147 -1.6066  1.0146
16339TIP3   OH270431   5.320   3.301  14.338  0.0463 -0.1351  0.2829
16339TIP3    H170432   5.227   3.318  14.325  0.0418  0.6652  1.2054
16339TIP3    H270433   5.364   3.356  14.273 -0.1452 -2.4087 -1.9043
16340TIP3   OH270434   1.773   3.794   0.349  0.3961  0.2464  0.5430
16340TIP3    H170435   1.825   3.874   0.356  2.6923 -0.8949 -1.7461
16340TIP3    H270436   1.833   3.724   0.373 -0.8481 -0.9681  0.2421
16341TIP3   OH270437   0.051   2.818   6.501 -0.1765  0.2359 -0.1584
16341TIP3    H170438   0.069   2.902   6.544  1.1247  0.8904 -1.8983
16341TIP3    H270439   0.119   2.810   6.434 -1.3194 -1.4035 -1.1790
16342TIP3   OH270440   1.106   1.068   5.170 -0.1833 -0.4249  0.5054
16342TIP3    H170441   1.159   0.999   5.130 -1.0942 -0.7971 -0.0811
16342TIP3    H270442   1.110   1.050   5.264 -0.2254 -1.1484  0.3713
16343TIP3   OH270443   5.291   0.986  11.127 -0.3502  0.1928  0.1673
16343TIP3    H170444   5.321   1.000  11.037  0.6299  0.3935  0.5223
16343TIP3    H270445   5.279   0.892  11.133  0.3092  0.0940  0.0457
16344TIP3   OH270446   2.804   1.406   3.579  0.5635  0.1992 -0.3114
16344TIP3    H170447   2.773   1.337   3.520  0.3175  0.9435 -1.0627
16344TIP3    H270448   2.725   1.442   3.618  0.7928 -1.3453  1.7332
16345TIP3   OH270449   6.437   1.158   2.024  0.4508 -0.3170 -0.3742
16345TIP3    H170450   6.474   1.236   2.065  0.2689 -0.6156  0.3734
16345TIP3    H270451   6.512   1.106   1.998  0.5685 -0.2201 -0.2303
16346TIP3   OH270452   5.157   2.111  11.308  0.0992 -0.1026 -0.5733
16346TIP3    H170453   5.208   2.170  11.252 -0.2627  0.3105 -0.4753
16346TIP3    H270454   5.093   2.071  11.249 -1.6489  1.8773 -0.1236
16347TIP3   OH270455   6.541   5.331   1.708  0.1307  0.1239  0.1195
16347TIP3    H170456   6.517   5.418   1.739  0.9584  1.0834 -1.7465
16347TIP3    H270457   6.609   5.347   1.642  0.7433 -1.9863  0.1497
16348TIP3   OH270458   5.043   5.672  15.724  0.1509 -0.4650 -0.2791
16348TIP3    H170459   4.954   5.648  15.699 -0.4745  0.3558  1.1011
16348TIP3    H270460   5.085   5.590  15.749 -0.9453 -0.5879  1.2523
16349TIP3   OH270461   2.917   4.936   1.269 -0.1822 -0.3717 -0.5904
16349TIP3    H170462   2.845   4.932   1.331 -0.6822  0.6444 -1.0942
16349TIP3    H270463   2.989   4.975   1.319 -0.7497  0.9662 -0.7932
16350TIP3   OH270464   0.729   1.890  12.754 -0.3370 -0.3536  0.0138
16350TIP3    H170465   0.787   1.951  12.710 -2.3306  0.2567 -1.9807
16350TIP3    H270466   0.719   1.817  12.693 -2.2634 -0.0436 -0.1156
16351TIP3   OH270467   1.270   0.315   0.989  0.2696  0.1900 -1.2457
16351TIP3    H170468   1.359   0.281   0.993 -0.0245 -0.4751  0.2800
16351TIP3    H270469   1.214   0.239   1.001 -0.5173  0.6310 -1.9535
16352TIP3   OH270470   4.707   6.555   2.188 -0.0849 -0.5293 -0.1432
16352TIP3    H170471   4.646   6.504   2.243  0.1563 -0.9998 -0.3050
16352TIP3    H270472   4.793   6.515   2.205 -0.3356 -2.5309 -2.8917
16353TIP3   OH270473   6.513   0.103   0.334  0.3452  0.0445  0.7703
16353TIP3    H170474   6.450   0.097   0.262  1.0948  0.2343  0.0877
16353TIP3    H270475   6.569   0.177   0.311  2.4438 -1.6748  0.0495
16354TIP3   OH270476   6.073   2.455   0.019 -0.1784 -0.0271  0.7489
16354TIP3    H170477   6.034   2.496   0.096 -0.4256  0.5395  0.3266
16354TIP3    H270478   6.048   2.363   0.026  0.6121 -0.1880  1.8477
16355TIP3   OH270479   5.205   1.647  12.772 -0.0996  0.1225 -0.3832
16355TIP3    H170480   5.117   1.678  12.794 -0.3692 -1.5552  1.1635
16355TIP3    H270481   5.264   1.714  12.805 -0.6470 -0.8948  3.0801
16356TIP3   OH270482   6.073   6.529  12.400  0.1130 -0.1391 -0.1864
16356TIP3    H170483   5.978   6.538  12.413 -0.1873 -0.1118 -2.0674
16356TIP3    H270484   6.091   6.438  12.424 -0.8447 -0.8468 -1.9478
16357TIP3   OH270485   4.223   3.131   3.638 -0.1227 -0.0749  0.1608
16357TIP3    H170486   4.244   3.042   3.666  1.8946  0.4530  0.4913
16357TIP3    H270487   4.292   3.154   3.577  0.4670  1.8921  1.4634
16358TIP3   OH270488   4.570   1.610   5.980  0.1722  0.0223  0.1762
16358TIP3    H170489   4.605   1.529   6.018  2.4447  0.8694  0.0360
16358TIP3    H270490   4.647   1.656   5.945 -0.8392  2.7850  1.2703
16359TIP3   OH270491   6.430   5.614  15.090  0.1720  0.1989  0.3120
16359TIP3    H170492   6.419   5.649  15.178 -0.5399  1.6792 -0.3430
16359TIP3    H270493   6.366   5.543  15.084 -0.9081  1.1453  0.4546
16360TIP3   OH270494   3.730   3.214   1.610 -0.4599  0.5620  0.1930
16360TIP3    H170495   3.805   3.254   1.655 -0.7312 -0.2287  1.3876
16360TIP3    H270496   3.694   3.285   1.557  0.7034  1.1447  0.1518
16361TIP3   OH270497   0.662   0.566  14.804  0.2664  0.0181 -0.6485
16361TIP3    H170498   0.732   0.512  14.768 -1.0640 -2.2662 -0.0236
16361TIP3    H270499   0.619   0.603  14.727  1.2827  0.3189 -1.0872
16362TIP3   OH270500   0.760   4.148  12.002  0.2081  0.4873  0.1326
16362TIP3    H170501   0.708   4.218  12.041 -1.3478 -0.0336 -0.8700
16362TIP3    H270502   0.695   4.090  11.962  1.5761 -0.2184 -1.1794
16363TIP3   OH270503   3.728   0.021  14.385  0.3082 -0.1353  0.0938
16363TIP3    H170504   3.641   0.000  14.351 -0.8328  2.7140  1.0063
16363TIP3    H270505   3.729  -0.014  14.474 -0.6284  1.3489  0.7181
16364TIP3   OH270506   1.068   5.032  13.670 -0.0351 -0.0969  0.8846
16364TIP3    H170507   1.054   5.127  13.667 -2.1122 -0.3441  1.2598
16364TIP3    H270508   1.125   5.014  13.595 -0.4813  1.3045  0.1657
16365TIP3   OH270509   5.942   4.792   1.890 -0.1825  0.2382 -0.3550
16365TIP3    H170510   6.010   4.803   1.824 -2.6765  3.3177 -2.6783
16365TIP3    H270511   5.905   4.879   1.901 -2.9649 -1.0754  1.6864
16366TIP3   OH270512   0.115   5.156  15.161  0.0407  0.5196 -0.8587
16366TIP3    H170513   0.125   5.249  15.142 -0.1929  0.3554 -1.8270
16366TIP3    H270514   0.203   5.128  15.188 -0.1089  1.2227  0.4725
16367TIP3   OH270515   0.378   5.888   5.788  0.8621 -0.2071  0.4223
16367TIP3    H170516   0.316   5.818   5.809  2.1810 -1.4700  0.2227
16367TIP3    H270517   0.433   5.897   5.866  0.7259  0.6248  0.4418
16368TIP3   OH270518   0.173   5.482  13.721 -0.0857 -0.3504 -0.3215
16368TIP3    H170519   0.218   5.406  13.685  1.3283 -0.2153  1.0476
16368TIP3    H270520   0.088   5.449  13.749 -0.0007 -1.1247 -0.9690
16369TIP3   OH270521   2.503   6.394  17.276  0.6512  0.3853  0.3693
16369TIP3    H170522   2.428   6.445  17.246  1.1007  1.0282  0.3267
16369TIP3    H270523   2.465   6.325  17.330 -0.1138 -0.3213 -1.0138
16370TIP3   OH270524   5.696   2.750   3.960 -0.0468  0.2287 -0.1004
16370TIP3    H170525   5.682   2.661   3.929  0.7529 -0.0577  0.3311
16370TIP3    H270526   5.773   2.744   4.016  0.0246  1.1960 -0.0770
16371TIP3   OH270527   0.264   0.396  13.398 -0.2055 -0.2078 -0.2216
16371TIP3    H170528   0.334   0.402  13.463  1.4016 -1.3770 -1.7551
16371TIP3    H270529   0.284   0.317  13.348 -2.4298 -0.3548 -0.9850
16372TIP3   OH270530   0.671   1.038  13.676 -0.3707  0.1924  0.0990
16372TIP3    H170531   0.764   1.053  13.692 -0.2984 -0.7021  0.5826
16372TIP3    H270532   0.632   1.126  13.678  0.6635  0.7351 -1.5993
16373TIP3   OH270533   1.179   0.018   5.631 -0.3969  0.7326  0.1694
16373TIP3    H170534   1.127  -0.062   5.625 -0.8026  0.9832  0.3503
16373TIP3    H270535   1.132   0.073   5.693 -0.4699  1.3766 -0.4449
16374TIP3   OH270536   2.447   5.328  16.959  1.0651 -0.0169  0.4088
16374TIP3    H170537   2.396   5.396  16.915  1.3570 -1.6847 -2.8192
16374TIP3    H270538   2.398   5.308  17.038 -1.5675  0.7292 -0.9262
16375TIP3   OH270539   1.327   5.230   3.064 -0.1801  0.2670 -0.0525
16375TIP3    H170540   1.397   5.219   3.128 -0.6468  0.8313  0.5713
16375TIP3    H270541   1.255   5.177   3.100 -0.1956 -0.0097 -0.4933
16376TIP3   OH270542   2.108   1.575  12.423 -0.2783 -0.2625 -0.4080
16376TIP3    H170543   2.047   1.515  12.381 -0.1943 -0.3411 -0.4178
16376TIP3    H270544   2.154   1.521  12.487 -0.1407 -0.2284 -0.4786
16377TIP3   OH270545   3.820   3.296   0.227 -0.6992  0.4281  0.8335
16377TIP3    H170546   3.727   3.278   0.241 -0.1860 -1.6813  1.9501
16377TIP3    H270547   3.821   3.366   0.162 -3.0905  1.8919  2.1950
16378TIP3   OH270548   1.263   3.623  11.872 -0.3155 -0.0224  0.2668
16378TIP3    H170549   1.242   3.530  11.866 -1.2301  0.2603 -2.5501
16378TIP3    H270550   1.212   3.663  11.801  3.0812  2.0444 -1.2642
16379TIP3   OH270551   1.432   4.494   5.399  0.1003 -0.1917  0.0506
16379TIP3    H170552   1.473   4.410   5.416  0.7199  0.3409  1.3402
16379TIP3    H270553   1.342   4.473   5.374  0.7495 -1.3083 -1.4988
16380TIP3   OH270554   5.505   2.318  12.000  0.0454  0.0584 -0.4921
16380TIP3    H170555   5.563   2.375  11.950 -1.6834  1.7330 -0.6840
16380TIP3    H270556   5.449   2.378  12.050 -1.0397 -1.5009  0.2499
16381TIP3   OH270557   3.792   0.555  12.069  0.2493 -0.3880  0.4747
16381TIP3    H170558   3.805   0.591  11.981  0.5916 -0.8646  0.3284
16381TIP3    H270559   3.735   0.479  12.055  1.5771 -1.4106  0.4546
16382TIP3   OH270560   3.710   3.209   3.364 -0.2622 -0.1683 -0.2951
16382TIP3    H170561   3.615   3.223   3.363 -0.0319  1.6652 -1.5215
16382TIP3    H270562   3.738   3.244   3.448 -0.3439  2.4488 -1.2594
16383TIP3   OH270563   6.634   4.881  11.533  0.0565 -0.2126 -0.3184
16383TIP3    H170564   6.647   4.966  11.574 -0.0619  1.4197 -3.4134
16383TIP3    H270565   6.702   4.826  11.571  0.8242  1.5545  0.9954
16384TIP3   OH270566   0.520   2.018  11.381  0.7495 -0.0385  0.0776
16384TIP3    H170567   0.453   1.994  11.317  1.0928  0.1908 -0.3728
16384TIP3    H270568   0.509   2.112  11.392  1.0805  0.0189 -0.0899
16385TIP3   OH270569   0.737   5.229   3.291  0.0438  0.1896  0.1375
16385TIP3    H170570   0.815   5.268   3.251 -0.6996  0.8709 -0.6814
16385TIP3    H270571   0.712   5.291   3.359  0.6457 -0.4085  0.9205
16386TIP3   OH270572   0.351   6.055   3.583 -0.1381 -0.3375  0.0289
16386TIP3    H170573   0.421   6.066   3.518  0.2675 -0.5034  0.4367
16386TIP3    H270574   0.370   6.121   3.650  0.3738 -1.2265  0.7860
16387TIP3   OH270575   1.649   4.753   0.816 -0.4258  0.5835 -0.0131
16387TIP3    H170576   1.663   4.676   0.762  1.5239 -0.3449  1.6867
16387TIP3    H270577   1.704   4.821   0.777 -0.1788  0.3539 -0.0626
16388TIP3   OH270578   5.109   3.932  13.493 -0.4961  0.5163  0.2710
16388TIP3    H170579   5.097   3.882  13.413 -0.1510  0.5932  0.1692
16388TIP3    H270580   5.199   3.914  13.519 -1.2263 -1.2299  1.8213
16389TIP3   OH270581   0.301   6.568   3.059 -0.2745  0.4157  0.0108
16389TIP3    H170582   0.358   6.566   3.136 -0.3708 -0.0336  0.0735
16389TIP3    H270583   0.342   6.506   2.998 -0.6380  0.1638  0.0192
16390TIP3   OH270584   4.588   2.430  14.367  0.0444  0.5995 -0.2659
16390TIP3    H170585   4.564   2.402  14.456 -1.8256 -1.3675 -1.3093
16390TIP3    H270586   4.667   2.379  14.347 -0.1217  0.2791 -0.1111
16391TIP3   OH270587   0.709   2.761  17.140 -0.3650  0.0244 -0.2157
16391TIP3    H170588   0.635   2.815  17.167  0.1490  0.1854  0.9672
16391TIP3    H270589   0.730   2.789  17.051 -1.5558  0.1483 -0.4669
16392TIP3   OH270590   0.955   0.847   1.980 -0.4032  0.1409  0.5845
16392TIP3    H170591   1.003   0.861   2.061  1.3959 -2.0977  0.0019
16392TIP3    H270592   1.023   0.839   1.913 -1.8207  1.5014 -1.1304
16393TIP3   OH270593   5.413   1.694   5.226 -0.2765 -0.1321 -0.1379
16393TIP3    H170594   5.501   1.688   5.189 -0.8411  0.3721 -1.6443
16393TIP3    H270595   5.382   1.780   5.198 -1.4997 -0.5884 -0.2395
16394TIP3   OH270596   5.642   2.023   0.979  0.2189  0.0385 -0.2603
16394TIP3    H170597   5.628   2.088   1.048 -0.3674  1.4146 -1.6044
16394TIP3    H270598   5.736   2.027   0.961  0.2401  0.3010 -0.1033
16395TIP3   OH270599   5.240   2.114   0.346 -0.6736  0.3632  0.4272
16395TIP3    H170600   5.313   2.170   0.372 -0.3078  0.8679 -1.5478
16395TIP3    H270601   5.277   2.025   0.347  0.0820  0.6366 -0.7990
16396TIP3   OH270602   1.192   5.859  16.443  0.5525  0.0422  0.0149
16396TIP3    H170603   1.196   5.951  16.416  0.7692  0.0540  0.0834
16396TIP3    H270604   1.130   5.819  16.383 -0.3479  0.4658  0.6491
16397TIP3   OH270605   2.127   2.872   5.161 -0.0196 -0.0094  0.6682
16397TIP3    H170606   2.126   2.963   5.193 -3.3512  0.3673 -0.1177
16397TIP3    H270607   2.205   2.866   5.107  0.3770  2.3404  0.8755
16398TIP3   OH270608   5.069   0.314  15.219 -0.1670  0.1417 -0.1162
16398TIP3    H170609   5.047   0.318  15.126 -0.9560 -1.7476 -0.0520
16398TIP3    H270610   4.986   0.323  15.264  0.1688  0.7012  0.4058
16399TIP3   OH270611   5.583   1.702  11.928  0.3654 -0.0706  0.0062
16399TIP3    H170612   5.619   1.622  11.966 -1.4340 -0.3145  1.3193
16399TIP3    H270613   5.605   1.771  11.991  2.0835  0.5760 -1.2151
16400TIP3   OH270614   1.599   0.057   1.850  0.3646 -0.1119  0.5539
16400TIP3    H170615   1.544   0.016   1.917 -0.8642  0.9255  0.2103
16400TIP3    H270616   1.581   0.150   1.857  1.1392  0.1300 -0.4253
16401TIP3   OH270617   3.920   1.613   2.079  0.3439  0.3797 -0.5546
16401TIP3    H170618   3.874   1.648   2.155  1.4173  0.2775  0.1586
16401TIP3    H270619   3.914   1.518   2.088  1.3731  0.3536 -0.0159
16402TIP3   OH270620   1.922   4.691  11.432 -0.4060 -0.2888 -0.1299
16402TIP3    H170621   1.857   4.722  11.369  0.1482  0.4893 -0.3406
16402TIP3    H270622   1.995   4.660  11.377 -0.3937 -0.6857  0.1088
16403TIP3   OH270623   3.640   2.709   6.030 -0.3436  0.6263  0.3944
16403TIP3    H170624   3.592   2.775   6.080  0.5880  0.8091  1.0646
16403TIP3    H270625   3.572   2.654   5.992 -1.0887  0.7941  1.4469
16404TIP3   OH270626   5.375   5.730   4.658  0.2622 -0.0891 -0.3556
16404TIP3    H170627   5.314   5.700   4.591 -0.2434  2.4170 -1.1280
16404TIP3    H270628   5.455   5.680   4.642 -0.6549 -1.3563 -1.1730
16405TIP3   OH270629   4.817   0.243  10.725  0.1259  0.8681  0.5881
16405TIP3    H170630   4.786   0.233  10.635  2.0980  0.6366 -0.1133
16405TIP3    H270631   4.740   0.227  10.779 -0.8992  0.1123 -1.0281
16406TIP3   OH270632   5.906   3.472  15.686  0.2844 -0.5147  0.1051
16406TIP3    H170633   5.821   3.481  15.643  0.1325  0.3489  0.5670
16406TIP3    H270634   5.909   3.381  15.715 -1.4238 -0.0222  1.9921
16407TIP3   OH270635   4.731   2.720   6.016  0.4126  0.2792  0.0839
16407TIP3    H170636   4.724   2.668   6.095 -1.8829  2.6110  1.5916
16407TIP3    H270637   4.800   2.783   6.034  0.8356 -0.0491 -0.3566
16408TIP3   OH270638   0.141   5.470   1.684  0.1029 -0.0465  0.0470
16408TIP3    H170639   0.194   5.547   1.663 -0.6008  0.0857 -1.3673
16408TIP3    H270640   0.201   5.396   1.674  0.8469  0.3018  1.6590
16409TIP3   OH270641   0.579   4.942   1.108 -0.5082  0.1233 -0.4534
16409TIP3    H170642   0.571   5.034   1.133 -0.1201  0.4129 -1.3585
16409TIP3    H270643   0.631   4.943   1.027 -2.3273 -0.7108 -1.6926
16410TIP3   OH270644   5.000   6.627  12.919 -0.0921  0.3455  0.1298
16410TIP3    H170645   5.091   6.644  12.895 -0.1186 -0.1112 -0.3279
16410TIP3    H270646   5.005   6.559  12.985 -0.1656 -1.2555 -1.4334
16411TIP3   OH270647   6.343   0.526  17.278 -0.3403  0.0702  0.3069
16411TIP3    H170648   6.436   0.549  17.277 -0.2872 -0.1477 -0.3375
16411TIP3    H270649   6.303   0.586  17.216 -0.7383  0.5606  1.0222
16412TIP3   OH270650   1.152   5.291   1.300  0.0572 -0.0994 -0.4907
16412TIP3    H170651   1.185   5.233   1.231  0.1621 -0.7004  0.0536
16412TIP3    H270652   1.230   5.316   1.350  0.1284  1.1525 -1.1778
16413TIP3   OH270653   0.251   1.994   2.921  0.3679 -0.1360  1.2439
16413TIP3    H170654   0.240   2.033   3.008 -0.9041  1.5402  0.3808
16413TIP3    H270655   0.163   1.990   2.884  1.1112  2.0138 -1.0931
16414TIP3   OH270656   5.116   0.482  11.224  0.0275 -0.2678 -0.5692
16414TIP3    H170657   5.192   0.529  11.189 -0.5027  0.1765 -1.1318
16414TIP3    H270658   5.045   0.545  11.222 -0.9641 -1.3467 -2.3246
16415TIP3   OH270659   6.016   5.289  12.084  0.1106 -0.5210  0.4520
16415TIP3    H170660   6.080   5.331  12.142  1.4798 -1.4899 -0.3004
16415TIP3    H270661   6.066   5.221  12.038 -1.3594 -0.9945 -0.5168
16416TIP3   OH270662   6.250   4.470   3.089  0.8101 -0.9074  0.0172
16416TIP3    H170663   6.245   4.380   3.059  2.8463 -1.5760  1.4080
16416TIP3    H270664   6.252   4.463   3.185  3.8514  0.2753  0.1773
16417TIP3   OH270665   3.416   0.981   0.157  0.0436  0.0802  0.5026
16417TIP3    H170666   3.351   0.943   0.097  0.7605 -1.0092  0.3837
16417TIP3    H270667   3.485   1.014   0.100  0.6417 -0.7949  0.7134
16418TIP3   OH270668   2.670   6.121   0.106  0.5136  0.0909 -0.0328
16418TIP3    H170669   2.702   6.196   0.155  1.3179  0.2337 -0.7663
16418TIP3    H270670   2.729   6.113   0.032 -0.3295 -0.4862 -0.6638
16419TIP3   OH270671   1.703   5.757  13.045 -0.1293  0.1375  0.3290
16419TIP3    H170672   1.727   5.840  13.087 -0.6892  1.2781 -1.4772
16419TIP3    H270673   1.773   5.741  12.982 -0.6066 -0.1584 -0.1338
16420TIP3   OH270674   1.748   6.520  17.138 -0.2121  0.0672 -0.1183
16420TIP3    H170675   1.683   6.590  17.147 -0.2572  0.1393 -0.9093
16420TIP3    H270676   1.697   6.441  17.120 -0.1930 -0.2865  1.2752
16421TIP3   OH270677   1.846   4.338  15.334 -0.3418  0.5320 -0.0622
16421TIP3    H170678   1.753   4.324  15.317 -0.4390  1.1762 -0.0815
16421TIP3    H270679   1.861   4.298  15.419 -0.1007 -1.7126 -1.0924
16422TIP3   OH270680   6.310   5.146  12.435 -0.1856  0.1778 -0.2103
16422TIP3    H170681   6.388   5.091  12.430 -1.1592 -1.2106 -0.7049
16422TIP3    H270682   6.248   5.096  12.487 -0.5777  1.5161  0.6692
16423TIP3   OH270683   4.690   4.828  13.479  0.1742 -0.0345 -0.0427
16423TIP3    H170684   4.675   4.743  13.519  0.3333 -0.4248 -0.7807
16423TIP3    H270685   4.721   4.884  13.550 -0.6428 -0.3846  0.6004
16424TIP3   OH270686   1.297   2.301  15.378 -0.2563 -0.2353 -0.0932
16424TIP3    H170687   1.366   2.245  15.341  0.7601  0.0454  1.2927
16424TIP3    H270688   1.323   2.390  15.355 -0.6376 -0.1823 -0.3229
16425TIP3   OH270689   0.200   4.477  16.835 -0.0582  0.0458 -0.3461
16425TIP3    H170690   0.278   4.442  16.878 -0.5173 -1.5646 -0.7328
16425TIP3    H270691   0.208   4.447  16.744 -1.1993 -0.2775 -0.3544
16426TIP3   OH270692   4.474   2.498   3.587 -0.3318  0.0001 -0.1050
16426TIP3    H170693   4.389   2.462   3.561 -0.6875  0.1753  0.7692
16426TIP3    H270694   4.489   2.461   3.674 -0.4932  1.5655  0.6348
16427TIP3   OH270695   5.307   6.050   3.678  0.1987 -0.0223  0.0374
16427TIP3    H170696   5.346   6.113   3.739 -0.4602  0.7417 -0.3135
16427TIP3    H270697   5.217   6.039   3.707 -0.7589  1.8962 -1.9059
16428TIP3   OH270698   4.209   6.140  11.646  0.3348  0.0466 -0.2311
16428TIP3    H170699   4.215   6.235  11.637  1.2730  0.2289  1.7597
16428TIP3    H270700   4.296   6.113  11.674 -0.4367 -1.1350  1.1631
16429TIP3   OH270701   5.870   0.893   4.075 -0.2663 -0.3654 -0.2102
16429TIP3    H170702   5.801   0.941   4.121  2.0119  1.1917  1.8359
16429TIP3    H270703   5.919   0.960   4.027  1.2012 -1.0188  0.2932
16430TIP3   OH270704   2.050   6.105   6.083 -0.4401  0.7648  0.2064
16430TIP3    H170705   2.016   6.144   6.164 -0.3260  0.7137  0.2798
16430TIP3    H270706   1.974   6.067   6.041 -0.5003  0.7881  0.2932
16431TIP3   OH270707   0.999   1.950  17.122 -0.5586  0.2033  0.8462
16431TIP3    H170708   0.986   1.975  17.213  1.6648  1.1915  0.9374
16431TIP3    H270709   1.049   1.869  17.126 -0.7741  0.0487  0.4918
16432TIP3   OH270710   6.725   3.406   4.240  0.1355 -0.1998 -0.0738
16432TIP3    H170711   6.698   3.317   4.264 -1.2237  0.4212  0.8299
16432TIP3    H270712   6.741   3.402   4.146  0.1920 -1.4191 -0.0243
16433TIP3   OH270713   1.306   3.491  17.356 -0.1359  0.0979 -0.9803
16433TIP3    H170714   1.386   3.475  17.306 -0.4526 -4.1617 -0.5046
16433TIP3    H270715   1.238   3.443  17.309 -1.8963  1.4286  0.0615
16434TIP3   OH270716   3.098   0.307  17.281 -0.0033 -0.0509  0.0301
16434TIP3    H170717   3.133   0.367  17.215 -2.2541  0.5937 -0.6982
16434TIP3    H270718   3.097   0.359  17.362 -2.3959  1.1871 -0.6982
16435TIP3   OH270719   4.558   3.016   3.080 -0.4076 -0.2960 -0.1020
16435TIP3    H170720   4.605   3.074   3.019 -0.8127 -0.5320 -0.6418
16435TIP3    H270721   4.467   3.044   3.074 -0.2989  0.4813  1.3037
16436TIP3   OH270722   4.837   3.184  15.793  0.0499 -0.1621  0.0688
16436TIP3    H170723   4.762   3.230  15.831  0.4625 -0.0603  0.7750
16436TIP3    H270724   4.911   3.241  15.811  0.4607 -0.7701  0.3200
16437TIP3   OH270725   0.714   3.419  11.390 -0.3648 -0.6297  0.2558
16437TIP3    H170726   0.725   3.367  11.311 -0.7934 -1.1240  0.5092
16437TIP3    H270727   0.642   3.377  11.437 -1.5675  0.9057 -0.1157
16438TIP3   OH270728   3.232   3.496   5.822  0.2146 -0.4938 -0.4443
16438TIP3    H170729   3.160   3.510   5.884 -0.5107 -0.0053 -1.3784
16438TIP3    H270730   3.244   3.581   5.780  0.9254 -0.7362 -0.7547
16439TIP3   OH270731   2.778   3.974   4.849 -0.4976  0.5096  0.5087
16439TIP3    H170732   2.837   3.965   4.923 -0.5761  0.9126  0.6247
16439TIP3    H270733   2.785   4.066   4.824 -1.1144  0.5748  0.5582
16440TIP3   OH270734   2.404   5.085  12.556 -0.2488  0.4320  0.7357
16440TIP3    H170735   2.462   5.011  12.573 -1.7152 -1.0687 -0.4877
16440TIP3    H270736   2.408   5.138  12.636  0.8105 -0.9742  1.6453
16441TIP3   OH270737   3.214   6.571   2.582  0.3579  0.4809 -0.6107
16441TIP3    H170738   3.149   6.518   2.629  1.5379  1.0143  1.7906
16441TIP3    H270739   3.174   6.658   2.576  0.6564  0.7202  0.5535
16442TIP3   OH270740   3.237   4.176   3.958  0.0099 -0.6098  0.8512
16442TIP3    H170741   3.330   4.199   3.953 -0.3162  0.5322 -1.2774
16442TIP3    H270742   3.236   4.080   3.958  1.1786 -0.6721 -0.7332
16443TIP3   OH270743   3.004   3.507  10.447  0.3757  0.0773  0.5005
16443TIP3    H170744   3.017   3.414  10.433  0.2733  0.1118  0.1638
16443TIP3    H270745   2.932   3.531  10.388  0.1900  0.3055  0.8089
16444TIP3   OH270746   6.026   4.220  12.965  0.1722  0.2748 -0.2981
16444TIP3    H170747   6.068   4.306  12.970  1.7889 -0.4711 -0.5584
16444TIP3    H270748   6.039   4.182  13.052  0.6578 -0.2368 -0.5906
16445TIP3   OH270749   1.720   2.292  10.791  0.0254 -0.2319 -0.4327
16445TIP3    H170750   1.747   2.206  10.760  0.1818  0.5574 -2.6544
16445TIP3    H270751   1.802   2.340  10.802 -0.1161 -0.0221 -0.2875
16446TIP3   OH270752   3.350   3.737   1.486 -0.5902 -0.2334  0.3963
16446TIP3    H170753   3.436   3.739   1.443  0.1007  1.0944  1.7229
16446TIP3    H270754   3.288   3.717   1.416  0.6108  0.5685 -0.9508
16447TIP3   OH270755   1.399   5.630   0.093  0.5878 -0.4823 -0.1176
16447TIP3    H170756   1.466   5.677   0.144  0.7299 -0.0690 -0.6734
16447TIP3    H270757   1.437   5.623   0.006 -0.2119 -0.0023 -0.5132
16448TIP3   OH270758   1.193   5.059  16.319  0.0180  0.2264  0.1991
16448TIP3    H170759   1.137   5.049  16.242  0.6159 -1.7920 -0.0138
16448TIP3    H270760   1.275   5.096  16.284 -0.1715  0.5387  0.0790
16449TIP3   OH270761   6.494   1.273  14.642  0.1001  0.2126  0.0239
16449TIP3    H170762   6.514   1.329  14.568  0.1904  1.0815  0.6889
16449TIP3    H270763   6.439   1.327  14.699  1.7949  0.3419  1.6258
16450TIP3   OH270764   0.944   6.377  14.990  0.0633  0.3650  0.0832
16450TIP3    H170765   0.917   6.366  15.081 -1.1559 -0.2135 -0.3220
16450TIP3    H270766   0.962   6.289  14.959 -0.4289  0.4582 -0.4887
16451TIP3   OH270767   1.112   3.754  12.856 -0.3548  0.1659 -0.0591
16451TIP3    H170768   1.166   3.688  12.901 -0.3486 -0.7964 -1.4170
16451TIP3    H270769   1.143   3.837  12.891  0.5904 -0.4741  0.6995
16452TIP3   OH270770   3.351   0.281   5.037 -0.0023 -0.2357 -0.1057
16452TIP3    H170771   3.420   0.215   5.039  1.5560  1.3068  0.5966
16452TIP3    H270772   3.382   0.349   5.097 -0.8125  1.7638 -1.8039
16453TIP3   OH270773   4.710   1.881  13.482  0.0165  0.2399 -0.0212
16453TIP3    H170774   4.802   1.859  13.493  0.5184  2.2498  0.0671
16453TIP3    H270775   4.675   1.887  13.571 -0.1590 -0.2915 -0.0488
16454TIP3   OH270776   3.507   4.192   3.894  0.0119 -0.5524 -0.0909
16454TIP3    H170777   3.565   4.118   3.914  1.3042  0.5021  0.2324
16454TIP3    H270778   3.532   4.219   3.806 -0.8285 -0.8367 -0.4163
16455TIP3   OH270779   1.070   4.069   5.245 -0.2918 -0.5177 -0.9255
16455TIP3    H170780   1.047   3.982   5.211  0.0575 -0.3406 -1.6462
16455TIP3    H270781   1.007   4.085   5.314  0.1745 -1.7153 -0.1910
16456TIP3   OH270782   5.474   2.040  14.500  0.3491  0.2209 -0.2739
16456TIP3    H170783   5.391   2.019  14.458  0.3138 -0.2240  0.0129
16456TIP3    H270784   5.540   1.997  14.445  0.2988 -0.4111  0.1472
16457TIP3   OH270785   5.610   3.788  13.226 -0.2901  0.2106  0.6676
16457TIP3    H170786   5.603   3.882  13.210  0.2705  0.2735  0.7650
16457TIP3    H270787   5.555   3.747  13.159 -1.2289  0.6337  1.1541
16458TIP3   OH270788   2.365   1.506  14.218  0.1054  0.1080 -0.1555
16458TIP3    H170789   2.446   1.455  14.216 -0.0593 -0.1542 -0.0148
16458TIP3    H270790   2.392   1.591  14.255 -0.5561 -1.4952  4.6653
16459TIP3   OH270791   3.925   0.534   1.336 -0.0841  0.0704 -0.0496
16459TIP3    H170792   3.864   0.607   1.321  0.9445  1.2786  1.3384
16459TIP3    H270793   4.010   0.577   1.346  0.6338 -1.3910  0.2341
16460TIP3   OH270794   2.518   0.033   0.987  0.5140  0.2778 -0.3045
16460TIP3    H170795   2.602   0.044   0.943  1.1928 -1.0290  0.6027
16460TIP3    H270796   2.536   0.053   1.079 -0.1660  0.0123 -0.1023
16461TIP3   OH270797   0.954   5.526  16.540  0.2905  0.8960 -0.0183
16461TIP3    H170798   0.895   5.582  16.489 -0.2868 -0.2870 -0.7016
16461TIP3    H270799   1.030   5.515  16.483 -0.0471  0.1538 -0.3366
16462TIP3   OH270800   1.773   1.117  13.381 -0.4090  1.1582  0.1982
16462TIP3    H170801   1.859   1.109  13.340 -0.3997 -1.5643  0.5536
16462TIP3    H270802   1.711   1.089  13.313 -0.5066 -1.9454  1.3969
16463TIP3   OH270803   3.283   6.447   1.716 -0.7126 -0.3014  0.2020
16463TIP3    H170804   3.377   6.431   1.723 -0.9008 -0.9377  1.7123
16463TIP3    H270805   3.276   6.529   1.668  0.5063 -1.5433 -2.2855
16464TIP3   OH270806   3.958   2.005   0.585  0.4274 -0.2844  0.2446
16464TIP3    H170807   3.948   2.083   0.639  2.5505 -0.6334  1.2524
16464TIP3    H270808   3.960   1.932   0.648 -1.0969 -1.1305 -0.6448
16465TIP3   OH270809   5.984   3.942   5.702  0.2609  0.4844  0.4061
16465TIP3    H170810   6.044   3.871   5.682 -2.3176 -1.8009  0.0915
16465TIP3    H270811   5.953   3.973   5.617 -1.9573 -1.2275  0.4782
16466TIP3   OH270812   5.715   2.504  11.888 -0.4058  0.3755 -0.4635
16466TIP3    H170813   5.676   2.525  11.803  1.3683 -2.1862 -2.0350
16466TIP3    H270814   5.797   2.553  11.889  0.0149 -0.3075 -0.6797
16467TIP3   OH270815   4.717   1.086   3.414 -0.8293  0.4513  0.3066
16467TIP3    H170816   4.662   1.157   3.380 -0.6367  1.1642  1.4152
16467TIP3    H270817   4.798   1.129   3.439 -0.9707 -0.0144  1.6647
16468TIP3   OH270818   1.206   2.293  13.024  0.2003  0.6944  0.5034
16468TIP3    H170819   1.278   2.355  13.017 -0.2786  1.1853 -0.1930
16468TIP3    H270820   1.206   2.265  13.116  1.4991  0.4020  0.4240
16469TIP3   OH270821   2.456   1.189  16.429 -0.1098  0.0670 -0.1640
16469TIP3    H170822   2.406   1.238  16.495  0.7539  1.3015 -0.3918
16469TIP3    H270823   2.423   1.221  16.346  0.3514  0.1427 -0.3205
16470TIP3   OH270824   0.942   3.396   5.449 -0.3708 -0.2601 -0.5282
16470TIP3    H170825   0.895   3.354   5.521 -0.2969  0.8952  0.2169
16470TIP3    H270826   0.873   3.440   5.399 -0.1158  1.6469  0.7078
16471TIP3   OH270827   1.811   1.984  13.585  0.3766 -0.2422  0.2587
16471TIP3    H170828   1.816   1.943  13.499 -2.0791  2.0830 -1.1397
16471TIP3    H270829   1.732   1.949  13.625 -0.0399  0.7476  0.3413
16472TIP3   OH270830   2.101   3.597  14.176 -0.1272 -0.5205  0.0011
16472TIP3    H170831   2.122   3.657  14.248 -1.3619 -0.4423  0.3196
16472TIP3    H270832   2.024   3.634  14.135  0.2871 -0.8248 -1.0896
16473TIP3   OH270833   1.653   0.823  10.868 -0.1809  0.0092  0.2155
16473TIP3    H170834   1.641   0.806  10.774  1.1398 -2.9311  0.4709
16473TIP3    H270835   1.595   0.760  10.911  2.4442 -1.8125  1.3250
16474TIP3   OH270836   4.910   4.623   4.073  0.5503 -0.0020 -0.3643
16474TIP3    H170837   4.847   4.670   4.128 -1.6910 -0.5800 -2.2612
16474TIP3    H270838   4.893   4.530   4.092  0.8772 -0.1646 -0.8533
16475TIP3   OH270839   5.394   5.884   1.177 -0.1394 -0.3480 -0.2470
16475TIP3    H170840   5.300   5.875   1.195  0.0120 -1.2651  0.1453
16475TIP3    H270841   5.417   5.970   1.211 -1.1404  0.5426 -1.6969
16476TIP3   OH270842   2.503   2.665   3.277  0.2405  0.1706  0.5565
16476TIP3    H170843   2.442   2.703   3.341 -0.8801  1.1034 -1.0131
16476TIP3    H270844   2.500   2.724   3.202  4.4599  1.3171  0.9957
16477TIP3   OH270845   1.200   4.174   3.207 -0.5940  0.1919  0.5117
16477TIP3    H170846   1.175   4.267   3.211  1.2769  0.7065  1.3284
16477TIP3    H270847   1.137   4.135   3.146 -1.1904  2.0690 -0.1554
16478TIP3   OH270848   5.018   3.479  14.068 -0.6413 -0.2596 -0.4367
16478TIP3    H170849   4.962   3.466  13.991  0.0488 -0.9091 -0.8368
16478TIP3    H270850   5.094   3.423  14.052  0.0133  0.4319  0.2203
16479TIP3   OH270851   0.299   6.189  15.988 -0.4456 -1.0548 -0.0389
16479TIP3    H170852   0.364   6.257  15.971 -0.8774 -0.9012 -1.1437
16479TIP3    H270853   0.243   6.226  16.056 -0.6912 -0.2903 -0.6462
16480TIP3   OH270854   1.949   3.017  13.037  0.5625  0.3260 -0.0923
16480TIP3    H170855   1.951   2.921  13.045 -0.0979  0.4001  1.4206
16480TIP3    H270856   1.920   3.047  13.123 -1.8362  1.7645 -1.3080
16481TIP3   OH270857   2.951   6.706   5.335 -0.4759  0.1014  0.3267
16481TIP3    H170858   2.964   6.785   5.283  0.3401 -1.7357 -2.5265
16481TIP3    H270859   3.039   6.671   5.348 -0.9230 -1.2262 -0.0354
16482TIP3   OH270860   2.230   2.205  14.253  0.0328 -0.4265  0.4401
16482TIP3    H170861   2.199   2.204  14.162 -0.6456 -0.7331  0.6697
16482TIP3    H270862   2.203   2.121  14.288  0.6503 -0.4723  0.8164
16483TIP3   OH270863   1.522   2.748   3.343 -0.2368 -0.3097 -0.6168
16483TIP3    H170864   1.517   2.739   3.247  1.4900  2.4607 -1.0583
16483TIP3    H270865   1.605   2.793   3.359 -1.9273  2.2632  1.9176
16484TIP3   OH270866   4.298   3.711  16.628 -0.0826  0.0139 -0.2484
16484TIP3    H170867   4.296   3.771  16.703  0.2410  0.1796 -0.3731
16484TIP3    H270868   4.328   3.764  16.555  1.2363 -0.5296 -0.1403
16485TIP3   OH270869   3.097   2.737  16.126  0.0340  0.1273  0.0895
16485TIP3    H170870   3.138   2.768  16.207  0.4343 -0.0239 -0.0488
16485TIP3    H270871   3.168   2.694  16.078  0.1508  1.4793 -1.0060
16486TIP3   OH270872   2.672   2.046   1.150  0.7250 -0.0324 -0.0220
16486TIP3    H170873   2.713   1.965   1.178 -1.6052 -1.0409  0.6957
16486TIP3    H270874   2.728   2.115   1.186  2.0461 -1.3058  0.4472
16487TIP3   OH270875   0.766   4.429   2.615  0.4619 -0.3329  0.5106
16487TIP3    H170876   0.845   4.388   2.651  0.6898  0.2101  0.6264
16487TIP3    H270877   0.768   4.406   2.522  1.9442  1.5229  0.0321
16488TIP3   OH270878   1.226   4.293   4.831  0.0307  0.2367  0.4656
16488TIP3    H170879   1.314   4.312   4.798 -0.6284 -0.8202 -2.0514
16488TIP3    H270880   1.180   4.376   4.825  0.9460  0.9613  2.3883
16489TIP3   OH270881   3.613   1.524  13.560 -0.2470 -0.1031 -0.2822
16489TIP3    H170882   3.689   1.485  13.602 -0.3553 -0.2775 -0.2460
16489TIP3    H270883   3.645   1.607  13.523 -0.3002  0.3841  0.7284
16490TIP3   OH270884   2.524   0.310   3.426  0.5204 -0.1356  1.2236
16490TIP3    H170885   2.521   0.234   3.368 -0.2431 -0.0657  1.1651
16490TIP3    H270886   2.589   0.287   3.492  1.6598 -0.0823  0.1526
16491TIP3   OH270887   2.488   3.951  16.817 -0.1978  0.1098 -0.3009
16491TIP3    H170888   2.394   3.937  16.817 -0.1457 -0.2642 -0.0809
16491TIP3    H270889   2.520   3.902  16.741 -0.2720  0.9213 -0.8683
16492TIP3   OH270890   1.371   5.901   0.461  0.3894  0.0327 -0.3973
16492TIP3    H170891   1.347   5.944   0.543 -1.6611 -1.1046 -0.3430
16492TIP3    H270892   1.330   5.955   0.393 -0.9207 -0.9148 -0.4126
16493TIP3   OH270893   1.104   0.463   5.667 -0.5483  0.7436  0.0370
16493TIP3    H170894   1.040   0.400   5.701 -0.5043 -0.3806 -1.8031
16493TIP3    H270895   1.090   0.463   5.572  2.2285  0.3411 -0.4762
16494TIP3   OH270896   6.713   5.707   0.417 -0.0011 -0.1128 -0.7690
16494TIP3    H170897   6.720   5.674   0.506  0.3403 -0.7996 -1.0406
16494TIP3    H270898   6.736   5.800   0.423 -0.1338 -0.1208 -0.1231
16495TIP3   OH270899   1.453   3.962  13.627 -0.1141 -0.6140 -0.1637
16495TIP3    H170900   1.415   4.049  13.620 -0.9932 -1.0757 -1.5545
16495TIP3    H270901   1.527   3.972  13.686  0.5674  1.3400 -1.2906
16496TIP3   OH270902   1.092   5.648  11.940  0.6672 -0.1547  0.4298
16496TIP3    H170903   1.136   5.731  11.924  1.7716 -0.5210  1.4645
16496TIP3    H270904   1.057   5.622  11.854  0.7620  1.1040  0.0007
16497TIP3   OH270905   4.653   3.685  15.134  0.2340  0.1679 -0.1848
16497TIP3    H170906   4.682   3.743  15.204  0.4902  1.1866 -1.1184
16497TIP3    H270907   4.599   3.739  15.077 -0.2484 -0.7278 -0.6109
16498TIP3   OH270908   2.470   3.303  14.736  0.0458 -0.3772 -0.8572
16498TIP3    H170909   2.530   3.366  14.775 -0.3833 -0.5548  0.1149
16498TIP3    H270910   2.490   3.221  14.779 -1.6454 -0.2120  0.3226
16499TIP3   OH270911   4.117   2.400  14.022  0.6800  0.9645 -0.6705
16499TIP3    H170912   4.126   2.420  14.115 -0.5476 -0.4031 -0.2164
16499TIP3    H270913   4.176   2.326  14.008 -0.0820  0.3428 -0.6632
16500TIP3   OH270914   4.756   4.112   1.043  0.1325 -0.2173  0.0593
16500TIP3    H170915   4.665   4.084   1.049 -0.3129  1.1464 -0.0798
16500TIP3    H270916   4.775   4.114   0.949 -1.0003  3.3555 -0.2251
16501TIP3   OH270917   4.287   2.686  11.890  0.6345  0.1464 -0.7273
16501TIP3    H170918   4.352   2.728  11.945 -0.8199  0.3541  0.9029
16501TIP3    H270919   4.234   2.757  11.856  0.1374 -0.1494 -0.5766
16502TIP3   OH270920   4.519   1.111  12.276 -0.2193  0.0530  0.3788
16502TIP3    H170921   4.553   1.093  12.364 -1.1788  1.8922  1.1939
16502TIP3    H270922   4.424   1.108  12.287 -0.4340  3.3037  0.1784
16503TIP3   OH270923   2.058   5.139   3.551  0.1433 -0.3701 -0.2417
16503TIP3    H170924   2.100   5.055   3.569  2.6929  0.8010 -0.3838
16503TIP3    H270925   2.028   5.170   3.637 -0.0688 -1.0119 -0.0760
16504TIP3   OH270926   3.978   5.518  16.755 -0.4822 -0.4019 -0.1732
16504TIP3    H170927   3.968   5.530  16.661 -3.0873  1.5012  0.2610
16504TIP3    H270928   3.891   5.495  16.787  0.0278  0.3575  1.9656
16505TIP3   OH270929   5.488   1.787  17.255 -0.3660 -0.2018  0.1483
16505TIP3    H170930   5.575   1.815  17.284 -0.2387  0.2817 -0.6711
16505TIP3    H270931   5.445   1.867  17.226 -0.0333 -0.7594 -2.1458
16506TIP3   OH270932   6.704   6.705  11.107  0.3520  0.3624 -0.3979
16506TIP3    H170933   6.757   6.631  11.078 -0.9372  0.5300 -3.5614
16506TIP3    H270934   6.763   6.780  11.102  1.3370 -0.1865  1.7207
16507TIP3   OH270935   1.941   6.643  10.917  0.3584 -0.1121  0.2642
16507TIP3    H170936   1.889   6.698  10.858  1.0451  0.7817  0.4626
16507TIP3    H270937   1.878   6.585  10.959 -0.1063 -1.1197 -1.7025
16508TIP3   OH270938   2.363   0.715   3.127  0.0164 -0.0464 -0.4330
16508TIP3    H170939   2.330   0.763   3.203 -0.4332  0.7349 -1.1036
16508TIP3    H270940   2.413   0.642   3.165 -2.6494 -1.4643  0.6794
16509TIP3   OH270941   1.678   3.476   1.859 -0.2363  0.3674 -0.1132
16509TIP3    H170942   1.735   3.418   1.809  0.2476  0.1420  0.6792
16509TIP3    H270943   1.592   3.467   1.819  0.2845  0.7568 -1.3748
16510TIP3   OH270944   4.424   6.353  16.389 -0.6107  0.2721  0.0048
16510TIP3    H170945   4.378   6.329  16.470 -0.4325 -2.2260 -0.5421
16510TIP3    H270946   4.364   6.326  16.319  1.3697 -2.7927 -0.7201
16511TIP3   OH270947   0.262   6.739  12.972 -0.2320  0.0493  0.3929
16511TIP3    H170948   0.305   6.716  12.890  0.6070  2.4422  0.0715
16511TIP3    H270949   0.328   6.724  13.039  0.5323  1.9094  0.1148
16512TIP3   OH270950   3.301   6.229   3.987  0.4148 -0.0428 -0.3926
16512TIP3    H170951   3.309   6.134   3.989 -0.9981 -0.1840  0.0742
16512TIP3    H270952   3.298   6.255   4.079 -0.9332  0.2482 -0.4913
16513TIP3   OH270953   2.687   0.783  14.874  0.2105  0.1954  0.3110
16513TIP3    H170954   2.760   0.833  14.911  0.5798 -0.5221  0.5737
16513TIP3    H270955   2.677   0.817  14.785 -1.4796  2.8094  1.3767
16514TIP3   OH270956   3.482   0.750  14.552 -0.0282 -0.1236  0.2758
16514TIP3    H170957   3.480   0.798  14.634 -0.1853  0.2176  0.0728
16514TIP3    H270958   3.510   0.662  14.577  0.4072  0.1098  0.6287
16515TIP3   OH270959   5.917   2.237  15.219 -0.2783  0.3930  0.0498
16515TIP3    H170960   5.881   2.232  15.308  0.5221  0.3275  0.3710
16515TIP3    H270961   5.895   2.153  15.179 -0.3557  0.3006  0.2867
16516TIP3   OH270962   4.838   6.532   0.018  0.2117  0.0905 -0.2399
16516TIP3    H170963   4.765   6.490  -0.028  2.0028 -0.1066 -3.1576
16516TIP3    H270964   4.811   6.624   0.027 -1.3200 -0.4263  0.9311
16517TIP3   OH270965   2.117   0.967  10.390  0.1150 -0.8606 -0.0767
16517TIP3    H170966   2.201   0.935  10.422  0.2115 -1.3068 -0.7553
16517TIP3    H270967   2.123   1.062  10.397  0.4594 -0.9194  0.4140
16518TIP3   OH270968   3.735   1.802  13.214 -0.0185 -0.1042 -0.2546
16518TIP3    H170969   3.650   1.762  13.193  0.5090 -0.1230 -2.7247
16518TIP3    H270970   3.724   1.894  13.190  0.8168 -0.2465 -1.2822
16519TIP3   OH270971   0.138   0.356  14.242  0.1204 -0.2053 -0.0789
16519TIP3    H170972   0.103   0.401  14.318 -0.0165  0.2885 -0.4323
16519TIP3    H270973   0.155   0.425  14.178  0.7198 -0.5579 -0.3101
16520TIP3   OH270974   6.477   4.433  12.399  0.1700 -0.0320  0.0880
16520TIP3    H170975   6.566   4.468  12.404  1.1291 -2.1723 -0.7077
16520TIP3    H270976   6.468   4.379  12.477 -1.4752  2.1975  1.5701
16521TIP3   OH270977   1.119   2.079  12.841 -0.6630  0.1243 -0.6171
16521TIP3    H170978   1.112   2.097  12.747  1.2148  0.8890 -0.6539
16521TIP3    H270979   1.146   2.162  12.880 -2.8294  0.2316  0.8722
16522TIP3   OH270980   1.956   4.662   2.503  0.0193  0.6655 -0.3325
16522TIP3    H170981   1.955   4.566   2.495  1.8431  0.8119 -4.2711
16522TIP3    H270982   1.868   4.689   2.479  0.4875  0.0473 -2.9856
16523TIP3   OH270983   3.944   3.737   3.540 -0.0878 -0.3580  0.1762
16523TIP3    H170984   3.919   3.787   3.462  0.2281  1.9132  1.4252
16523TIP3    H270985   4.034   3.709   3.523 -0.1431 -0.1790 -0.4349
16524TIP3   OH270986   2.413   0.340   6.397  0.1115 -0.6631 -0.4436
16524TIP3    H170987   2.357   0.413   6.370  1.7512  1.0457  0.5323
16524TIP3    H270988   2.432   0.294   6.315 -1.0781 -0.1067 -1.0714
16525TIP3   OH270989   3.989   5.551   0.079  0.4347  0.0010 -0.2717
16525TIP3    H170990   4.072   5.587   0.111  1.2372 -1.1604 -0.9615
16525TIP3    H270991   4.007   5.526  -0.012 -0.8563  0.2913 -0.6260
16526TIP3   OH270992   1.010   6.537  12.998  0.2691 -0.2709 -0.0072
16526TIP3    H170993   0.986   6.445  12.987 -0.0968 -0.1384 -0.3554
16526TIP3    H270994   1.104   6.537  13.012  0.7213 -0.5259 -2.5246
16527TIP3   OH270995   4.341   0.161  14.937 -0.0772 -0.0299 -0.3042
16527TIP3    H170996   4.256   0.187  14.973 -0.7030 -2.3598  0.0497
16527TIP3    H270997   4.324   0.077  14.895  1.9303 -0.2036 -0.8461
16528TIP3   OH270998   2.597   4.452  15.507  0.2371  0.4045  0.3766
16528TIP3    H170999   2.654   4.461  15.583  0.6638  0.7413  0.0167
16528TIP3    H271000   2.510   4.476  15.540  0.6216  1.7361  0.4737
16529TIP3   OH271001   3.145   3.592   4.998  0.0836 -0.4452 -0.1919
16529TIP3    H171002   3.214   3.533   4.969 -0.2482 -1.4061  0.8830
16529TIP3    H271003   3.147   3.586   5.094  0.2785  1.5870 -0.0338
16530TIP3   OH271004   5.753   0.492   1.397  0.3774  0.0108  0.0689
16530TIP3    H171005   5.785   0.402   1.385  0.8266  0.4381 -2.5691
16530TIP3    H271006   5.820   0.546   1.356 -0.4208  1.4916  0.6572
16531TIP3   OH271007   4.663   4.982   4.146 -0.4382  0.0348 -0.1815
16531TIP3    H171008   4.711   4.899   4.139  0.3686  0.5356 -0.7459
16531TIP3    H271009   4.627   4.981   4.234  0.1023 -0.6320  0.0441
16532TIP3   OH271010   1.110   5.093   3.190 -0.4447 -0.5862 -0.2658
16532TIP3    H171011   1.057   5.021   3.156  0.0773 -1.0999  0.0041
16532TIP3    H271012   1.085   5.100   3.282 -0.7606 -0.1738 -0.3765
16533TIP3   OH271013   5.740   6.170   2.018 -0.2379 -0.1296 -0.3668
16533TIP3    H171014   5.682   6.130   1.953  1.1478 -1.4761 -0.8296
16533TIP3    H271015   5.790   6.234   1.968 -1.2600  1.0248  0.0317
16534TIP3   OH271016   4.810   5.464  15.891  0.3263 -0.1640 -0.1903
16534TIP3    H171017   4.811   5.498  15.980 -2.7888 -2.1629  0.7714
16534TIP3    H271018   4.877   5.395  15.891  1.0163  0.4794  0.2471
16535TIP3   OH271019   2.226   0.952   0.767 -0.4123 -0.0292  0.1477
16535TIP3    H171020   2.141   0.927   0.803 -0.0207 -0.5448  0.7281
16535TIP3    H271021   2.222   0.923   0.675 -0.6781 -0.4913  0.3002
16536TIP3   OH271022   3.312   4.582  16.164  0.3114 -0.5070 -0.2715
16536TIP3    H171023   3.222   4.552  16.176  0.7438 -2.3075 -1.1148
16536TIP3    H271024   3.355   4.559  16.246  0.3712 -1.2114 -0.4903
16537TIP3   OH271025   5.800   1.530  11.560 -0.1116 -0.2874 -0.1178
16537TIP3    H171026   5.856   1.607  11.560  1.7056 -1.5440 -0.9950
16537TIP3    H271027   5.821   1.484  11.641  1.5398 -1.6693 -1.2561
16538TIP3   OH271028   4.205   1.439  15.210 -0.2531 -0.0654  0.0366
16538TIP3    H171029   4.258   1.506  15.168 -0.3616 -0.3680 -0.6011
16538TIP3    H271030   4.265   1.393  15.269 -0.0004  0.0935 -0.0979
16539TIP3   OH271031   0.667   1.664  15.434 -0.1269  0.1536  0.3966
16539TIP3    H171032   0.713   1.627  15.359 -1.2154  1.2659 -0.8749
16539TIP3    H271033   0.735   1.679  15.499  0.7854 -1.1806 -0.1993
16540TIP3   OH271034   1.260   4.516  10.909 -0.4047 -0.7749  0.0866
16540TIP3    H171035   1.267   4.570  10.831 -1.8522 -2.4108 -1.2507
16540TIP3    H271036   1.169   4.525  10.936 -0.8492 -2.9206 -0.5188
16541TIP3   OH271037   4.267   0.242   0.308  0.5420 -1.5250  0.1060
16541TIP3    H171038   4.230   0.273   0.225 -0.6590  0.8315  1.4009
16541TIP3    H271039   4.194   0.248   0.370  2.3567  0.7797  2.2131
16542TIP3   OH271040   1.001   0.732   0.869  0.1209 -0.3975  0.1216
16542TIP3    H171041   0.933   0.755   0.805  0.8375 -1.2758 -1.0005
16542TIP3    H271042   1.069   0.690   0.817  1.2621 -0.0799  1.3144
16543TIP3   OH271043   1.179   6.153  16.440 -0.4074 -0.2512  0.2061
16543TIP3    H171044   1.254   6.212  16.442 -1.0673  0.7104 -1.6676
16543TIP3    H271045   1.176   6.120  16.350 -1.2534 -1.5776  0.6843
16544TIP3   OH271046   0.579   2.328  11.547  0.5028  0.2021 -0.3255
16544TIP3    H171047   0.583   2.411  11.593  0.9837 -0.1368  0.2653
16544TIP3    H271048   0.494   2.327  11.503 -0.1104  0.3767  0.8510
16545TIP3   OH271049   2.452   5.052   0.239  0.6958  0.3105  0.2997
16545TIP3    H171050   2.526   4.996   0.266  0.1112  0.8517  3.4428
16545TIP3    H271051   2.375   4.997   0.249  0.3174  0.9868  1.2643
16546TIP3   OH271052   3.235   5.228   5.991 -0.3203  0.8921  0.8149
16546TIP3    H171053   3.235   5.170   5.915 -0.0105  1.2842  0.5123
16546TIP3    H271054   3.211   5.171   6.064 -1.8755  0.7621  0.2470
16547TIP3   OH271055   2.939   5.676  14.294  0.2320  0.8176  0.7112
16547TIP3    H171056   2.882   5.600  14.305  1.4920 -0.0436  1.6052
16547TIP3    H271057   2.956   5.706  14.384  1.4159  0.8565  0.4903
16548TIP3   OH271058   1.748   0.826  15.542  0.2699  0.3029 -0.0887
16548TIP3    H171059   1.755   0.921  15.548 -0.3594  0.3425  0.0027
16548TIP3    H271060   1.768   0.806  15.451  1.6015  0.4132  0.1591
16549TIP3   OH271061   0.325   2.214   4.716  0.9548 -0.8147  0.0598
16549TIP3    H171062   0.359   2.134   4.676  1.9399  0.0920 -1.0054
16549TIP3    H271063   0.352   2.284   4.656  0.5797  0.3754  1.2287
16550TIP3   OH271064   5.376   3.815  14.130 -0.3561  0.0768 -0.0967
16550TIP3    H171065   5.467   3.842  14.122 -0.6601  1.3185  0.3370
16550TIP3    H271066   5.338   3.876  14.194 -1.6295 -0.0173 -0.7198
16551TIP3   OH271067   4.172   5.056  15.970  0.3408 -0.4346  0.3501
16551TIP3    H171068   4.098   5.025  15.919 -0.1167 -1.2468  1.4655
16551TIP3    H271069   4.243   4.995  15.951  0.8051  0.4499 -0.8611
16552TIP3   OH271070   2.112   4.859  15.014  0.7485 -0.6980  0.4565
16552TIP3    H171071   2.090   4.925  14.947 -0.7108 -0.6967  0.9149
16552TIP3    H271072   2.094   4.775  14.972  0.5783 -0.7278  0.5917
16553TIP3   OH271073   2.878   2.726  13.972 -0.0195  0.5840 -0.0546
16553TIP3    H171074   2.937   2.731  14.048  0.1848  0.7968 -0.2221
16553TIP3    H271075   2.864   2.633  13.958 -0.3097  0.5500  0.4358
16554TIP3   OH271076   3.354   3.275  13.562  0.4468 -0.0893 -0.2117
16554TIP3    H171077   3.403   3.298  13.483 -1.7277 -1.6722 -2.1658
16554TIP3    H271078   3.299   3.351  13.579 -0.7519 -0.5777 -1.6819
16555TIP3   OH271079   0.192   1.197  13.363 -0.8344  0.3673  0.3409
16555TIP3    H171080   0.167   1.162  13.449  0.2745 -0.7523  0.2336
16555TIP3    H271081   0.171   1.126  13.302  0.5516  0.2265 -0.0076
16556TIP3   OH271082   2.028   3.212   3.435  0.2388  0.5829 -0.0101
16556TIP3    H171083   2.013   3.134   3.488  0.6668  1.4064  1.3703
16556TIP3    H271084   2.123   3.224   3.437  0.5898 -0.7513 -3.0534
16557TIP3   OH271085   3.445   6.575  11.180  0.1988 -0.4079  0.5189
16557TIP3    H171086   3.511   6.507  11.196 -0.9865 -1.9058 -0.6789
16557TIP3    H271087   3.362   6.532  11.197 -0.6807  0.1865 -1.9083
16558TIP3   OH271088   2.333   1.989  15.329  0.3048 -0.3325 -0.1639
16558TIP3    H171089   2.414   1.955  15.368  0.0896  0.6503  1.2451
16558TIP3    H271090   2.341   2.084  15.339 -1.5876 -0.2522  1.2729
16559TIP3   OH271091   6.063   0.979   3.067  0.2180 -0.0119 -0.7633
16559TIP3    H171092   6.068   0.956   2.974  0.2789  1.2163 -1.0861
16559TIP3    H271093   5.999   1.051   3.070  1.0803  0.7467 -0.0169
16560TIP3   OH271094   5.903   2.239  13.261  0.5444 -0.0517 -0.1074
16560TIP3    H171095   5.981   2.282  13.229 -0.8483  1.8450 -1.1403
16560TIP3    H271096   5.864   2.198  13.184  0.5625 -1.0790  0.4153
16561TIP3   OH271097   2.432   4.750   2.836 -0.1295 -0.2349  0.3306
16561TIP3    H171098   2.389   4.726   2.753 -1.1147  2.4305 -0.0170
16561TIP3    H271099   2.515   4.790   2.809  0.9193 -1.9403  0.8403
16562TIP3   OH271100   5.356   1.735  13.535 -0.2773 -0.1108  0.0370
16562TIP3    H171101   5.288   1.761  13.473 -0.5191  1.5491  0.9415
16562TIP3    H271102   5.327   1.650  13.568 -2.1808  0.7409  0.7055
16563TIP3   OH271103   5.895   3.711  10.996  0.2056  0.6760  0.3332
16563TIP3    H171104   5.889   3.663  10.914 -0.4710 -0.2748  0.9160
16563TIP3    H271105   5.904   3.803  10.970  2.2627  0.2048 -0.8259
16564TIP3   OH271106   4.055   4.537   2.949  0.2413  0.2033  0.5389
16564TIP3    H171107   4.090   4.580   2.871 -0.8362  0.7148  0.3126
16564TIP3    H271108   3.975   4.587   2.969  0.5107  0.0777  1.9737
16565TIP3   OH271109   2.519   4.531  14.199  0.0112 -0.3373 -0.2547
16565TIP3    H171110   2.586   4.502  14.137 -0.3574  0.1882 -0.9124
16565TIP3    H271111   2.436   4.513  14.154 -0.4001 -2.6363  1.2431
16566TIP3   OH271112   0.841   3.662  16.159  0.1920 -0.1902  0.1982
16566TIP3    H171113   0.837   3.721  16.083  1.1866  1.0059  1.0319
16566TIP3    H271114   0.785   3.588  16.135  0.5390  0.1260 -1.7205
16567TIP3   OH271115   3.177   6.347   4.583 -0.5145  0.2995 -0.5511
16567TIP3    H171116   3.174   6.374   4.675 -1.5563  0.2308 -0.5502
16567TIP3    H271117   3.261   6.379   4.551 -0.5486  1.1506  0.1810
16568TIP3   OH271118   3.158   1.182   0.540  0.1910 -0.5868  0.2962
16568TIP3    H171119   3.249   1.206   0.554  0.6614 -2.0204 -0.1233
16568TIP3    H271120   3.161   1.089   0.516 -1.2834 -0.3751 -0.8435
16569TIP3   OH271121   4.162   2.067  11.330  0.1813  0.2157 -0.3258
16569TIP3    H171122   4.186   1.976  11.347  1.0017  0.6166  0.7783
16569TIP3    H271123   4.233   2.119  11.368  0.0107  1.3163 -1.4214
16570TIP3   OH271124   0.682   3.381   1.843  0.7463  0.3759 -0.0805
16570TIP3    H171125   0.747   3.315   1.865 -1.4474 -1.5805  0.8869
16570TIP3    H271126   0.601   3.333   1.830 -0.7708  2.7970 -0.2812
16571TIP3   OH271127   1.422   4.556  15.024 -0.5976 -0.3861  0.2522
16571TIP3    H171128   1.351   4.537  14.963  0.2618 -0.6942 -0.6767
16571TIP3    H271129   1.378   4.574  15.107 -1.7583 -0.5183 -0.3151
16572TIP3   OH271130   5.851   0.452   0.467  0.1432 -0.1688 -0.4142
16572TIP3    H171131   5.940   0.418   0.464  0.4146  0.2948  1.5607
16572TIP3    H271132   5.797   0.377   0.441  1.0885 -0.3594 -1.9601
16573TIP3   OH271133   6.551   1.909   1.735  0.2187 -0.2976 -0.0055
16573TIP3    H171134   6.589   1.904   1.647  1.5278 -0.5288  0.5424
16573TIP3    H271135   6.491   1.984   1.731  2.9852  2.1033 -0.1395
16574TIP3   OH271136   4.567   4.729   0.642 -0.6133 -0.1453 -0.3296
16574TIP3    H171137   4.649   4.679   0.643  0.3405  1.3140 -1.5220
16574TIP3    H271138   4.556   4.757   0.733  0.3935 -0.0745 -0.2160
16575TIP3   OH271139   3.548   5.783   3.184  0.5590 -0.5879 -0.0932
16575TIP3    H171140   3.484   5.805   3.253 -0.2565 -2.7769 -0.0624
16575TIP3    H271141   3.631   5.817   3.217 -0.3333  1.2710  0.4287
16576TIP3   OH271142   3.056   3.431  16.136  0.1612  0.2948 -0.0535
16576TIP3    H171143   3.083   3.523  16.136 -0.5977  0.5552 -1.4279
16576TIP3    H271144   2.969   3.432  16.175 -0.1642  0.2852 -0.7616
16577TIP3   OH271145   0.541   0.446  14.999  0.2232  0.9735 -0.2908
16577TIP3    H171146   0.590   0.492  14.931 -0.0046 -0.3165 -1.3860
16577TIP3    H271147   0.606   0.393  15.044  0.4770  2.2615  0.9336
16578TIP3   OH271148   3.644   1.040   3.266  0.1197 -0.3330 -0.2986
16578TIP3    H171149   3.616   1.085   3.187 -3.7055 -1.0978  0.4070
16578TIP3    H271150   3.612   1.095   3.338 -2.5903 -2.7728  0.5747
16579TIP3   OH271151   6.748   2.483   6.393 -0.3775 -1.2205  0.3006
16579TIP3    H171152   6.692   2.532   6.454 -1.1643  0.0406 -1.3354
16579TIP3    H271153   6.835   2.486   6.432 -0.9259 -0.8029  1.5462
16580TIP3   OH271154   1.061   4.698  14.336 -0.0053  0.0911 -0.1177
16580TIP3    H171155   1.111   4.665  14.410 -1.1189 -0.1593  0.5507
16580TIP3    H271156   1.052   4.623  14.277  0.5505  0.1889 -0.3353
16581TIP3   OH271157   3.618   3.284  12.507 -0.1192  0.3603 -0.4830
16581TIP3    H171158   3.575   3.356  12.553 -0.5581 -0.1492 -0.0960
16581TIP3    H271159   3.707   3.317  12.490  1.3626 -0.6823  3.8958
16582TIP3   OH271160   4.215   2.069   1.789 -0.2055  0.4125 -0.6837
16582TIP3    H171161   4.170   2.134   1.735  0.1697  0.5986 -0.7781
16582TIP3    H271162   4.276   2.121   1.842 -0.6627  0.2443  0.0117
16583TIP3   OH271163   2.295   4.647   3.597  0.2527  0.2556  0.2552
16583TIP3    H171164   2.218   4.622   3.649 -1.3993  0.9242 -1.7120
16583TIP3    H271165   2.284   4.600   3.514  0.7774  2.0182 -0.8786
16584TIP3   OH271166   1.758   6.478  15.122 -0.0489  0.3208  0.1693
16584TIP3    H171167   1.733   6.417  15.053  2.5740 -0.2470 -0.3925
16584TIP3    H271168   1.830   6.434  15.168  1.4135  2.6339  0.2463
16585TIP3   OH271169   3.084   3.331   3.561 -0.2001 -0.1595  0.7114
16585TIP3    H171170   3.127   3.410   3.528  0.7959 -1.0959 -0.3246
16585TIP3    H271171   2.993   3.340   3.533 -0.2164  0.8184  1.0127
16586TIP3   OH271172   6.209   0.476  12.178 -0.0322  0.4208 -0.5916
16586TIP3    H171173   6.296   0.498  12.145 -1.0091  0.1128 -3.5865
16586TIP3    H271174   6.187   0.392  12.137 -2.1168  0.9384 -0.6697
16587TIP3   OH271175   1.751   1.209   2.145  0.7195  0.1181 -0.5416
16587TIP3    H171176   1.663   1.188   2.113  0.6166 -0.4402  0.0731
16587TIP3    H271177   1.809   1.153   2.095  0.8661  1.3573 -1.8154
16588TIP3   OH271178   0.825   0.178   4.527 -0.3173 -0.2379 -0.1036
16588TIP3    H171179   0.906   0.227   4.544 -0.6865 -0.2923  2.0997
16588TIP3    H271180   0.756   0.239   4.552 -0.9465 -0.5373 -1.0677
16589TIP3   OH271181   1.470   0.633   1.309  0.8087 -0.1507  0.1173
16589TIP3    H171182   1.540   0.594   1.362  1.0976  0.4836  0.2065
16589TIP3    H271183   1.422   0.688   1.370 -1.1845 -2.2720  0.6308
16590TIP3   OH271184   0.034   3.713   0.902  0.2448 -0.0793  0.2789
16590TIP3    H171185   0.109   3.773   0.904 -0.0002  0.2483 -0.0816
16590TIP3    H271186   0.021   3.688   0.994  1.2226 -0.6912  0.2643
16591TIP3   OH271187   6.066   0.405   4.402 -0.1764 -0.0712  0.5027
16591TIP3    H171188   6.062   0.310   4.391  0.2356  0.0736 -1.1584
16591TIP3    H271189   6.041   0.441   4.317  2.2581  1.2570  0.2468
16592TIP3   OH271190   5.940   5.058   3.819  0.1238 -0.2730  0.0735
16592TIP3    H171191   5.886   4.979   3.826  1.4297 -1.2806 -0.8132
16592TIP3    H271192   5.917   5.109   3.897 -0.8859 -1.4249  0.5662
16593TIP3   OH271193   3.133   0.719   0.427  0.0449  0.2996  0.5741
16593TIP3    H171194   3.097   0.639   0.465 -0.9936  0.5396  0.1244
16593TIP3    H271195   3.126   0.706   0.333 -2.4990  1.8845  0.4459
16594TIP3   OH271196   6.659   4.649  12.729 -0.3075 -0.5048 -0.2145
16594TIP3    H171197   6.608   4.570  12.743  0.0006 -0.6745 -0.0421
16594TIP3    H271198   6.606   4.720  12.767 -0.3042 -0.7107  0.1724
16595TIP3   OH271199   5.422   1.968  11.147  0.1354  0.4309  0.2749
16595TIP3    H171200   5.453   1.901  11.209 -0.8675 -1.4281 -1.1390
16595TIP3    H271201   5.340   1.933  11.112 -0.4557  2.4413 -0.5236
16596TIP3   OH271202   3.152   3.802   5.826  0.4391 -0.0667 -0.5608
16596TIP3    H171203   3.173   3.819   5.918 -0.6545 -0.3949 -0.2486
16596TIP3    H271204   3.169   3.886   5.783  0.8297  0.1277 -0.0513
16597TIP3   OH271205   2.104   4.203  12.400  0.0918 -0.0376  0.6850
16597TIP3    H171206   2.173   4.215  12.465  1.3529 -2.6059 -0.0699
16597TIP3    H271207   2.045   4.278  12.413  3.3383  2.6947  0.9096
16598TIP3   OH271208   5.536   2.699  15.365  0.4743 -0.0175 -0.2676
16598TIP3    H171209   5.593   2.770  15.394 -2.1647  2.3899 -0.6164
16598TIP3    H271210   5.559   2.685  15.273 -0.1683  1.6792 -0.7097
16599TIP3   OH271211   3.801   4.262  16.133 -0.1866  0.0121  0.5493
16599TIP3    H171212   3.722   4.314  16.125 -0.9160 -1.1144  0.2734
16599TIP3    H271213   3.859   4.316  16.188  0.1703  2.3360 -1.9074
16600TIP3   OH271214   5.684   4.277   4.471 -0.0199  0.5029  0.0940
16600TIP3    H171215   5.777   4.287   4.491 -0.0367 -0.8894  0.9989
16600TIP3    H271216   5.646   4.362   4.492  0.5948  0.2295  2.6128
16601TIP3   OH271217   2.658   4.899   2.796 -0.2141  0.3813 -0.0167
16601TIP3    H171218   2.676   4.969   2.734 -1.4777  0.9257  0.2102
16601TIP3    H271219   2.614   4.943   2.869 -2.7681 -0.8938 -0.6914
16602TIP3   OH271220   3.516   4.321  10.624 -0.0019  0.0366  0.3515
16602TIP3    H171221   3.515   4.233  10.585  0.7319  0.0512  0.2853
16602TIP3    H271222   3.464   4.374  10.564  0.5131 -0.1030 -0.2293
16603TIP3   OH271223   0.695   6.017  16.198 -0.0945 -0.2561  0.1850
16603TIP3    H171224   0.643   6.014  16.118 -1.4257 -0.7016  1.0218
16603TIP3    H271225   0.750   6.094  16.188 -0.2856 -0.2642 -1.1178
16604TIP3   OH271226   2.534   4.230   1.786  0.8621 -0.3443  0.2538
16604TIP3    H171227   2.616   4.192   1.820  0.1184 -0.5273  1.9330
16604TIP3    H271228   2.469   4.162   1.799  0.1207  0.3916  0.4458
16605TIP3   OH271229   5.945   3.259  14.743 -0.0832 -0.1658 -0.3647
16605TIP3    H171230   5.978   3.229  14.658 -0.0072  2.6691 -1.4469
16605TIP3    H271231   5.850   3.256  14.735 -0.0843 -1.1287 -0.0532
16606TIP3   OH271232   3.699   4.143  14.235 -0.6978 -1.2003  0.2394
16606TIP3    H171233   3.610   4.148  14.270 -0.0372  1.2536  1.8890
16606TIP3    H271234   3.696   4.193  14.154 -0.9104 -1.5248  0.0456
16607TIP3   OH271235   4.470   4.842  12.954 -0.5712  0.4391 -0.3182
16607TIP3    H171236   4.387   4.859  13.000 -0.2618  2.0782 -0.2941
16607TIP3    H271237   4.485   4.748  12.966 -1.3094  0.5133  1.5699
16608TIP3   OH271238   2.094   5.927   2.521  0.6830  0.9451  0.0091
16608TIP3    H171239   2.090   5.926   2.425 -0.4809  1.0804  0.0468
16608TIP3    H271240   2.187   5.917   2.541  1.0016  1.4617 -1.1407
16609TIP3   OH271241   4.262   5.839   1.044 -0.0082  0.3264  0.5808
16609TIP3    H171242   4.219   5.923   1.062 -2.0911 -0.7249  0.7381
16609TIP3    H271243   4.206   5.774   1.085  1.2783 -1.2094 -0.0184
16610TIP3   OH271244   2.801   4.546   1.339  0.0611 -0.3135  0.1138
16610TIP3    H171245   2.750   4.505   1.408  0.7323  0.1380  0.9051
16610TIP3    H271246   2.750   4.624   1.314  1.2100  1.2406  2.2719
16611TIP3   OH271247   2.238   3.572   2.770  0.2469 -0.6392  0.7581
16611TIP3    H171248   2.269   3.507   2.707  1.0562  0.3632  0.0942
16611TIP3    H271249   2.250   3.656   2.726 -0.9691 -0.0368  1.5241
16612TIP3   OH271250   1.827   4.190  12.177 -0.1911 -0.6329 -0.1845
16612TIP3    H171251   1.776   4.114  12.150 -0.0617 -0.8522  0.1888
16612TIP3    H271252   1.811   4.199  12.270  0.2376 -0.5438 -0.1149
16613TIP3   OH271253   3.888   5.563  14.006  0.0953  0.3013 -0.5827
16613TIP3    H171254   3.972   5.568  13.962  1.3014  1.9052  1.6708
16613TIP3    H271255   3.877   5.470  14.028  0.5545 -0.1389 -2.1200
16614TIP3   OH271256   3.619   0.011  11.961  0.4203  0.1492 -0.3315
16614TIP3    H171257   3.688   0.001  12.026  0.5002  2.0117 -0.0689
16614TIP3    H271258   3.587  -0.078  11.946  1.5836 -0.5235  0.9421
16615TIP3   OH271259   1.952   0.299   0.896 -0.2622 -0.2019 -0.0288
16615TIP3    H171260   2.018   0.349   0.944  0.2702 -0.7289 -0.2060
16615TIP3    H271261   2.002   0.237   0.844 -0.9046 -0.6613 -0.1068
16616TIP3   OH271262   6.671   3.513   0.486  0.1007 -0.1093  0.3205
16616TIP3    H171263   6.761   3.481   0.495  0.3548  0.3775 -0.3719
16616TIP3    H271264   6.617   3.434   0.488  0.6217 -0.4862 -0.1720
16617TIP3   OH271265   2.366   0.606   0.316 -0.2127  0.1722  0.3378
16617TIP3    H171266   2.322   0.658   0.248  0.9612  0.4541 -0.2374
16617TIP3    H271267   2.300   0.542   0.343 -0.9786  0.5856 -0.4790
16618TIP3   OH271268   3.510   4.853   0.564  0.1770 -0.7027 -0.6294
16618TIP3    H171269   3.545   4.930   0.520  0.1997 -0.1276  0.3595
16618TIP3    H271270   3.586   4.815   0.610 -0.1071 -0.4959  0.0319
16619TIP3   OH271271   4.888   2.061  14.139  0.1493  0.3068 -0.2777
16619TIP3    H171272   4.920   2.148  14.113  0.2093  0.7938  1.3080
16619TIP3    H271273   4.793   2.069  14.137  0.1541  0.3755 -0.2508
16620TIP3   OH271274   1.182   1.618  14.982 -0.5329  0.2305 -0.5351
16620TIP3    H171275   1.189   1.580  14.895 -0.3420  0.1205 -0.4709
16620TIP3    H271276   1.107   1.677  14.976 -0.4863  0.2644 -0.7889
16621TIP3   OH271277   3.793   1.182  12.905 -0.2600 -0.2637 -0.0269
16621TIP3    H171278   3.826   1.106  12.857  0.9249  0.8266 -1.0181
16621TIP3    H271279   3.846   1.255  12.874  0.9167  0.4875  3.3033
16622TIP3   OH271280   3.129   6.199  11.404  0.6348  0.4116 -0.1206
16622TIP3    H171281   3.105   6.129  11.343  1.6861 -0.8076  0.8032
16622TIP3    H271282   3.053   6.209  11.460  0.7910 -0.6482  0.3031
16623TIP3   OH271283   0.010   5.510   2.220 -0.1496 -0.2007 -0.5033
16623TIP3    H171284   0.006   5.494   2.126 -2.0385 -0.8165 -0.3701
16623TIP3    H271285   0.026   5.423   2.258 -3.7784 -0.8727 -0.1171
16624TIP3   OH271286   0.807   4.279   3.897 -0.2407 -0.2686  0.4432
16624TIP3    H171287   0.799   4.263   3.991 -1.2507 -0.8318  0.2829
16624TIP3    H271288   0.766   4.202   3.856  2.4609 -1.3089 -0.5308
16625TIP3   OH271289   0.390   5.452   5.013 -0.2727  0.3385 -0.0552
16625TIP3    H171290   0.432   5.536   5.027  1.1718 -0.1415 -1.2475
16625TIP3    H271291   0.379   5.446   4.918  0.4036 -1.1603 -0.0667
16626TIP3   OH271292   3.048   4.457   4.158 -0.7626  0.0196 -0.1600
16626TIP3    H171293   3.134   4.466   4.116 -1.1975  0.3248 -1.0127
16626TIP3    H271294   3.068   4.437   4.249  0.2158 -0.3314 -0.4342
16627TIP3   OH271295   3.801   5.857   4.830 -0.4690 -0.0405 -0.2690
16627TIP3    H171296   3.709   5.882   4.832 -0.4879 -0.1637  0.4134
16627TIP3    H271297   3.848   5.939   4.818 -0.5811  0.2252  1.0536
16628TIP3   OH271298   1.867   0.385  16.473  0.5568 -0.3311  0.2611
16628TIP3    H171299   1.772   0.394  16.479  0.6120  0.2185  0.3297
16628TIP3    H271300   1.885   0.373  16.380  0.3625 -1.1891  0.3212
16629TIP3   OH271301   2.704   3.186  17.330 -0.1024  0.4935 -0.1466
16629TIP3    H171302   2.621   3.213  17.371 -1.3052 -1.1068 -1.3764
16629TIP3    H271303   2.724   3.257  17.269 -2.2983 -0.4286 -2.1058
16630TIP3   OH271304   6.294   1.881   2.340  0.0595 -0.7974  0.4432
16630TIP3    H171305   6.336   1.964   2.362 -1.4390  0.7276 -2.0031
16630TIP3    H271306   6.284   1.836   2.424  2.7554  0.5474  1.5863
16631TIP3   OH271307   5.567   0.101   4.379 -0.4000  0.0490 -0.3608
16631TIP3    H171308   5.483   0.073   4.416 -1.5108  3.5318  0.0839
16631TIP3    H271309   5.560   0.196   4.372  3.1504  0.3825 -1.3211
16632TIP3   OH271310   1.136   1.912  10.738 -0.0168 -0.5983  0.4007
16632TIP3    H171311   1.203   1.844  10.744  0.7999  0.2539  1.2384
16632TIP3    H271312   1.095   1.898  10.652  2.2948 -0.1891 -0.8476
16633TIP3   OH271313   1.195   3.817  13.551 -0.2860 -0.0378  0.0796
16633TIP3    H171314   1.287   3.802  13.576 -0.4505 -0.2414  0.5867
16633TIP3    H271315   1.198   3.835  13.458  0.4056  1.1439  0.3102
16634TIP3   OH271316   3.318   0.607   2.868  0.3140  0.1861 -0.0594
16634TIP3    H171317   3.373   0.589   2.792  0.5156  0.1133  0.1015
16634TIP3    H271318   3.306   0.702   2.868  0.6597  0.2302  0.0538
16635TIP3   OH271319   2.742   6.159  12.861 -0.3767  0.2659 -0.3152
16635TIP3    H171320   2.822   6.205  12.885 -1.5570  1.1125  2.3572
16635TIP3    H271321   2.688   6.226  12.819 -0.5406  0.2704 -0.0966
16636TIP3   OH271322   0.732   2.998  13.108 -0.2728 -0.1563 -0.2194
16636TIP3    H171323   0.741   2.977  13.015 -1.6020  1.8295 -0.8721
16636TIP3    H271324   0.687   2.923  13.146 -0.3265 -0.6947 -1.3313
16637TIP3   OH271325   0.672   6.295   3.831 -0.0022 -0.2762  0.5072
16637TIP3    H171326   0.735   6.320   3.898  0.6819  0.4116 -0.3556
16637TIP3    H271327   0.722   6.300   3.749 -0.8436 -0.9667 -0.0651
16638TIP3   OH271328   4.390   1.819  10.439 -0.2693  0.1781  0.2904
16638TIP3    H171329   4.419   1.791  10.525 -0.7854 -2.5523 -0.3541
16638TIP3    H271330   4.460   1.791  10.379  0.0952  2.0526 -0.2571
16639TIP3   OH271331   6.011   3.525  13.921 -0.4812 -0.8704 -0.0007
16639TIP3    H171332   6.015   3.467  13.997  0.9650  0.1109  0.7146
16639TIP3    H271333   6.096   3.567  13.918 -0.6611 -0.5332 -1.9233
16640TIP3   OH271334   5.702   3.505   3.523 -0.6701 -0.2896 -0.4344
16640TIP3    H171335   5.692   3.550   3.607  0.6808 -1.6343  0.4981
16640TIP3    H271336   5.717   3.575   3.460  1.3282  0.6304  0.9700
16641TIP3   OH271337   5.092   1.853   1.747 -1.0325  0.2150 -0.0611
16641TIP3    H171338   5.058   1.764   1.742 -0.3916 -0.1455  1.4744
16641TIP3    H271339   5.049   1.891   1.823 -1.0023  1.1074 -0.4716
16642TIP3   OH271340   1.783   0.014   2.930 -0.1931  0.2084  0.0760
16642TIP3    H171341   1.872  -0.006   2.959  1.0166 -0.6487 -3.6273
16642TIP3    H271342   1.748  -0.069   2.897 -1.9215  0.7694  0.3621
16643TIP3   OH271343   2.030   2.368   5.440  0.2938 -0.4942 -0.0065
16643TIP3    H171344   2.099   2.434   5.427  0.1330 -0.2650  0.3061
16643TIP3    H271345   1.974   2.378   5.363  0.6148 -0.6892 -0.2672
16644TIP3   OH271346   1.124   6.105  13.822  0.2652 -0.1145  0.2388
16644TIP3    H171347   1.091   6.073  13.738 -0.3774  0.3615  0.2968
16644TIP3    H271348   1.216   6.126  13.806  0.0028  0.5143 -0.5076
16645TIP3   OH271349   1.420   3.903   4.413  0.0984  0.3805  0.2914
16645TIP3    H171350   1.336   3.947   4.398 -0.1033 -0.5467 -1.6063
16645TIP3    H271351   1.485   3.969   4.389 -0.1921  0.0233 -1.7046
16646TIP3   OH271352   1.785   5.225   1.486 -0.1420  0.1693 -0.1479
16646TIP3    H171353   1.865   5.173   1.474 -0.4475 -0.4446  0.4090
16646TIP3    H271354   1.794   5.296   1.423  0.5541 -0.2397 -0.5359
16647TIP3   OH271355   6.651   3.310  15.061  0.2361 -0.1874  0.2340
16647TIP3    H171356   6.558   3.292  15.051  0.1606  0.3846 -0.1280
16647TIP3    H271357   6.655   3.371  15.135  0.4958 -1.6871  1.5133
16648TIP3   OH271358   1.545   0.905  14.319 -0.0987  0.0202  0.1474
16648TIP3    H171359   1.633   0.914  14.282  0.1206  1.8914  1.0329
16648TIP3    H271360   1.528   0.811  14.317  1.9786 -0.3974  0.0893
16649TIP3   OH271361   1.452   1.597  15.342  0.2602  0.6693 -0.3084
16649TIP3    H171362   1.374   1.565  15.296 -0.6624  0.1333  1.5279
16649TIP3    H271363   1.481   1.521  15.393 -1.3730  2.2991  3.3823
16650TIP3   OH271364   2.557   0.627   0.698  0.1789  0.3076 -0.3484
16650TIP3    H171365   2.552   0.607   0.792  1.5980 -1.4165 -0.5761
16650TIP3    H271366   2.604   0.710   0.693  2.2694 -0.7464  0.4508
16651TIP3   OH271367   5.945   2.791  14.339  0.4592 -0.4190  0.2771
16651TIP3    H171368   5.946   2.767  14.247  1.0856 -0.0162  0.1753
16651TIP3    H271369   5.853   2.790  14.363  0.2293  0.1707 -0.5386
16652TIP3   OH271370   0.401   1.721   5.971 -0.0115 -0.2266 -0.2827
16652TIP3    H171371   0.421   1.747   5.881  0.6147  2.3009  0.5017
16652TIP3    H271372   0.406   1.802   6.021  0.5573 -1.6850  2.2078
16653TIP3   OH271373   1.026   0.882  11.076  0.2140 -0.4251 -0.7078
16653TIP3    H171374   1.002   0.909  11.165  3.3317 -0.0203  0.1116
16653TIP3    H271375   1.060   0.961  11.035  0.6805 -1.0427 -1.5509
16654TIP3   OH271376   3.880   4.681  14.764 -0.5857 -0.7613 -0.0996
16654TIP3    H171377   3.873   4.710  14.855  1.0711  1.6244 -0.6494
16654TIP3    H271378   3.790   4.683  14.732 -1.2295 -1.7959  1.4657
16655TIP3   OH271379   4.285   5.853  13.070  0.0439  0.1920 -0.3960
16655TIP3    H171380   4.336   5.838  12.990 -1.6278 -3.2393 -1.0336
16655TIP3    H271381   4.219   5.917  13.044  1.4008  1.5001 -0.7739
16656TIP3   OH271382   1.030   6.404  16.062  0.0140 -0.3605  0.3441
16656TIP3    H171383   1.073   6.478  16.105 -0.1217 -0.7625  1.1971
16656TIP3    H271384   1.036   6.424  15.968 -1.1898  1.3932  0.5735
16657TIP3   OH271385   5.578   4.250   1.083 -0.2154  0.4241 -0.2579
16657TIP3    H171386   5.672   4.229   1.078 -0.4863 -0.7982 -0.5019
16657TIP3    H271387   5.575   4.345   1.073  0.8821  0.3298 -2.1774
16658TIP3   OH271388   3.687   4.240  10.980 -0.1267 -0.2307  0.0465
16658TIP3    H171389   3.595   4.258  10.958  0.2377  0.9839 -0.5838
16658TIP3    H271390   3.721   4.196  10.903 -0.0679 -0.2769  0.0996
16659TIP3   OH271391   3.893   6.509  13.070  0.1618  0.1890  0.5998
16659TIP3    H171392   3.920   6.599  13.087  0.6234  0.1146  0.2673
16659TIP3    H271393   3.958   6.475  13.009 -0.5067 -0.0881  0.0223
16660TIP3   OH271394   1.631   1.289  11.474 -0.3209 -0.1536 -0.2587
16660TIP3    H171395   1.544   1.250  11.475 -0.3604 -0.3086 -2.5615
16660TIP3    H271396   1.691   1.215  11.463  0.0758 -0.0126  0.8928
16661TIP3   OH271397   4.945   1.461  15.071  0.7225  0.8833  0.1243
16661TIP3    H171398   4.871   1.522  15.067 -0.1226 -0.1603 -0.6560
16661TIP3    H271399   5.022   1.516  15.053  0.1807  2.0101  1.0908
16662TIP3   OH271400   0.906   1.058  16.392 -0.3871 -0.2050  0.2081
16662TIP3    H171401   0.827   1.013  16.363 -0.5036  0.0226  0.1791
16662TIP3    H271402   0.882   1.100  16.474 -0.3996  0.1627  0.0191
16663TIP3   OH271403   2.188   5.275  12.286  0.5319  0.3358  0.0441
16663TIP3    H171404   2.159   5.300  12.374  0.9559 -0.5262  0.4373
16663TIP3    H271405   2.241   5.350  12.257  0.4440  0.6015  0.5451
16664TIP3   OH271406   4.864   1.347  15.679 -0.1246 -0.4902 -0.0233
16664TIP3    H171407   4.831   1.300  15.755 -2.0857  2.2825  0.9828
16664TIP3    H271408   4.959   1.332  15.680 -0.4023 -2.5363  1.4369
16665TIP3   OH271409   3.756   4.345  14.008  0.1490  0.5321 -0.2864
16665TIP3    H171410   3.851   4.342  14.010  0.1328 -0.7669 -0.7886
16665TIP3    H271411   3.735   4.390  13.926  0.3226  0.6799 -0.2503
16666TIP3   OH271412   5.152   1.975  11.986 -0.1133 -0.2486 -0.2994
16666TIP3    H171413   5.234   1.938  12.019 -0.3026 -1.0893 -0.7342
16666TIP3    H271414   5.180   2.052  11.936  0.4010 -0.4183 -0.2858
16667TIP3   OH271415   1.898   4.108   3.742 -0.6153 -0.3214 -0.1850
16667TIP3    H171416   1.948   4.158   3.678  1.0733 -0.3761  1.0502
16667TIP3    H271417   1.885   4.167   3.816 -0.8237 -0.8870  0.2435
16668TIP3   OH271418   0.120   2.146   6.287 -0.1326  0.2656  0.3073
16668TIP3    H171419   0.201   2.196   6.303 -0.5864  0.7429  1.1847
16668TIP3    H271420   0.055   2.213   6.266  0.0786 -0.2258 -2.2708
16669TIP3   OH271421   2.793   1.403   4.568  0.5343 -0.0605 -0.2803
16669TIP3    H171422   2.744   1.324   4.543  0.4427  0.1966 -0.9081
16669TIP3    H271423   2.884   1.382   4.549  0.9462 -1.1419  2.3356
16670TIP3   OH271424   4.276   3.024  10.513  0.5459 -0.1598 -0.8264
16670TIP3    H171425   4.259   3.070  10.595  1.1904  0.5179 -1.0580
16670TIP3    H271426   4.258   2.932  10.532 -1.1936  0.2146 -0.4568
16671TIP3   OH271427   2.308   3.424  15.479  0.3539 -0.4826 -0.8788
16671TIP3    H171428   2.245   3.381  15.537  0.3875  0.4149 -0.1599
16671TIP3    H271429   2.292   3.384  15.393 -1.7448  0.2515 -0.9008
16672TIP3   OH271430   1.017   1.505   3.789 -0.0622  0.3034 -0.6127
16672TIP3    H171431   1.062   1.437   3.739 -1.1169 -0.2652 -0.8332
16672TIP3    H271432   1.085   1.569   3.811  0.9533 -0.8456 -0.3591
16673TIP3   OH271433   1.171   4.988  13.095 -0.0788  0.3095  0.0452
16673TIP3    H171434   1.222   4.990  13.014  0.7174  1.0132  0.5453
16673TIP3    H271435   1.164   5.080  13.121 -0.1617  0.0754  0.8758
16674TIP3   OH271436   4.026   3.669   0.935 -0.1263 -0.1159 -0.0143
16674TIP3    H171437   3.967   3.726   0.886 -1.2539 -2.3791 -1.4592
16674TIP3    H271438   4.089   3.638   0.870 -1.0876 -2.4504  0.0798
16675TIP3   OH271439   6.612   6.733  13.662 -0.1943  0.2267  0.7311
16675TIP3    H171440   6.572   6.808  13.619  2.0021  0.3489 -1.3121
16675TIP3    H271441   6.706   6.749  13.656  0.3254 -2.3599  0.8080
16676TIP3   OH271442   4.024   5.586  13.250 -0.0229  0.2920  0.1541
16676TIP3    H171443   3.986   5.669  13.221 -1.2809 -0.1309  0.5254
16676TIP3    H271444   4.093   5.567  13.186  1.4459  2.4321  0.9823
16677TIP3   OH271445   3.772   1.845  16.323 -0.8334 -0.0271 -0.3046
16677TIP3    H171446   3.820   1.765  16.302  0.4455  1.1156 -2.0229
16677TIP3    H271447   3.839   1.903  16.359 -1.7630  0.2662  1.0270
16678TIP3   OH271448   1.635   0.950  15.979 -0.3175  0.7213  0.0482
16678TIP3    H171449   1.669   0.949  15.889  2.0594 -2.1346  0.7721
16678TIP3    H271450   1.557   0.895  15.976 -0.3678  0.8137 -0.3366
16679TIP3   OH271451   2.560   6.335  13.812  0.3632 -0.4694  0.2272
16679TIP3    H171452   2.589   6.413  13.764 -1.4496 -1.1901 -2.2017
16679TIP3    H271453   2.641   6.291  13.836  1.3838  0.5186 -1.2239
16680TIP3   OH271454   2.908   3.774   3.644 -0.5029  0.0008  0.3785
16680TIP3    H171455   2.871   3.778   3.555  0.5758 -0.9201 -0.1412
16680TIP3    H271456   2.926   3.865   3.667  0.6417  0.1606 -0.9878
16681TIP3   OH271457   5.446   1.688  15.198 -0.9157  0.5806  0.1445
16681TIP3    H171458   5.512   1.627  15.165 -0.9055  0.7836 -0.2150
16681TIP3    H271459   5.366   1.636  15.204 -0.7071  0.3134  0.6525
16682TIP3   OH271460   5.538   3.933  12.856 -0.0918 -0.0397 -0.0987
16682TIP3    H171461   5.571   3.868  12.794  3.0572  0.6556  0.6817
16682TIP3    H271462   5.482   3.883  12.915  1.1430 -1.7999 -0.3306
16683TIP3   OH271463   5.608   3.079   1.055  0.8708  0.5625  0.7107
16683TIP3    H171464   5.571   3.000   1.095 -0.5358 -0.1646 -1.8288
16683TIP3    H271465   5.532   3.135   1.039  1.7613  2.1431  1.7196
16684TIP3   OH271466   5.243   0.464   3.191 -0.3809  0.2129 -0.1515
16684TIP3    H171467   5.166   0.440   3.243  1.5643 -2.1533  1.8777
16684TIP3    H271468   5.299   0.513   3.251  0.7263 -0.1509 -0.8587
16685TIP3   OH271469   5.605   6.697   2.870  0.5422  0.0582 -0.1794
16685TIP3    H171470   5.570   6.620   2.914  3.2121 -0.2703  1.6145
16685TIP3    H271471   5.571   6.771   2.921 -0.8656  0.0478 -1.0439
16686TIP3   OH271472   2.096   1.109  14.945 -0.2219 -0.2163 -0.5218
16686TIP3    H171473   2.091   1.182  14.884 -0.9015 -0.3222 -0.5937
16686TIP3    H271474   2.179   1.065  14.923 -0.4092 -0.1935 -1.2975
16687TIP3   OH271475   6.404   4.086   1.628  0.1101 -0.1889  0.0722
16687TIP3    H171476   6.338   4.123   1.570  0.0200  3.1908  2.0648
16687TIP3    H271477   6.357   4.019   1.678 -0.4718 -1.2447 -1.7973
16688TIP3   OH271478   6.450   2.999   3.327 -0.3398  0.5376 -0.1766
16688TIP3    H171479   6.445   3.080   3.377 -0.5252  1.5168 -1.7022
16688TIP3    H271480   6.543   2.990   3.305 -0.3726  0.5358 -0.3176
16689TIP3   OH271481   2.083   1.444   3.305 -0.5449 -0.4593  0.0787
16689TIP3    H171482   2.005   1.473   3.352 -0.2431  0.3614  0.0770
16689TIP3    H271483   2.054   1.438   3.213 -0.8599 -1.0968  0.2105
16690TIP3   OH271484   5.495   5.141   4.431 -0.3138  0.7477  0.2312
16690TIP3    H171485   5.428   5.093   4.478  0.7740  1.9466  3.2267
16690TIP3    H271486   5.563   5.076   4.413  0.7386  0.8100  3.4313
16691TIP3   OH271487   4.258   2.740   1.938 -0.3527  0.1911  0.4046
16691TIP3    H171488   4.263   2.647   1.914 -1.0572  0.3836 -0.5248
16691TIP3    H271489   4.165   2.757   1.949 -0.3115  1.0143 -0.4001
16692TIP3   OH271490   4.276   2.283   2.946 -0.1230  0.0501 -0.8827
16692TIP3    H171491   4.252   2.374   2.926  0.9080  0.2694 -1.1822
16692TIP3    H271492   4.222   2.260   3.021 -3.0978 -0.3100 -2.9391
16693TIP3   OH271493   3.027   4.539  16.151  0.2454 -0.0658  0.2228
16693TIP3    H171494   2.957   4.491  16.106  0.8926  0.0651 -0.9789
16693TIP3    H271495   3.025   4.506  16.241 -0.5073 -1.0164 -0.1212
16694TIP3   OH271496   3.161   2.204  15.551 -0.3945  0.0066  0.2326
16694TIP3    H171497   3.167   2.189  15.456  0.8846 -1.2173  0.4844
16694TIP3    H271498   3.205   2.288  15.565  0.6869 -0.4835 -0.1121
16695TIP3   OH271499   2.149   0.337  10.981  0.2571  0.0856 -0.0593
16695TIP3    H171500   2.173   0.404  10.918  1.4944  0.0343  0.3206
16695TIP3    H271501   2.177   0.372  11.066 -2.0169  0.4665  0.6053
16696TIP3   OH271502   4.184   2.677  14.731  0.3417 -0.4789 -0.4612
16696TIP3    H171503   4.213   2.640  14.648  1.3407 -1.1165  0.1528
16696TIP3    H271504   4.152   2.765  14.709  1.2553 -0.3674 -1.4110
16697TIP3   OH271505   4.669   5.907  12.602  0.3383  0.3386 -1.3738
16697TIP3    H171506   4.702   5.825  12.638 -1.3951  0.3219  0.3725
16697TIP3    H271507   4.616   5.881  12.527 -1.4081 -0.3628  0.0310
16698TIP3   OH271508   1.956   0.612   3.059  0.7270 -0.0861  0.3517
16698TIP3    H171509   2.017   0.660   3.004  1.4022 -0.7939  0.4683
16698TIP3    H271510   2.001   0.602   3.143 -0.1944  0.7764  0.9737
16699TIP3   OH271511   6.591   1.303   2.802  0.2524 -0.4673 -0.1840
16699TIP3    H171512   6.669   1.337   2.757  0.5106 -0.2971  0.3818
16699TIP3    H271513   6.627   1.258   2.879 -0.3267  1.6279  1.3902
16700TIP3   OH271514   2.862   5.343  14.094 -0.1614 -0.2098  0.5005
16700TIP3    H171515   2.859   5.247  14.100  1.1533 -0.5482 -2.6178
16700TIP3    H271516   2.942   5.362  14.046 -0.8988  2.4124  0.1489
16701TIP3   OH271517   1.061   5.643  11.013  0.0638 -0.4451 -0.6756
16701TIP3    H171518   1.010   5.716  10.979  0.7479  1.4484  2.0945
16701TIP3    H271519   1.108   5.609  10.936  0.5104  2.6866 -1.9230
16702TIP3   OH271520   2.396   0.990  15.140 -0.0482 -0.0918 -0.7831
16702TIP3    H171521   2.336   0.923  15.106 -0.7142  0.2268 -0.2603
16702TIP3    H271522   2.482   0.948  15.136 -0.5234 -1.2203  0.0917
16703TIP3   OH271523   1.934   0.052   1.289  0.7278 -0.5658  0.1743
16703TIP3    H171524   2.001   0.111   1.254 -0.1479 -0.1007 -0.7664
16703TIP3    H271525   1.920  -0.011   1.219  1.9145 -2.1750  1.2997
16704TIP3   OH271526   2.138   5.083   1.631 -0.1915  0.5713 -0.1793
16704TIP3    H171527   2.211   5.022   1.634  0.1078  0.9542  0.4088
16704TIP3    H271528   2.087   5.055   1.554 -0.6921 -1.1323  0.7260
16705TIP3   OH271529   4.337   6.265   5.909  0.5748 -0.7166 -0.5865
16705TIP3    H171530   4.347   6.360   5.906  2.8715 -0.7822  1.7218
16705TIP3    H271531   4.285   6.249   5.988  0.3969 -1.4096 -0.8370
16706TIP3   OH271532   2.215   3.232   0.504 -0.0612  0.2354 -0.2821
16706TIP3    H171533   2.237   3.140   0.489 -0.0482  0.4198 -1.4826
16706TIP3    H271534   2.145   3.230   0.569 -0.1002 -0.6223 -0.3413
16707TIP3   OH271535   5.054   5.320  11.303  0.4921  0.6175  0.5441
16707TIP3    H171536   5.007   5.379  11.362 -1.7166 -0.1095 -0.3870
16707TIP3    H271537   5.079   5.376  11.229 -1.8363  0.4593 -0.4638
16708TIP3   OH271538   5.721   5.867  15.139 -0.3945 -0.2351  0.0457
16708TIP3    H171539   5.741   5.782  15.098 -1.3814 -1.3006  1.6275
16708TIP3    H271540   5.634   5.854  15.178 -1.2061  1.9956 -0.8747
16709TIP3   OH271541   1.006   5.124  15.746 -0.4274  0.0193 -0.3433
16709TIP3    H171542   1.059   5.165  15.814 -0.9251 -0.8091  0.5576
16709TIP3    H271543   1.015   5.030  15.762 -1.8807 -0.1403 -0.3921
16710TIP3   OH271544   5.883   4.554   2.391 -0.0092 -0.0079 -0.3646
16710TIP3    H171545   5.804   4.528   2.439  1.0147  0.2143  1.5245
16710TIP3    H271546   5.897   4.482   2.329 -0.4712 -1.1478  0.7911
16711TIP3   OH271547   3.917   0.213  15.569 -0.0394 -0.5260  0.1457
16711TIP3    H171548   4.010   0.195  15.551 -0.4656 -1.5651 -1.1817
16711TIP3    H271549   3.913   0.308  15.578  0.8604 -0.2338 -1.8412
16712TIP3   OH271550   1.588   5.836  11.201 -0.2668 -0.1348  0.3927
16712TIP3    H171551   1.609   5.764  11.142 -1.3969  0.4254 -0.7584
16712TIP3    H271552   1.669   5.885  11.210  0.3300 -1.1462  0.6225
16713TIP3   OH271553   5.950   0.936   3.335  0.1719 -0.3421  0.3145
16713TIP3    H171554   5.921   1.022   3.366 -1.0846 -0.6461  0.0562
16713TIP3    H271555   6.043   0.947   3.317  0.2065  0.7380  1.0566
16714TIP3   OH271556   6.113   5.476   3.344  0.3387 -0.3148  0.5572
16714TIP3    H171557   6.117   5.417   3.419  0.3342  0.0359  0.8321
16714TIP3    H271558   6.117   5.418   3.268  0.8853 -0.6360  0.8273
16715TIP3   OH271559   5.175   3.070   1.206 -0.0807  0.2654 -0.2040
16715TIP3    H171560   5.152   3.003   1.270  2.0106 -0.1510  0.2009
16715TIP3    H271561   5.100   3.130   1.206 -0.7912 -0.5446  1.5184
16716TIP3   OH271562   2.778   5.675  15.219  0.9363 -0.1554  0.4739
16716TIP3    H171563   2.734   5.621  15.154 -2.5695  3.6860 -0.7687
16716TIP3    H271564   2.744   5.645  15.304 -2.3338  1.0003 -0.2963
16717TIP3   OH271565   3.763   0.755   1.319  0.0468  0.2146 -0.6482
16717TIP3    H171566   3.808   0.830   1.358 -0.6397  0.2577  0.0787
16717TIP3    H271567   3.685   0.792   1.278 -0.0198 -0.0343 -0.7481
16718TIP3   OH271568   6.466   5.583  11.401 -0.2913 -0.2112  0.2692
16718TIP3    H171569   6.380   5.577  11.361 -0.7451 -1.5388  1.3415
16718TIP3    H271570   6.482   5.677  11.411 -1.4819  0.0563 -0.2036
16719TIP3   OH271571   2.369   3.333   0.856  0.3249  0.4099  0.3571
16719TIP3    H171572   2.295   3.274   0.868 -0.1772  1.1964  1.3113
16719TIP3    H271573   2.417   3.298   0.781  0.6465 -1.8092  1.5198
16720TIP3   OH271574   5.764   3.021  14.707 -0.0984 -0.5522  0.1423
16720TIP3    H171575   5.712   3.098  14.729  0.1051 -0.2123 -0.5334
16720TIP3    H271576   5.720   2.983  14.630  0.0170 -0.8926  0.2424
16721TIP3   OH271577   1.779   2.425  14.014  0.5098  0.1742  0.0015
16721TIP3    H171578   1.782   2.499  13.953 -0.6513  0.6871  0.5328
16721TIP3    H271579   1.751   2.463  14.097 -0.4424 -0.9005  0.2044
16722TIP3   OH271580   5.001   5.092   0.983 -0.1912 -0.2766  0.2283
16722TIP3    H171581   4.992   5.045   1.065 -1.0061 -0.3155  0.1179
16722TIP3    H271582   4.976   5.029   0.916 -0.5595  0.0789  0.0258
16723TIP3   OH271583   6.315   3.057  13.966  0.1825  0.7041 -0.2783
16723TIP3    H171584   6.410   3.062  13.976  0.1735  0.7325 -0.2059
16723TIP3    H271585   6.302   3.012  13.882  0.2576 -0.6972  0.4332
16724TIP3   OH271586   1.761   3.091  10.901 -0.4269  0.2148 -0.5815
16724TIP3    H171587   1.818   3.116  10.829  1.3713 -0.3036  0.6012
16724TIP3    H271588   1.729   3.004  10.877  0.8805 -0.3430 -0.3739
16725TIP3   OH271589   0.174   1.159   4.223 -0.0219  1.0824 -0.6251
16725TIP3    H171590   0.257   1.136   4.181  1.7563  2.1366  2.0277
16725TIP3    H271591   0.137   1.227   4.167  1.4096  1.3165 -1.3342
16726TIP3   OH271592   1.917   6.401  12.881  0.3913 -0.6355  0.5262
16726TIP3    H171593   1.967   6.478  12.855  1.1191 -1.2268  0.1007
16726TIP3    H271594   1.949   6.381  12.969 -0.8767  0.4000  1.2520
16727TIP3   OH271595   5.063   1.841  14.342 -0.1148 -0.2323 -0.0363
16727TIP3    H171596   5.150   1.841  14.303 -0.2816  1.0656 -0.4670
16727TIP3    H271597   5.004   1.817  14.271 -0.2661  0.6148 -0.2099
16728TIP3   OH271598   5.866   5.127   3.053  0.5441  0.2724 -0.1409
16728TIP3    H171599   5.906   5.072   3.120  0.8249 -0.0252 -0.5483
16728TIP3    H271600   5.791   5.167   3.097 -0.0574 -0.9433 -0.0274
16729TIP3   OH271601   1.124   1.038   1.509 -0.0992  0.1197 -0.3223
16729TIP3    H171602   1.055   0.972   1.502  0.0352  0.0451 -1.1083
16729TIP3    H271603   1.082   1.119   1.481 -0.0820  0.2310 -0.0230
16730TIP3   OH271604   0.901   5.305  16.344 -0.3639 -0.1886  0.0002
16730TIP3    H171605   0.867   5.241  16.406 -1.3394 -0.1641 -0.4895
16730TIP3    H271606   0.947   5.369  16.399  0.3328 -1.1156  0.5174
16731TIP3   OH271607   3.597   2.889   3.163  0.0795 -0.5970  0.4830
16731TIP3    H171608   3.648   2.813   3.134  2.2110  0.4799  1.2151
16731TIP3    H271609   3.652   2.964   3.144 -1.1655  0.6364  1.5297
16732TIP3   OH271610   2.319   1.862  15.684 -0.0852  0.4443  0.2934
16732TIP3    H171611   2.409   1.830  15.682 -0.4861 -0.7010 -0.2141
16732TIP3    H271612   2.327   1.954  15.710  1.4096  1.0164 -1.8606
16733TIP3   OH271613   0.746   6.014   4.199  0.1860 -0.3507 -0.4572
16733TIP3    H171614   0.817   5.950   4.198  0.0370 -0.5158 -0.3793
16733TIP3    H271615   0.671   5.968   4.163  0.4011  0.1509 -1.5848
16734TIP3   OH271616   4.359   6.500  17.273  0.2907  0.0901 -0.0448
16734TIP3    H171617   4.353   6.465  17.184 -1.4081  3.3516 -1.3806
16734TIP3    H271618   4.269   6.522  17.297  0.9820  1.4429  1.5134
16735TIP3   OH271619   5.078   4.742  17.271 -0.9485 -0.0198  0.6360
16735TIP3    H171620   5.131   4.730  17.350 -1.9206 -0.7111  1.2076
16735TIP3    H271621   5.002   4.791  17.301  0.0389  2.3516 -0.4726
16736TIP3   OH271622   5.609   5.060  13.138 -0.6870 -1.0255 -0.4898
16736TIP3    H171623   5.640   5.147  13.164 -1.0630 -0.8472 -0.6274
16736TIP3    H271624   5.549   5.033  13.208  0.1561 -1.5863  0.0262
16737TIP3   OH271625   1.472   0.234  15.903 -0.1037  0.7235 -0.2135
16737TIP3    H171626   1.527   0.297  15.948  1.9695  0.9645 -2.8274
16737TIP3    H271627   1.413   0.287  15.849 -0.6758  0.4322  0.1132
16738TIP3   OH271628   0.900   3.914   2.573  0.5461 -0.0967  0.2864
16738TIP3    H171629   0.992   3.932   2.592  0.8312 -1.6296  0.4220
16738TIP3    H271630   0.901   3.843   2.509 -0.5320 -2.1532  2.4233
16739TIP3   OH271631   2.122   2.196  14.937 -0.6832  0.1000  0.4138
16739TIP3    H171632   2.060   2.125  14.919 -1.4181  0.9316 -0.4459
16739TIP3    H271633   2.192   2.183  14.872 -0.4260 -0.2685  0.7551
16740TIP3   OH271634   4.137   1.751   0.097  0.0360 -0.6167  0.4405
16740TIP3    H171635   4.196   1.763   0.172  2.9758 -1.8723 -1.4704
16740TIP3    H271636   4.088   1.672   0.118  2.4085 -2.2458  0.2260
16741TIP3   OH271637   4.364   2.246  10.225  0.1300  0.0747 -0.1529
16741TIP3    H171638   4.406   2.160  10.231  0.8863  0.4251 -0.1829
16741TIP3    H271639   4.437   2.308  10.235 -0.4864  0.7131  0.4272
16742TIP3   OH271640   1.177   1.159   2.956 -0.1017  0.2031  0.2356
16742TIP3    H171641   1.148   1.233   3.008  0.7437  1.4169 -0.9355
16742TIP3    H271642   1.271   1.175   2.942 -0.1418 -0.4931 -0.9791
16743TIP3   OH271643   1.393   1.542  10.986  0.2382 -0.3824  0.7636
16743TIP3    H171644   1.474   1.498  11.013  0.2320 -1.1043 -0.3451
16743TIP3    H271645   1.394   1.538  10.891 -0.7181  0.3235  0.7125
16744TIP3   OH271646   5.979   2.340   0.339  0.3923 -0.0280 -0.2784
16744TIP3    H171647   6.027   2.276   0.392  0.6627 -0.8538 -1.4702
16744TIP3    H271648   6.015   2.425   0.364  0.1407 -0.3330  1.2190
16745TIP3   OH271649   4.683   3.502  10.294 -0.0919 -0.4128  0.2753
16745TIP3    H171650   4.721   3.415  10.291  0.8586 -0.0556  1.1856
16745TIP3    H271651   4.597   3.489  10.333  0.2021 -0.9017  0.7708
16746TIP3   OH271652   5.075   1.371  12.801  0.1037  1.0100 -0.1071
16746TIP3    H171653   5.019   1.343  12.873  0.6484  0.0971 -0.0248
16746TIP3    H271654   5.092   1.464  12.819  0.5602  0.7003  1.1621
16747TIP3   OH271655   5.770   3.940  16.614 -0.3163  0.2097  0.3071
16747TIP3    H171656   5.842   4.000  16.595  0.7145 -0.7163  1.1348
16747TIP3    H271657   5.717   3.985  16.680 -1.8219  1.8426 -1.8474
16748TIP3   OH271658   0.942   3.039  17.099 -0.1034  0.1303 -0.4608
16748TIP3    H171659   0.892   3.021  17.178  0.0552 -0.6957 -0.5405
16748TIP3    H271660   0.896   2.990  17.030  0.2959  0.0860 -0.7000
16749TIP3   OH271661   5.496   4.170  14.021 -0.0633  0.1828  0.4332
16749TIP3    H171662   5.438   4.228  14.069 -0.6336 -0.7008  0.8416
16749TIP3    H271663   5.440   4.097  13.993  0.3409  0.4592 -1.2099
16750TIP3   OH271664   2.302   5.861  13.915  0.7195  0.4281  0.4445
16750TIP3    H171665   2.342   5.856  13.829  0.3844 -1.9698  0.3750
16750TIP3    H271666   2.362   5.813  13.972 -1.3905 -2.2964  0.5438
16751TIP3   OH271667   3.843   2.689  11.242 -0.5178  0.5371 -0.3957
16751TIP3    H171668   3.869   2.772  11.203 -0.2426 -0.1968 -1.8307
16751TIP3    H271669   3.868   2.623  11.178 -0.5258 -0.6877  0.8067
16752TIP3   OH271670   2.086   6.039  15.615 -0.5118  0.6040  0.1968
16752TIP3    H171671   2.019   6.013  15.679  0.9173 -0.9589  1.1379
16752TIP3    H271672   2.084   5.970  15.549  0.6043  0.1671  0.5961
16753TIP3   OH271673   1.928   3.926  16.863  0.3275  0.5290  0.1432
16753TIP3    H171674   1.981   3.933  16.942  0.2851 -1.0391  0.3541
16753TIP3    H271675   1.988   3.891  16.797 -0.0239  0.3269 -0.0734
16754TIP3   OH271676   5.189   2.415   1.871  0.0092  0.1059 -0.0260
16754TIP3    H171677   5.143   2.480   1.818 -1.0361  0.5250  1.3383
16754TIP3    H271678   5.268   2.460   1.900  0.8425 -0.2852 -1.5685
16755TIP3   OH271679   2.978   1.639  10.440 -0.4128  0.2532 -0.0262
16755TIP3    H171680   3.012   1.720  10.477  0.1141  0.1641 -0.3030
16755TIP3    H271681   2.997   1.572  10.505 -0.1018  0.2133 -0.1563
16756TIP3   OH271682   0.614   4.849   5.148 -0.6731  0.4021 -0.2433
16756TIP3    H171683   0.535   4.875   5.099 -2.1367 -0.0048  1.7738
16756TIP3    H271684   0.656   4.932   5.170 -0.1383  0.6077 -1.8493
16757TIP3   OH271685   3.470   1.153   5.207  0.2100  0.1023  0.0070
16757TIP3    H171686   3.505   1.146   5.119 -0.9055  1.1273 -0.5576
16757TIP3    H271687   3.415   1.232   5.205 -0.2793 -0.1611  1.4558
16758TIP3   OH271688   2.905   1.665   4.892 -0.0109 -0.2076 -0.0767
16758TIP3    H171689   2.949   1.734   4.942  0.0055 -0.3391  0.0941
16758TIP3    H271690   2.939   1.583   4.929 -0.8498 -0.3157  0.4827
16759TIP3   OH271691   4.621   3.615  13.660  0.0296 -0.6638 -0.3493
16759TIP3    H171692   4.607   3.709  13.665  0.7577 -0.5560 -0.1741
16759TIP3    H271693   4.605   3.584  13.749 -0.0207 -0.6773 -0.3628
16760TIP3   OH271694   4.542   2.141  17.238  0.4888  0.6150 -0.3011
16760TIP3    H171695   4.454   2.134  17.201  1.0865 -0.0815 -1.6348
16760TIP3    H271696   4.541   2.224  17.285 -1.0723  0.3271  0.2580
16761TIP3   OH271697   6.685   4.002   6.105  0.1224 -0.0601 -0.1693
16761TIP3    H171698   6.698   3.908   6.120  0.9438 -0.0569 -0.7706
16761TIP3    H271699   6.658   4.008   6.013  1.0042  0.3472 -0.4171
16762TIP3   OH271700   5.558   0.377  12.778  0.1858  0.2576  0.4984
16762TIP3    H171701   5.567   0.471  12.763  1.5157  0.1144  0.3540
16762TIP3    H271702   5.642   0.340  12.754 -1.2740 -1.4129 -2.7584
16763TIP3   OH271703   2.830   0.083  12.244 -0.1117  0.3996  0.1835
16763TIP3    H171704   2.735   0.082  12.259  0.0977  0.6976  1.6525
16763TIP3    H271705   2.856   0.172  12.264  0.3168  0.6715 -1.4683
16764TIP3   OH271706   0.394   4.723  14.267  0.1146 -0.1272 -0.0995
16764TIP3    H171707   0.317   4.676  14.301  1.3994 -1.8082  0.6715
16764TIP3    H271708   0.418   4.784  14.337 -0.9623  1.0122 -0.6832
16765TIP3   OH271709   0.053   0.912  11.755  0.5981  0.0830 -0.5861
16765TIP3    H171710  -0.010   0.979  11.781  1.5196  1.1306 -0.9749
16765TIP3    H271711   0.130   0.929  11.808  1.2760  0.0931 -1.5552
16766TIP3   OH271712   0.599   5.157  12.990 -0.1355 -0.5667 -0.2182
16766TIP3    H171713   0.686   5.118  12.999  0.5486  1.0644  0.6380
16766TIP3    H271714   0.588   5.171  12.896  1.1759  0.5636 -0.2282
16767TIP3   OH271715   4.125   2.314   3.238 -0.2842 -0.3109 -0.5569
16767TIP3    H171716   4.067   2.238   3.242 -2.2332  1.1281  2.7812
16767TIP3    H271717   4.068   2.386   3.209  0.0803  0.8479  1.4060
16768TIP3   OH271718   1.987   3.661   4.978 -0.1858  0.0632 -0.5201
16768TIP3    H171719   2.031   3.668   4.894  0.8223 -1.4167 -0.1416
16768TIP3    H271720   2.052   3.692   5.042 -0.1067 -1.0053 -0.0716
16769TIP3   OH271721   6.681   3.549   0.002  0.1984 -0.4269  0.1652
16769TIP3    H171722   6.604   3.494  -0.010 -0.6021  0.5030  0.8325
16769TIP3    H271723   6.726   3.512   0.077  1.6309 -2.2817 -1.5100
16770TIP3   OH271724   1.793   4.906   0.645 -0.5769  0.1729 -0.9193
16770TIP3    H171725   1.883   4.926   0.670 -1.3202  2.8992 -0.0974
16770TIP3    H271726   1.792   4.914   0.550 -0.1905  1.3479 -0.8382
16771TIP3   OH271727   6.229   5.484  11.869 -0.3869 -0.4756  0.3279
16771TIP3    H171728   6.183   5.445  11.795  1.5229 -1.4489 -0.4144
16771TIP3    H271729   6.292   5.417  11.897  1.7168  1.3381  0.2342
16772TIP3   OH271730   5.451   5.389   2.864 -0.1951 -0.1998  0.4892
16772TIP3    H171731   5.407   5.459   2.913 -2.2848 -1.5269  0.6201
16772TIP3    H271732   5.396   5.375   2.787  0.3149 -1.5163  0.3310
16773TIP3   OH271733   1.747   4.009  15.090  0.2440 -0.7331  0.2481
16773TIP3    H171734   1.716   3.919  15.081 -0.5977 -0.4634  0.2984
16773TIP3    H271735   1.840   4.001  15.110 -0.0072 -1.6142  1.1404
16774TIP3   OH271736   4.226   2.277  16.343  0.1878  0.6886 -0.1126
16774TIP3    H171737   4.199   2.286  16.434  0.0237  4.1777 -0.3724
16774TIP3    H271738   4.144   2.279  16.293  0.2990 -0.8128 -0.3904
16775TIP3   OH271739   0.804   5.454   1.853  0.4730  0.0487  0.7304
16775TIP3    H171740   0.844   5.374   1.817  0.1667 -0.0999  0.7203
16775TIP3    H271741   0.711   5.434   1.858  0.4822  0.1475  1.4045
16776TIP3   OH271742   0.006   3.647  16.412  0.5728  0.1332 -0.3293
16776TIP3    H171743  -0.054   3.721  16.403  2.1324  1.2966 -2.1218
16776TIP3    H271744   0.032   3.648  16.504 -1.0341  0.4678  0.1523
16777TIP3   OH271745   1.558   3.822   2.843 -0.5498  0.4458 -0.6809
16777TIP3    H171746   1.474   3.798   2.883 -0.5853 -1.5502 -1.8137
16777TIP3    H271747   1.535   3.852   2.755 -0.0027 -1.8043 -1.6478
16778TIP3   OH271748   1.382   1.609   1.131  0.3572 -0.0074  0.5999
16778TIP3    H171749   1.470   1.643   1.118  0.4198 -0.0277  0.9519
16778TIP3    H271750   1.330   1.684   1.159 -0.1400  0.3675 -1.2513
16779TIP3   OH271751   3.436   3.676  14.296 -0.7097  0.1763 -0.0524
16779TIP3    H171752   3.383   3.673  14.376 -2.9119 -0.2304 -1.4388
16779TIP3    H271753   3.480   3.592  14.293  0.3300  0.6229  1.2668
16780TIP3   OH271754   0.835   3.020   5.156 -0.0982  0.8075 -0.3008
16780TIP3    H171755   0.818   3.055   5.243 -0.8567 -0.5768  0.1532
16780TIP3    H271756   0.856   3.096   5.102  0.6674  1.6552  1.1430
16781TIP3   OH271757   5.988   4.764   1.421 -0.3108 -0.4653 -0.1614
16781TIP3    H171758   5.965   4.852   1.448  2.9420 -0.0125  1.7273
16781TIP3    H271759   5.935   4.707   1.476  0.2992  0.4197  1.4134
16782TIP3   OH271760   2.824   3.650  12.250 -0.5388 -0.0022  0.2447
16782TIP3    H171761   2.911   3.689  12.239 -1.8451  2.7547 -1.2767
16782TIP3    H271762   2.835   3.559  12.222  1.6666  0.4905 -0.7187
16783TIP3   OH271763   0.580   6.445   5.845  0.0315  0.0378  0.2870
16783TIP3    H171764   0.537   6.412   5.767  0.3598  2.5226 -1.0418
16783TIP3    H271765   0.513   6.438   5.914 -0.7813 -0.7566 -0.5578
16784TIP3   OH271766   5.614   5.401  11.665 -0.6032 -0.2362  0.0751
16784TIP3    H171767   5.557   5.344  11.717  0.1913  1.2396  2.7667
16784TIP3    H271768   5.700   5.394  11.707 -0.2582  2.1646 -0.0736
16785TIP3   OH271769   6.737   3.912   4.955 -0.5043  0.0931  0.0008
16785TIP3    H171770   6.757   3.819   4.962  1.1899  0.4427  0.2610
16785TIP3    H271771   6.803   3.946   4.895 -0.0469  1.4194  1.2040
16786TIP3   OH271772   4.843   5.604  12.534 -0.2616 -0.5892 -0.0034
16786TIP3    H171773   4.930   5.636  12.508 -0.6828  1.2771  0.7206
16786TIP3    H271774   4.795   5.593  12.452  0.5493 -1.3628 -0.3919
16787TIP3   OH271775   1.906   2.136   3.222  0.6179  0.5947  0.1348
16787TIP3    H171776   1.894   2.067   3.286  2.3042 -1.9098 -2.0333
16787TIP3    H271777   1.817   2.167   3.202 -0.1944 -1.0275  1.0902
16788TIP3   OH271778   2.885   5.387  13.277 -0.2347 -0.0253  0.1474
16788TIP3    H171779   2.963   5.423  13.233 -0.6073  1.6143  0.7522
16788TIP3    H271780   2.830   5.463  13.294 -2.0437 -1.1699 -0.3554
16789TIP3   OH271781   4.327   2.267   5.608 -0.5190  0.7575 -0.2216
16789TIP3    H171782   4.416   2.297   5.594 -0.9745  2.0173 -0.5511
16789TIP3    H271783   4.318   2.258   5.703  0.3461 -0.7070 -0.2387
16790TIP3   OH271784   4.439   3.804  15.842  0.8995  0.2690 -0.7881
16790TIP3    H171785   4.516   3.824  15.788  1.5455 -0.4923 -0.1700
16790TIP3    H271786   4.455   3.848  15.925  1.9664 -1.9709  0.3030
16791TIP3   OH271787   4.317   5.565   1.600  0.0373 -0.2524 -0.0314
16791TIP3    H171788   4.271   5.622   1.661 -0.0206 -0.2749 -0.0531
16791TIP3    H271789   4.306   5.608   1.515 -1.1035 -0.9327 -0.2592
16792TIP3   OH271790   6.248   1.410   3.140 -0.2533  0.4480  0.3108
16792TIP3    H171791   6.300   1.474   3.189  1.2567 -0.3450 -0.2140
16792TIP3    H271792   6.220   1.346   3.205 -1.0125  1.1322  0.6781
16793TIP3   OH271793   4.057   4.899   0.462 -0.1417 -0.0329 -0.0017
16793TIP3    H171794   4.084   4.819   0.507  0.3114 -0.6893 -1.3653
16793TIP3    H271795   4.139   4.941   0.436 -0.3821  0.8103  0.5701
16794TIP3   OH271796   2.072   1.789  15.597  0.1414 -0.0848 -0.3636
16794TIP3    H171797   2.016   1.851  15.644  0.5460  1.3347 -1.6439
16794TIP3    H271798   2.158   1.798  15.639 -0.0456 -0.5875  0.1384
16795TIP3   OH271799   0.478   0.701  15.936  0.2504  0.1334  0.4479
16795TIP3    H171800   0.444   0.627  15.987  0.6977 -1.2459 -1.1706
16795TIP3    H271801   0.437   0.692  15.851  0.6893  1.5045  0.0683
16796TIP3   OH271802   5.148   4.464   5.533 -0.3340  0.3985  0.5237
16796TIP3    H171803   5.088   4.469   5.607 -1.1767 -0.6147 -0.0604
16796TIP3    H271804   5.190   4.379   5.541  0.3286  0.7102  0.4062
16797TIP3   OH271805   0.427   2.152  13.691 -0.5186  0.8915  0.5908
16797TIP3    H171806   0.445   2.093  13.618  0.3624  1.4587  0.3283
16797TIP3    H271807   0.378   2.099  13.754 -0.8204  0.2427 -0.1697
16798TIP3   OH271808   4.770   2.094  10.544 -0.9438  0.1718 -0.0423
16798TIP3    H171809   4.721   2.064  10.467  0.3391  0.8283 -1.1536
16798TIP3    H271810   4.742   2.185  10.556 -0.2514  0.4508 -0.4904
16799TIP3   OH271811   2.769   0.038   4.405 -0.6557 -0.2019 -0.4982
16799TIP3    H171812   2.791   0.062   4.495 -1.2309  0.2963 -0.4834
16799TIP3    H271813   2.851   0.004   4.369 -0.1863  0.4434 -0.0694
16800TIP3   OH271814   2.421   2.184   0.663 -0.4554  0.4598 -0.2668
16800TIP3    H171815   2.330   2.214   0.660 -0.4667  0.3557 -1.4498
16800TIP3    H271816   2.415   2.089   0.673 -0.5207  0.3006 -1.6240
16801TIP3   OH271817   2.565   3.195  16.860 -0.0280  0.4742 -0.0221
16801TIP3    H171818   2.489   3.170  16.914  0.2393 -1.7246 -0.5484
16801TIP3    H271819   2.544   3.162  16.773  2.1620 -1.7136  0.1634
16802TIP3   OH271820   0.844   0.468   4.358 -0.5087  0.1840  0.3142
16802TIP3    H171821   0.834   0.491   4.450  2.8318 -1.1394  1.1511
16802TIP3    H271822   0.834   0.551   4.311  1.0383  1.5299  2.2214
16803TIP3   OH271823   1.571   0.875   1.141 -0.0828 -0.0331 -0.3109
16803TIP3    H171824   1.520   0.943   1.185  0.7104  0.1432  0.3639
16803TIP3    H271825   1.522   0.795   1.156  0.1471  0.0340  0.8740
16804TIP3   OH271826   0.421   3.298   0.307  0.6476  0.3809 -0.5825
16804TIP3    H171827   0.379   3.232   0.250 -0.0429  0.4744 -0.1961
16804TIP3    H271828   0.395   3.382   0.268 -0.3872  0.4621  0.2305
16805TIP3   OH271829   0.507   6.043   3.873  0.4571  0.3296 -0.3069
16805TIP3    H171830   0.556   6.122   3.849 -1.7845  1.1829 -2.3314
16805TIP3    H271831   0.511   5.987   3.796  0.2492 -0.6767  0.3814
16806TIP3   OH271832   6.548   6.378  11.684  0.3330 -0.2038  0.3914
16806TIP3    H171833   6.562   6.320  11.758  2.0366 -0.0087  0.2677
16806TIP3    H271834   6.538   6.319  11.608 -0.4844 -0.3739  0.6188
16807TIP3   OH271835   0.253   1.954   0.293 -0.2831  0.1324  0.3447
16807TIP3    H171836   0.239   2.010   0.217  1.8246  0.3028  0.0137
16807TIP3    H271837   0.259   1.865   0.256 -0.3943  0.0793  0.4554
16808TIP3   OH271838   0.283   1.870   3.593  0.7239  0.3385  0.1698
16808TIP3    H171839   0.328   1.798   3.638 -0.0414  0.9915  2.0801
16808TIP3    H271840   0.204   1.830   3.556 -1.3203  0.5839  3.7939
16809TIP3   OH271841   5.552   5.934  12.226  0.8118  0.4526 -0.4021
16809TIP3    H171842   5.544   5.908  12.318  0.2403  1.5426 -0.1217
16809TIP3    H271843   5.608   5.867  12.187 -2.3178 -2.5189 -0.3007
16810TIP3   OH271844   5.095   4.088  13.730  0.0971 -0.2195 -0.2235
16810TIP3    H171845   5.005   4.119  13.738  0.0864 -0.2561 -0.2015
16810TIP3    H271846   5.089   4.011  13.673  0.1029 -0.2722 -0.1541
16811TIP3   OH271847   5.485   4.294   3.008 -0.3896  0.2584 -0.4762
16811TIP3    H171848   5.532   4.363   2.962 -0.5265  2.3648  2.2766
16811TIP3    H271849   5.398   4.292   2.969 -0.0761  0.9829 -1.2119
16812TIP3   OH271850   2.674   3.822   1.317  0.1562 -0.0511 -0.0852
16812TIP3    H171851   2.676   3.910   1.279  1.6995  1.2124  2.6509
16812TIP3    H271852   2.629   3.833   1.401  1.5992 -1.5358  0.9470
16813TIP3   OH271853   4.572   2.950   0.458 -0.7127 -1.0609  0.4016
16813TIP3    H171854   4.531   2.935   0.373  0.2178 -1.6497  0.0331
16813TIP3    H271855   4.636   3.019   0.442 -1.3636 -0.3392  0.9026
16814TIP3   OH271856   6.082   2.194  16.900  0.4679 -0.4624 -0.3288
16814TIP3    H171857   6.057   2.254  16.971 -0.2953 -0.8762 -0.2347
16814TIP3    H271858   6.174   2.174  16.916  0.6875  0.5501 -0.2648
16815TIP3   OH271859   6.528   6.140   6.787  0.8380 -0.1485  0.4670
16815TIP3    H171860   6.433   6.149   6.783  0.6711 -1.7072  0.2070
16815TIP3    H271861   6.561   6.222   6.751 -0.4230  0.0058 -0.4280
16816TIP3   OH271862   1.692   0.041   5.866 -0.6014 -0.5500  0.3947
16816TIP3    H171863   1.652  -0.038   5.831 -2.0748  0.0283  0.6699
16816TIP3    H271864   1.619   0.103   5.874  0.2896  0.4287  1.3359
16817TIP3   OH271865   5.950   0.438  12.909  0.1681 -0.1549 -0.4824
16817TIP3    H171866   5.885   0.506  12.925 -4.2617 -3.5063 -2.1226
16817TIP3    H271867   5.998   0.468  12.832  0.5709  2.3295  0.6340
16818TIP3   OH271868   4.526   2.357   0.811  0.3666  0.2245 -0.4264
16818TIP3    H171869   4.573   2.399   0.739  0.8911  0.3683 -0.0092
16818TIP3    H271870   4.589   2.294   0.847 -0.6360 -1.5035 -1.5078
16819TIP3   OH271871   6.185   0.280  15.596  0.0413 -0.2988  0.0435
16819TIP3    H171872   6.218   0.256  15.683  1.0234  2.9674  0.7060
16819TIP3    H271873   6.104   0.230  15.587  0.1896 -1.1582  2.6157
16820TIP3   OH271874   2.319   1.755  11.488  0.1097 -0.0661 -0.4283
16820TIP3    H171875   2.372   1.675  11.500  1.0607  0.5518 -0.3563
16820TIP3    H271876   2.381   1.818  11.451 -0.8637  0.3736 -1.3267
16821TIP3   OH271877   0.477   1.996  12.952 -1.0918 -0.4129 -0.1050
16821TIP3    H171878   0.492   2.073  13.007  0.7656 -0.1620 -0.8862
16821TIP3    H271879   0.382   1.988  12.948 -1.3316  1.5481  0.4004
16822TIP3   OH271880   2.636   3.974  15.579  0.1801  0.1348 -0.2493
16822TIP3    H171881   2.559   3.916  15.577  0.0754  0.2548  0.1480
16822TIP3    H271882   2.610   4.045  15.638  0.4848  0.3350 -0.3570
16823TIP3   OH271883   4.174   3.057  14.304  0.1795  0.1582  0.4905
16823TIP3    H171884   4.242   3.000  14.340 -0.4775 -1.1275 -0.2280
16823TIP3    H271885   4.183   3.046  14.209 -1.0914 -0.1136  0.3933
16824TIP3   OH271886   1.406   6.448   5.143  0.4641  0.0709 -0.1191
16824TIP3    H171887   1.408   6.454   5.048 -1.9659  0.6811 -0.1944
16824TIP3    H271888   1.466   6.376   5.163  2.3354  1.0070 -1.9266
16825TIP3   OH271889   0.427   3.296   3.254  0.4931  0.0694 -0.1269
16825TIP3    H171890   0.473   3.221   3.218  2.1836  0.1057  1.8179
16825TIP3    H271891   0.493   3.366   3.257 -0.0699  0.5682  1.3687
16826TIP3   OH271892   6.562   0.906  10.359  1.1701 -0.0523  0.1934
16826TIP3    H171893   6.656   0.913  10.376  2.0807 -0.0265 -3.9340
16826TIP3    H271894   6.554   0.843  10.287 -2.0250 -0.0546  0.3683
16827TIP3   OH271895   2.319   6.564   3.383  0.1039 -0.1755 -0.3586
16827TIP3    H171896   2.410   6.548   3.357  0.5280  1.5504 -0.0175
16827TIP3    H271897   2.288   6.632   3.324 -1.1012 -0.9711 -0.6853
16828TIP3   OH271898   6.187   1.648   2.551  0.1975  0.5165 -0.2958
16828TIP3    H171899   6.097   1.631   2.524  1.3431 -1.6973 -3.2706
16828TIP3    H271900   6.181   1.667   2.644 -3.0676 -2.8522  0.4109
16829TIP3   OH271901   6.034   5.826   3.095  0.5120 -0.2391 -0.2864
16829TIP3    H171902   6.079   5.837   3.011  0.4279 -0.1988 -0.3260
16829TIP3    H271903   5.941   5.826   3.073  0.4710  0.3379 -0.1285
16830TIP3   OH271904   5.167   3.699  16.400  0.1370 -0.5235 -0.2844
16830TIP3    H171905   5.119   3.782  16.408 -0.9913 -1.2966  1.5039
16830TIP3    H271906   5.241   3.720  16.342  0.2430  1.8874  0.6114
16831TIP3   OH271907   1.404   0.238   6.651 -0.0567 -0.1520  0.0592
16831TIP3    H171908   1.418   0.220   6.558 -0.1697 -0.9794  0.1965
16831TIP3    H271909   1.408   0.333   6.658 -0.8088 -0.0382 -0.9194
16832TIP3   OH271910   6.652   1.286   0.041 -0.4810  0.4714  0.0559
16832TIP3    H171911   6.658   1.251  -0.048  2.7412  0.1378  0.2887
16832TIP3    H271912   6.703   1.225   0.094 -1.1642  1.4391  1.8992
16833TIP3   OH271913   4.210   2.920  15.061  0.5098 -0.3637  0.7247
16833TIP3    H171914   4.193   3.003  15.016  1.3095 -0.4839  0.1762
16833TIP3    H271915   4.189   2.938  15.153 -0.2977  0.1432  0.4570
16834TIP3   OH271916   3.339   5.618   0.437  0.4323 -0.2423 -0.4072
16834TIP3    H171917   3.246   5.619   0.413 -0.2476 -1.5815  1.8247
16834TIP3    H271918   3.382   5.670   0.369 -2.1880  2.0177 -0.5333
16835TIP3   OH271919   4.363   6.309  17.073  0.2202 -0.8057 -0.3217
16835TIP3    H171920   4.271   6.285  17.089 -0.4454  0.9285 -1.3695
16835TIP3    H271921   4.412   6.232  17.104 -1.3386 -0.6597  3.0346
16836TIP3   OH271922   3.209   4.589  14.397  0.2463 -0.8448 -0.5945
16836TIP3    H171923   3.137   4.643  14.366  0.9612  1.7309  1.7963
16836TIP3    H271924   3.194   4.580  14.491  1.4308 -2.8945 -0.5469
16837TIP3   OH271925   2.856   4.104  17.132  0.3130  0.8663  0.0171
16837TIP3    H171926   2.799   4.174  17.100  0.0889  0.3886 -0.6460
16837TIP3    H271927   2.803   4.059  17.198  0.0742  0.6871 -0.2939
16838TIP3   OH271928   5.560   5.826  12.847  0.7797 -0.2127 -0.3197
16838TIP3    H171929   5.472   5.792  12.833  0.9397 -0.2985 -1.1705
16838TIP3    H271930   5.618   5.751  12.829  1.0709  0.1394 -0.8836
16839TIP3   OH271931   3.578   5.400  17.375  0.3693  0.3218  0.0197
16839TIP3    H171932   3.499   5.442  17.410 -0.5285  1.2187 -2.8243
16839TIP3    H271933   3.650   5.451  17.412 -0.4949  1.2920  0.4198
16840TIP3   OH271934   6.149   1.187   5.226  0.0124  0.2802  0.8263
16840TIP3    H171935   6.159   1.246   5.301 -0.3223  0.3370  0.8285
16840TIP3    H271936   6.116   1.106   5.264 -2.2210  0.9725  0.5163
16841TIP3   OH271937   6.315   1.430  16.751  0.5866 -0.1486  0.1480
16841TIP3    H171938   6.350   1.452  16.837  2.3184 -2.1531  0.0314
16841TIP3    H271939   6.276   1.343  16.762 -1.5278  0.6252 -0.5454
16842TIP3   OH271940   5.986   4.028   5.401 -0.5140  0.0270  0.3708
16842TIP3    H171941   5.954   4.069   5.321  0.5004 -0.5890 -0.3741
16842TIP3    H271942   6.074   4.065   5.413 -0.2611 -0.6356  0.6295
16843TIP3   OH271943   1.506   3.888  15.885 -0.0204 -0.3352 -0.2758
16843TIP3    H171944   1.486   3.899  15.792  0.9783 -0.6140 -0.5417
16843TIP3    H271945   1.585   3.834  15.886  0.2815  0.0995  0.7246
16844TIP3   OH271946   4.567   1.763   3.873 -0.6319 -0.2417  0.0192
16844TIP3    H171947   4.643   1.780   3.818  0.5524 -1.5526  1.1483
16844TIP3    H271948   4.498   1.739   3.812  0.3717 -0.7697 -0.9494
16845TIP3   OH271949   2.038   1.538  11.928 -0.6264 -0.5190 -0.0196
16845TIP3    H171950   2.034   1.456  11.879 -2.5247  0.2595 -1.2813
16845TIP3    H271951   2.064   1.603  11.863 -0.9393  0.1590  0.5265
16846TIP3   OH271952   2.869   2.081  15.535 -0.0941 -0.1026 -0.1693
16846TIP3    H171953   2.928   2.007  15.549  1.2110  1.1769  1.5773
16846TIP3    H271954   2.914   2.155  15.575 -2.4896  1.1596  0.3670
16847TIP3   OH271955   5.344   4.748   2.259 -0.1296 -0.4115 -0.0630
16847TIP3    H171956   5.354   4.737   2.164  1.4012  1.8273 -0.2322
16847TIP3    H271957   5.276   4.815   2.267  0.5546  0.2410  0.3632
16848TIP3   OH271958   3.195   5.316   3.811 -0.2585  1.1943  0.2725
16848TIP3    H171959   3.265   5.257   3.781 -1.9984 -0.5395 -0.5654
16848TIP3    H271960   3.172   5.283   3.898  0.7941  2.6046  1.1457
16849TIP3   OH271961   5.217   4.822   3.370  0.7334 -0.0642  0.2804
16849TIP3    H171962   5.187   4.732   3.382  1.5073 -0.2746  0.7204
16849TIP3    H271963   5.312   4.814   3.359  0.7407  0.6535 -0.1974
16850TIP3   OH271964   0.840   6.242  16.206  0.5694 -0.3198 -0.5138
16850TIP3    H171965   0.797   6.310  16.258  1.8576 -0.7513  1.1858
16850TIP3    H271966   0.916   6.285  16.167  1.6264 -0.8592  0.9102
16851TIP3   OH271967   0.615   2.319  12.097  0.2897 -0.0544  0.1173
16851TIP3    H171968   0.612   2.290  12.006  0.9441  0.2760 -0.0133
16851TIP3    H271969   0.523   2.329  12.121  0.1000  1.8080 -1.1575
16852TIP3   OH271970   2.989   2.250  16.696  0.1298 -0.2958  0.2779
16852TIP3    H171971   2.917   2.273  16.755  2.0819  0.4947  2.4868
16852TIP3    H271972   2.990   2.155  16.695  0.8107 -0.3646  2.5965
16853TIP3   OH271973   2.369   1.061  14.833  0.7578  0.3777 -0.0927
16853TIP3    H171974   2.412   1.108  14.762 -0.0166 -1.0238 -1.5467
16853TIP3    H271975   2.359   0.972  14.800  0.5345 -0.3708  1.8540
16854TIP3   OH271976   1.211   2.329  17.366 -0.5275 -0.1535  0.4645
16854TIP3    H171977   1.220   2.418  17.334  0.3529 -0.7597 -1.0434
16854TIP3    H271978   1.121   2.303  17.343 -1.0725  0.5794  1.6373
16855TIP3   OH271979   0.341   1.575   4.101  0.4129 -0.7690  0.5406
16855TIP3    H171980   0.261   1.562   4.151 -1.7152  0.7057 -2.1873
16855TIP3    H271981   0.354   1.669   4.100  1.1333 -0.8538 -0.5115
16856TIP3   OH271982   5.531   3.657  15.986  0.1675  0.0255  0.3033
16856TIP3    H171983   5.459   3.649  15.924 -0.4873  0.6372  0.9589
16856TIP3    H271984   5.553   3.750  15.986  2.3332 -0.4059 -1.3675
16857TIP3   OH271985   2.317   0.364  16.923  0.3972  0.0587  0.2770
16857TIP3    H171986   2.300   0.409  17.006  0.2922 -0.5608  0.5976
16857TIP3    H271987   2.244   0.389  16.867  0.6684  0.7900  0.2343
16858TIP3   OH271988   3.138   0.257   3.236  0.2460  0.4776  0.2895
16858TIP3    H171989   3.178   0.292   3.315 -1.4230  0.8244  1.0114
16858TIP3    H271990   3.184   0.174   3.221  0.6434  0.4481  1.5617
16859TIP3   OH271991   0.730   2.274  16.571 -0.2694  0.3729 -0.1170
16859TIP3    H171992   0.732   2.307  16.481 -0.9048  2.7638  0.6782
16859TIP3    H271993   0.638   2.280  16.596 -0.0450  0.0437  0.7953
16860TIP3   OH271994   1.623   1.478   0.537 -0.1074 -0.1550 -0.7264
16860TIP3    H171995   1.588   1.424   0.466 -1.7060  0.7428 -0.6458
16860TIP3    H271996   1.626   1.566   0.502  1.9022 -0.1456 -0.6400
16861TIP3   OH271997   0.855   2.448   1.672 -0.5911 -0.2958 -0.1783
16861TIP3    H171998   0.805   2.481   1.597  0.6168 -0.7841 -1.2282
16861TIP3    H271999   0.804   2.474   1.749 -1.1028  1.5219 -1.0998
16862TIP3   OH272000   4.201   4.137  11.092 -0.5344 -0.1187  0.5200
16862TIP3    H172001   4.128   4.088  11.053  0.4020 -0.0560 -1.4406
16862TIP3    H272002   4.271   4.072  11.102 -0.0964  0.3016  0.2233
16863TIP3   OH272003   0.087   5.450  16.422  0.3782 -0.0960 -0.7391
16863TIP3    H172004   0.032   5.389  16.373 -0.7335 -0.9036  1.4039
16863TIP3    H272005   0.175   5.435  16.387  0.5189 -4.3599  0.8448
16864TIP3   OH272006   1.820   2.848  17.077  0.1151  0.8026 -0.6649
16864TIP3    H172007   1.788   2.761  17.099 -0.4127  1.2576  0.4811
16864TIP3    H272008   1.877   2.835  17.001  0.0239 -0.5219 -0.5248
16865TIP3   OH272009   5.016   0.281  12.321 -0.3012  0.0374  0.5712
16865TIP3    H172010   5.051   0.193  12.327 -0.4158 -0.3131 -2.3080
16865TIP3    H272011   5.085   0.331  12.277 -1.5668  0.4492 -1.0593
16866TIP3   OH272012   2.124   3.141   5.246  0.3382 -0.4215  0.1246
16866TIP3    H172013   2.067   3.163   5.172  1.4453  0.7198 -0.4207
16866TIP3    H272014   2.089   3.192   5.319 -0.1573 -0.7888  0.1511
16867TIP3   OH272015   3.256   1.825  10.743  0.4401 -0.2605  0.4751
16867TIP3    H172016   3.298   1.910  10.756  1.0506 -0.5122  0.1950
16867TIP3    H272017   3.164   1.845  10.726  0.8728  0.4661 -1.2354
16868TIP3   OH272018   3.493   4.185  14.647  0.2577  0.2849  0.5229
16868TIP3    H172019   3.508   4.263  14.593  0.5081  0.1973  0.4663
16868TIP3    H272020   3.414   4.206  14.697 -2.3863 -1.0887 -2.6532
16869TIP3   OH272021   2.347   1.823   6.029 -0.1921 -0.2381  0.2124
16869TIP3    H172022   2.350   1.917   6.016 -0.7645 -0.1459  0.7212
16869TIP3    H272023   2.263   1.807   6.072  0.0534 -0.9381  0.4429
16870TIP3   OH272024   3.270   5.438  16.178  0.0554  0.3122  0.4595
16870TIP3    H172025   3.196   5.477  16.131  0.9511 -0.2403 -1.5209
16870TIP3    H272026   3.337   5.507  16.178  0.7081 -0.2955 -0.7304
16871TIP3   OH272027   0.876   0.118   6.342 -0.6581  0.3088 -0.2411
16871TIP3    H172028   0.799   0.151   6.387  0.5288  0.4733  1.7699
16871TIP3    H272029   0.917   0.196   6.305  2.1807  1.4823  4.5626
16872TIP3   OH272030   1.971   6.360   4.621  0.9311  0.0210 -0.3932
16872TIP3    H172031   1.915   6.309   4.563 -0.8547  1.1387  0.2888
16872TIP3    H272032   1.912   6.421   4.665  2.8624  2.1711 -0.5982
16873TIP3   OH272033   5.260   4.567   2.988 -0.1415  0.0663 -0.0807
16873TIP3    H172034   5.267   4.662   2.986 -0.4376  0.0826 -1.0764
16873TIP3    H272035   5.192   4.547   2.923 -0.9387 -0.7512  0.9825
16874TIP3   OH272036   4.888   1.049   5.007  0.2463 -0.1381  0.9835
16874TIP3    H172037   4.855   1.116   4.947 -1.2274  0.0009  1.8963
16874TIP3    H272038   4.937   0.989   4.952 -0.0984  0.6151 -0.1756
16875TIP3   OH272039   6.066   2.664  11.315 -0.5263  0.2524  0.5934
16875TIP3    H172040   6.011   2.716  11.256 -0.9274  0.2076  0.9194
16875TIP3    H272041   6.015   2.585  11.332  0.8767 -1.1855 -1.4105
16876TIP3   OH272042   5.725   5.286   6.769  0.0820 -0.0396 -0.0578
16876TIP3    H172043   5.680   5.231   6.705 -1.0344 -0.3668  0.9833
16876TIP3    H272044   5.795   5.328   6.719 -0.8663 -0.1492 -1.5318
16877TIP3   OH272045   2.234   1.249  16.919 -0.1911 -0.1344  0.3904
16877TIP3    H172046   2.246   1.157  16.896  1.2920  0.5449 -1.9094
16877TIP3    H272047   2.318   1.290  16.898 -0.8449  1.7666  1.2652
16878TIP3   OH272048   6.167   4.955  15.964 -0.4570  0.6941 -0.3266
16878TIP3    H172049   6.227   4.913  16.026 -0.6482 -1.2867 -1.3965
16878TIP3    H272050   6.080   4.942  16.003 -0.5363 -0.1624 -0.7583
16879TIP3   OH272051   2.516   2.855   2.107 -0.2067 -0.1722 -0.8805
16879TIP3    H172052   2.612   2.845   2.114 -0.4028 -2.2726 -0.3583
16879TIP3    H272053   2.488   2.778   2.058 -1.6645  0.3119 -0.8465
16880TIP3   OH272054   0.276   1.191  13.740 -0.4407 -0.2559  0.1813
16880TIP3    H172055   0.337   1.265  13.735 -2.3926  1.5160  0.9898
16880TIP3    H272056   0.319   1.122  13.690  2.3194  0.7818  0.9151
16881TIP3   OH272057   3.985   5.512   1.756  0.2481  0.7082  0.2441
16881TIP3    H172058   4.031   5.475   1.681 -0.6628  1.1703 -0.5630
16881TIP3    H272059   3.951   5.596   1.725 -2.2513 -0.1934  0.3722
16882TIP3   OH272060   0.248   0.297  12.971 -0.0985 -0.0256 -0.1554
16882TIP3    H172061   0.163   0.341  12.958  0.2063  0.0463 -2.2645
16882TIP3    H272062   0.226   0.214  13.012 -1.1913  0.0966 -0.4514
16883TIP3   OH272063   5.306   3.206  15.180 -0.1743  0.0022 -0.5711
16883TIP3    H172064   5.285   3.255  15.101 -0.9677 -1.5148 -1.3361
16883TIP3    H272065   5.251   3.128  15.176 -0.7493  0.1848  1.8193
16884TIP3   OH272066   6.415   1.414   0.245  0.7883  0.2941 -0.0955
16884TIP3    H172067   6.425   1.507   0.228 -0.5377  0.1093 -2.2726
16884TIP3    H272068   6.411   1.374   0.158 -2.2831 -1.3455  0.6575
16885TIP3   OH272069   1.701   0.767  17.132 -0.5755  0.7060  0.6355
16885TIP3    H172070   1.718   0.786  17.040 -0.5124  0.9155  0.6909
16885TIP3    H272071   1.767   0.817  17.180  2.1279 -2.5140  0.6613
16886TIP3   OH272072   3.653   5.683   2.843  0.6297  0.3517  0.1279
16886TIP3    H172073   3.596   5.759   2.855 -0.6519 -0.4440 -0.6624
16886TIP3    H272074   3.717   5.711   2.778 -1.1515  0.1235 -1.8314
16887TIP3   OH272075   6.263   0.742   4.503  0.4640 -0.4721  0.4967
16887TIP3    H172076   6.295   0.696   4.580 -2.5535  1.0946  2.8635
16887TIP3    H272077   6.170   0.722   4.499  0.1950  0.8570 -1.7732
16888TIP3   OH272078   6.438   2.931   4.495  0.2503  0.1232  0.2210
16888TIP3    H172079   6.418   2.879   4.416 -1.8650 -0.3454  0.9938
16888TIP3    H272080   6.352   2.947   4.535  1.2023  1.1053  1.9683
16889TIP3   OH272081   3.220   0.422   2.584 -0.2171  0.5370 -0.1124
16889TIP3    H172082   3.310   0.448   2.606  0.1754 -0.5607 -0.3877
16889TIP3    H272083   3.166   0.484   2.632  0.6663  0.2706  1.3064
16890TIP3   OH272084   4.721   5.646   4.499 -0.2207 -0.3125  1.0232
16890TIP3    H172085   4.681   5.597   4.427 -1.2206  1.0469  0.6028
16890TIP3    H272086   4.721   5.586   4.573  1.1680 -1.8804 -0.1740
16891TIP3   OH272087   2.306   6.325  14.881  0.4830 -0.1256 -0.0484
16891TIP3    H172088   2.292   6.326  14.976 -0.6506  0.1787 -0.2032
16891TIP3    H272089   2.381   6.267  14.869 -0.5330 -1.7332  0.9034
16892TIP3   OH272090   4.533   2.107   4.544  0.3932  0.1327 -0.3940
16892TIP3    H172091   4.448   2.089   4.585  0.9078 -2.5978 -0.3479
16892TIP3    H272092   4.587   2.143   4.615  0.1130 -0.8641  0.3439
16893TIP3   OH272093   4.032   1.745  14.354 -0.0153  0.3988 -0.0443
16893TIP3    H172094   3.981   1.670  14.384  0.6164  0.0987  0.3003
16893TIP3    H272095   4.055   1.725  14.263  1.4829 -0.5723  0.5172
16894TIP3   OH272096   3.030   5.456   6.639  0.7076  0.1670  0.1038
16894TIP3    H172097   2.977   5.454   6.559  0.5911 -1.2097  0.1824
16894TIP3    H272098   2.968   5.434   6.709  1.5166 -2.6559  0.0649
16895TIP3   OH272099   6.607   2.251  17.416 -0.2092 -0.2109 -0.2428
16895TIP3    H172100   6.626   2.328  17.470 -1.7084  0.9442 -1.2865
16895TIP3    H272101   6.636   2.275  17.329 -0.1252 -1.0929 -0.4687
16896TIP3   OH272102   5.236   2.982  11.918  0.4345  0.0058  0.9051
16896TIP3    H172103   5.209   3.066  11.880 -0.2700 -0.5606  0.0907
16896TIP3    H272104   5.294   3.005  11.990  0.6537  1.1743  0.3763
16897TIP3   OH272105   5.631   0.332  14.064 -0.2947 -0.1266 -0.3048
16897TIP3    H172106   5.632   0.258  14.125  0.1002 -2.0232 -2.4653
16897TIP3    H272107   5.646   0.409  14.119  0.1486 -1.7216  1.9484
16898TIP3   OH272108   3.222   2.654  15.033  0.1129  0.4365 -0.2026
16898TIP3    H172109   3.151   2.591  15.029 -0.9748  1.5723  0.3415
16898TIP3    H272110   3.278   2.624  15.104  0.2879 -0.5651 -0.7540
16899TIP3   OH272111   3.215   4.089   5.096 -0.2143  0.3865 -0.2341
16899TIP3    H172112   3.247   3.999   5.101 -1.2576  0.0423  0.9013
16899TIP3    H272113   3.176   4.096   5.009 -1.8569 -0.9205  0.3381
16900TIP3   OH272114   0.521   4.928   5.982 -0.6737  0.3984  0.2467
16900TIP3    H172115   0.602   4.878   5.968 -0.9607  0.0854 -0.3389
16900TIP3    H272116   0.522   4.949   6.076  0.3444  0.8602  0.1384
16901TIP3   OH272117   3.291   1.590  13.350 -0.4493 -0.3815 -0.3210
16901TIP3    H172118   3.325   1.522  13.292  1.0799  0.1645 -0.1018
16901TIP3    H272119   3.203   1.560  13.374  0.3199 -2.4569  0.0656
16902TIP3   OH272120   3.439   0.144   0.191 -0.1959  0.0764  0.0213
16902TIP3    H172121   3.413   0.221   0.139  1.5399  0.3252 -0.5656
16902TIP3    H272122   3.435   0.174   0.281 -0.8343  0.4423 -0.1252
16903TIP3   OH272123   6.366   6.170   1.071 -0.6279  0.2788 -0.1284
16903TIP3    H172124   6.311   6.111   1.019 -1.4132  0.0118  0.9678
16903TIP3    H272125   6.310   6.246   1.088 -0.8992 -0.2315  1.4605
16904TIP3   OH272126   3.073   4.324  15.911  0.1702  0.7853  0.2226
16904TIP3    H172127   3.026   4.244  15.935 -0.1904  0.9260 -0.0092
16904TIP3    H272128   3.156   4.319  15.960  0.2038  0.2143  0.1123
16905TIP3   OH272129   0.081   3.859  15.929 -0.6657  0.4088 -0.3322
16905TIP3    H172130   0.058   3.779  15.883  0.4434 -1.0797  1.5528
16905TIP3    H272131   0.019   3.924  15.896 -0.9054 -0.9078 -2.7210
16906TIP3   OH272132   1.101   2.781   3.642 -0.4404  0.8273  0.1933
16906TIP3    H172133   1.019   2.742   3.672  0.8619 -2.4562 -0.0451
16906TIP3    H272134   1.135   2.719   3.577  2.3736  1.8615  0.5218
16907TIP3   OH272135   1.085   1.311   3.546 -0.5236 -0.6347 -0.4958
16907TIP3    H172136   1.162   1.256   3.558 -1.4515 -1.9789 -0.4950
16907TIP3    H272137   1.116   1.386   3.495  1.3072  0.1002  1.5451
16908TIP3   OH272138   5.540   2.734   1.969  0.1104  0.2731  0.1779
16908TIP3    H172139   5.571   2.815   2.009 -0.8623  0.3949  0.7248
16908TIP3    H272140   5.591   2.725   1.888  1.1252  0.7523  0.7436
16909TIP3   OH272141   3.385   2.045   6.281 -0.3160 -0.1771  0.0508
16909TIP3    H172142   3.448   2.042   6.353 -0.1614  1.7208  0.0527
16909TIP3    H272143   3.427   2.099   6.214 -1.0488 -0.7177 -0.8709
16910TIP3   OH272144   6.176   6.350   3.991  0.0555  0.6584 -0.2305
16910TIP3    H172145   6.138   6.279   3.939 -0.9122  1.3909 -0.5404
16910TIP3    H272146   6.102   6.397   4.027  0.6994  0.3930  1.5799
16911TIP3   OH272147   2.234   4.995  16.905 -0.2012 -0.1893 -0.6239
16911TIP3    H172148   2.223   5.071  16.961  1.0701 -1.0748  0.8954
16911TIP3    H272149   2.329   4.983  16.899 -0.3735 -1.3893 -1.2008
16912TIP3   OH272150   5.086   1.222  10.351 -0.2045  0.4673 -0.6290
16912TIP3    H172151   5.038   1.282  10.294  2.1026  2.3856 -0.6967
16912TIP3    H272152   5.018   1.185  10.409 -1.8898  2.3306 -1.2835
16913TIP3   OH272153   0.919   5.265   0.195  0.1565 -0.3093  0.4058
16913TIP3    H172154   0.991   5.213   0.231  2.2335  2.7241  0.9862
16913TIP3    H272155   0.960   5.326   0.134 -2.2022  0.3579 -0.6648
16914TIP3   OH272156   1.750   5.826  13.389 -0.0179  0.6273  0.3261
16914TIP3    H172157   1.739   5.912  13.347  0.6693  1.8020  2.4198
16914TIP3    H272158   1.664   5.785  13.381 -0.7362  2.0453  0.3668
16915TIP3   OH272159   4.938   0.479  11.635  0.2140  0.1104 -0.0593
16915TIP3    H172160   4.858   0.429  11.650  1.1278 -1.0939  0.9241
16915TIP3    H272161   4.963   0.457  11.545  0.5346 -1.1253  0.3157
16916TIP3   OH272162   2.543   4.716   4.325  0.1487  0.1614 -0.5526
16916TIP3    H172163   2.459   4.753   4.300  0.3361  0.7958 -0.2734
16916TIP3    H272164   2.528   4.621   4.329 -0.5638  0.2773 -0.4258
16917TIP3   OH272165   0.259   0.830   1.905 -0.1938  0.5301  0.5240
16917TIP3    H172166   0.287   0.757   1.961  0.1417  1.3321  1.4344
16917TIP3    H272167   0.220   0.893   1.966  1.8244  2.2468  0.1505
16918TIP3   OH272168   1.012   5.093   3.431 -0.1197 -0.1184  0.5958
16918TIP3    H172169   0.991   5.186   3.425  0.1821 -0.0333  0.8224
16918TIP3    H272170   0.945   5.056   3.488  0.1511  0.0930  1.0597
16919TIP3   OH272171   2.256   2.761  17.271  0.2358  0.5815  0.5417
16919TIP3    H172172   2.237   2.793  17.183  0.5661  0.0872  0.2880
16919TIP3    H272173   2.263   2.666  17.261 -0.6575  0.4279  1.2724
16920TIP3   OH272174   2.195   1.012  16.780  0.2388  0.0639  0.2618
16920TIP3    H172175   2.236   0.937  16.738 -2.2280 -2.0438  1.4087
16920TIP3    H272176   2.160   1.064  16.708  1.1602 -0.3417 -0.4996
16921TIP3   OH272177   6.099   3.255  16.390  0.7997  0.7077 -0.2090
16921TIP3    H172178   6.063   3.180  16.437 -0.8106  0.3158 -1.9453
16921TIP3    H272179   6.159   3.296  16.452 -0.6578 -0.1834  1.9041
16922TIP3   OH272180   6.326   2.367   2.518  0.3599  0.3928  0.1383
16922TIP3    H172181   6.252   2.307   2.515  0.2041  0.6026 -0.2064
16922TIP3    H272182   6.398   2.317   2.480 -0.0920  0.8773 -1.3869
16923TIP3   OH272183   1.879   1.628   3.398 -0.4557 -0.0803  0.1979
16923TIP3    H172184   1.843   1.637   3.487 -0.9675 -0.6104  0.0462
16923TIP3    H272185   1.803   1.607   3.343 -0.1604  0.3708 -0.3906
16924TIP3   OH272186   5.107   2.305  13.180  0.5835 -0.0122 -0.1964
16924TIP3    H172187   5.101   2.398  13.205  1.6892  0.1750 -0.5755
16924TIP3    H272188   5.172   2.303  13.110  0.5720 -1.0772 -0.1912
16925TIP3   OH272189   1.425   2.396  10.452  0.4404  0.1629  0.4057
16925TIP3    H172190   1.395   2.308  10.476 -1.4328  0.4905 -0.5429
16925TIP3    H272191   1.357   2.454  10.487  0.7915  1.0814 -0.4178
16926TIP3   OH272192   3.016   5.100   3.023  0.8172  0.5833 -0.5705
16926TIP3    H172193   3.060   5.072   2.943  1.3091  2.6026 -1.0752
16926TIP3    H272194   2.968   5.023   3.053  4.1337 -1.5883 -0.3264
16927TIP3   OH272195   6.568   2.401  13.490 -0.2281 -0.1228 -0.5994
16927TIP3    H172196   6.514   2.400  13.569 -0.0503  4.2426 -0.1670
16927TIP3    H272197   6.621   2.321  13.495 -0.9733 -0.5439  3.1274
16928TIP3   OH272198   1.720   0.079   4.822  0.8006 -0.2941 -0.5633
16928TIP3    H172199   1.684  -0.010   4.830 -0.3165  0.1951  0.0905
16928TIP3    H272200   1.754   0.099   4.909  3.1774 -0.9197 -1.2769
16929TIP3   OH272201   4.806   5.360   1.772  0.3946  0.2747 -0.1827
16929TIP3    H172202   4.771   5.434   1.722  0.2884  0.9680  0.8889
16929TIP3    H272203   4.893   5.345   1.736  0.2217  0.5860 -0.7414
16930TIP3   OH272204   3.873   2.132  11.404  0.8366  0.3253  0.3340
16930TIP3    H172205   3.850   2.182  11.482  4.4227  1.8441  0.5886
16930TIP3    H272206   3.937   2.067  11.435  1.7047  0.4110 -1.1821
16931TIP3   OH272207   2.210   0.815   0.120  0.5702 -0.3573 -0.2361
16931TIP3    H172208   2.143   0.881   0.139  1.1693 -0.4531  2.6997
16931TIP3    H272209   2.161   0.735   0.102 -0.1850 -0.4449  1.9425
16932TIP3   OH272210   0.626   5.767   0.040 -0.2721 -0.1120  0.6057
16932TIP3    H172211   0.695   5.772  -0.026 -1.0385  1.0840 -0.1346
16932TIP3    H272212   0.585   5.682   0.025 -0.6899  0.3017 -0.7337
16933TIP3   OH272213   1.382   3.748  11.357  0.3324 -0.4641 -0.1008
16933TIP3    H172214   1.474   3.757  11.333  0.6203  0.2705  1.2307
16933TIP3    H272215   1.383   3.706  11.443 -0.3987  2.4236  1.4534
16934TIP3   OH272216   2.612   4.444  14.666 -0.6829 -0.4541 -0.0818
16934TIP3    H172217   2.543   4.506  14.688 -0.5583  0.5128 -2.1968
16934TIP3    H272218   2.686   4.498  14.640  0.6056 -1.4869  1.2648
16935TIP3   OH272219   4.505   4.721  17.383  0.3536 -0.2086 -0.3554
16935TIP3    H172220   4.469   4.652  17.328 -0.5310  0.2645 -0.3969
16935TIP3    H272221   4.488   4.691  17.473  1.0688 -0.6037 -0.3472
16936TIP3   OH272222   4.883   6.735   2.465 -0.0251 -0.9857  0.1366
16936TIP3    H172223   4.890   6.808   2.527 -1.8260  0.6822 -1.5000
16936TIP3    H272224   4.942   6.757   2.394 -1.3310 -0.5529 -0.8520
16937TIP3   OH272225   1.903   5.783   1.726 -0.1220 -0.1825  0.2964
16937TIP3    H172226   1.910   5.687   1.732 -0.3340 -0.3870 -2.0063
16937TIP3    H272227   1.991   5.814   1.749  0.3075 -1.0174 -0.1334
16938TIP3   OH272228   0.056   1.481   3.754 -0.0715  0.5503 -0.1532
16938TIP3    H172229   0.046   1.389   3.730  0.9264  0.3294  0.2460
16938TIP3    H272230  -0.012   1.526   3.704  1.0318 -0.0795 -2.3490
16939TIP3   OH272231   5.321   2.063  17.213  0.1002 -0.0285 -0.5244
16939TIP3    H172232   5.259   2.026  17.275  0.2843 -0.3801 -0.5427
16939TIP3    H272233   5.267   2.089  17.137 -0.6927  3.7106  1.0909
16940TIP3   OH272234   4.222   0.043  17.403  0.1031 -0.3327  0.0110
16940TIP3    H172235   4.261   0.130  17.396 -1.0559  0.0952 -1.7807
16940TIP3    H272236   4.160   0.050  17.476  0.8192  0.0048  0.5909
16941TIP3   OH272237   4.140   6.316   3.210  0.2266  0.2886  0.2123
16941TIP3    H172238   4.204   6.298   3.141 -0.2545  0.5246 -0.3068
16941TIP3    H272239   4.063   6.265   3.185  0.1079  0.2379  0.6747
16942TIP3   OH272240   0.205   2.711  16.363  0.3317  0.4428 -0.3032
16942TIP3    H172241   0.256   2.741  16.439 -0.0954  1.0865 -0.2647
16942TIP3    H272242   0.247   2.753  16.288 -0.0251  0.8178 -0.2919
16943TIP3   OH272243   4.130   4.310  15.940 -0.4332 -0.0042 -0.1693
16943TIP3    H172244   4.100   4.343  15.856  0.5160  0.5757 -0.2836
16943TIP3    H272245   4.128   4.215  15.930  0.0773  0.0663 -0.9852
16944TIP3   OH272246   6.069   0.671  16.595 -0.1542  0.1311 -0.3337
16944TIP3    H172247   6.039   0.634  16.678  1.1539  0.1264  0.1631
16944TIP3    H272248   6.016   0.627  16.528 -1.4338  0.3485  0.4988
16945TIP3   OH272249   3.973   2.111   5.264  0.7831  0.3456 -0.4422
16945TIP3    H172250   3.999   2.136   5.353  0.7613 -1.0689 -0.0112
16945TIP3    H272251   4.018   2.027   5.248  1.5103  1.0045 -2.1155
16946TIP3   OH272252   4.912   1.190  11.172 -0.1758 -0.2979  0.2491
16946TIP3    H172253   4.877   1.179  11.084 -0.4000 -0.1127  0.3134
16946TIP3    H272254   5.007   1.189  11.161 -0.1898 -1.5045  0.1607
16947TIP3   OH272255   3.355   5.223  14.002 -0.4168 -0.2286  0.1522
16947TIP3    H172256   3.387   5.310  13.975 -1.8737 -0.1757 -1.5426
16947TIP3    H272257   3.270   5.241  14.043 -1.5407 -0.9557 -1.7540
16948TIP3   OH272258   4.620   0.462   3.637 -0.7267 -0.3841  0.1025
16948TIP3    H172259   4.676   0.520   3.689 -1.8585 -0.5768  1.6336
16948TIP3    H272260   4.613   0.382   3.691 -1.1955 -0.9617 -0.7933
16949TIP3   OH272261   3.996   2.507   4.150 -0.1125  0.8996  0.3930
16949TIP3    H172262   4.079   2.552   4.137  0.7049 -0.6438  0.0609
16949TIP3    H272263   4.017   2.436   4.211 -1.3586  0.9272  0.8882
16950TIP3   OH272264   2.378   6.048   4.317 -0.2914 -0.0442  0.4542
16950TIP3    H172265   2.328   6.119   4.356  0.4824  1.8732 -1.7772
16950TIP3    H272266   2.463   6.051   4.360  0.1564  1.2609 -0.4700
16951TIP3   OH272267   0.350   0.948  11.105  0.4191 -0.0569 -0.4832
16951TIP3    H172268   0.271   0.942  11.159  1.6339 -0.4525  1.3188
16951TIP3    H272269   0.341   0.876  11.042  0.9819 -2.5521  2.0583
16952TIP3   OH272270   0.337   0.583   6.459 -0.1966 -0.1586 -0.4549
16952TIP3    H172271   0.360   0.545   6.374  1.1990 -0.2116 -0.0789
16952TIP3    H272272   0.325   0.507   6.517 -1.5518 -0.1381 -0.6799
16953TIP3   OH272273   2.116   0.934  13.887 -0.1088  0.2091  0.7265
16953TIP3    H172274   2.148   0.853  13.847 -2.1166 -1.1819  1.7941
16953TIP3    H272275   2.161   0.939  13.971  1.0727  0.9934  0.0737
16954TIP3   OH272276   5.333   4.708  13.613 -0.4595  0.6969  0.6128
16954TIP3    H172277   5.291   4.645  13.553  0.0165  0.7555  0.2065
16954TIP3    H272278   5.397   4.655  13.660 -0.2564  0.8170  0.4735
16955TIP3   OH272279   2.709   6.700   5.167  0.0056  0.0035  0.1666
16955TIP3    H172280   2.754   6.666   5.245 -1.1730 -0.7174  0.5584
16955TIP3    H272281   2.650   6.629   5.141  1.7228 -0.5682 -2.5557
16956TIP3   OH272282   5.300   0.280   2.195  0.0661 -0.0990  0.0022
16956TIP3    H172283   5.303   0.340   2.120 -1.2015 -0.2358 -0.1751
16956TIP3    H272284   5.354   0.323   2.261 -1.3186  1.6122  0.1064
16957TIP3   OH272285   0.107   5.350  12.903 -0.0988  0.2704 -0.6116
16957TIP3    H172286   0.175   5.302  12.950 -1.3919 -0.4025  0.6577
16957TIP3    H272287   0.121   5.442  12.925  1.3914  0.3350 -1.7200
16958TIP3   OH272288   4.541   0.400   2.117  0.0607 -0.0670  0.7856
16958TIP3    H172289   4.464   0.390   2.172  1.0807 -1.9269  1.9970
16958TIP3    H272290   4.590   0.319   2.130  0.9854 -0.0324 -1.9276
16959TIP3   OH272291   0.064   4.467  16.246  0.1693  0.2082 -0.4259
16959TIP3    H172292  -0.010   4.461  16.185 -2.2980 -0.6005  2.3681
16959TIP3    H272293   0.137   4.427  16.200 -1.3489  0.2321 -3.0462
16960TIP3   OH272294   1.524   6.039   3.548 -0.1990  0.0789 -0.0779
16960TIP3    H172295   1.476   5.971   3.499 -0.8688  0.3008  0.2536
16960TIP3    H272296   1.516   6.117   3.494  0.6893 -0.1319 -0.5253
16961TIP3   OH272297   0.107   0.970   4.913  0.0683 -0.1327  0.5191
16961TIP3    H172298   0.042   0.992   4.847  0.4871 -0.8206 -0.1482
16961TIP3    H272299   0.057   0.933   4.985 -0.2928 -0.6760  0.0045
16962TIP3   OH272300   4.112   2.078  14.262 -0.2747  0.0663 -0.1653
16962TIP3    H172301   4.135   2.110  14.350 -0.7359  2.1054 -0.7539
16962TIP3    H272302   4.095   1.985  14.276 -0.1909  0.2929  1.8878
16963TIP3   OH272303   6.115   1.675   2.824 -0.0915 -0.0666  0.2798
16963TIP3    H172304   6.131   1.756   2.873  0.7517  0.4486 -0.8035
16963TIP3    H272305   6.044   1.631   2.872 -0.2443  1.0849  1.1439
16964TIP3   OH272306   6.730   0.275  13.754  0.3331 -0.0784  0.3718
16964TIP3    H172307   6.823   0.256  13.763  0.6042  1.2191  0.5263
16964TIP3    H272308   6.708   0.250  13.665  1.0187  0.3198  0.0862
16965TIP3   OH272309   3.919   2.559  16.463 -0.0392 -0.0616  0.2169
16965TIP3    H172310   4.006   2.579  16.498  0.2148  0.0099 -0.4455
16965TIP3    H272311   3.878   2.644  16.452  0.1240 -0.0411 -0.2636
16966TIP3   OH272312   1.855   4.238   3.180  0.1458 -0.6514  0.1874
16966TIP3    H172313   1.857   4.200   3.092  0.7549  1.8465 -0.9774
16966TIP3    H272314   1.819   4.326   3.167  0.3101 -0.2041  2.4369
16967TIP3   OH272315   3.615   1.605   2.887 -0.1965 -0.1732  0.1565
16967TIP3    H172316   3.710   1.601   2.885  0.0835 -1.4804  4.4613
16967TIP3    H272317   3.594   1.698   2.879  1.5036  0.2263  0.0721
16968TIP3   OH272318   2.065   0.754  14.229  0.4387  0.3452  0.5891
16968TIP3    H172319   2.150   0.765  14.187 -0.0200  0.4576 -0.3503
16968TIP3    H272320   2.054   0.660  14.236  0.1978  0.2967 -0.2666
16969TIP3   OH272321   4.638   4.261  13.631 -0.3601 -0.1684  0.6690
16969TIP3    H172322   4.618   4.319  13.704  0.1879 -0.9439  1.4441
16969TIP3    H272323   4.731   4.274  13.615 -0.8712  1.7250 -1.4470
16970TIP3   OH272324   4.670   5.095  15.244  0.1329  0.3262  0.1378
16970TIP3    H172325   4.754   5.139  15.232 -0.6113  1.6299 -0.4281
16970TIP3    H272326   4.651   5.056  15.158  0.0578  0.2097  0.2073
16971TIP3   OH272327   1.486   4.973  15.162 -0.3426  0.2173  0.3035
16971TIP3    H172328   1.448   5.024  15.090 -0.8036  0.4346  0.6913
16971TIP3    H272329   1.532   4.901  15.120  2.0887  2.0494 -0.3970
16972TIP3   OH272330   3.308   1.984  12.545 -0.4161 -0.1224 -0.2492
16972TIP3    H172331   3.319   1.932  12.625 -0.7512 -0.0943 -0.1856
16972TIP3    H272332   3.314   1.919  12.474  0.8887 -0.0182 -0.2633
16973TIP3   OH272333   3.202   2.610  13.882 -0.1797 -0.1470 -0.1020
16973TIP3    H172334   3.194   2.573  13.970 -1.0109  0.0651 -0.0785
16973TIP3    H272335   3.296   2.614  13.866 -0.0144  0.0292  0.8692
16974TIP3   OH272336   6.029   2.693   1.911  0.3857  0.2823 -0.0479
16974TIP3    H172337   6.096   2.646   1.961 -0.3667  0.6613  1.3721
16974TIP3    H272338   6.016   2.640   1.832  1.4024 -0.4938  0.2912
16975TIP3   OH272339   6.687   3.373   3.533  0.1789 -0.7064 -0.5605
16975TIP3    H172340   6.764   3.379   3.477  0.4235  1.3455 -0.0860
16975TIP3    H272341   6.722   3.374   3.622 -0.3424  2.2138 -0.2637
16976TIP3   OH272342   5.657   5.779  15.794  0.5841 -0.3053  0.1610
16976TIP3    H172343   5.586   5.720  15.770 -0.7712  0.6933  1.5775
16976TIP3    H272344   5.721   5.723  15.838  0.5095 -1.1365 -0.7471
16977TIP3   OH272345   0.868   4.203  11.517 -0.4984  0.1832  0.9276
16977TIP3    H172346   0.851   4.297  11.520 -1.3787  0.0362  0.9149
16977TIP3    H272347   0.891   4.180  11.607 -1.2389  0.2504  1.1408
16978TIP3   OH272348   0.771   2.304   4.179  0.1914 -0.1542 -0.1119
16978TIP3    H172349   0.842   2.353   4.222 -0.1161 -0.2542  0.5124
16978TIP3    H272350   0.692   2.354   4.198  0.0350 -0.2671 -0.4596
16979TIP3   OH272351   1.139   4.143   5.569 -1.4447  0.0535  0.5079
16979TIP3    H172352   1.125   4.111   5.658 -0.2879 -0.5760  0.4833
16979TIP3    H272353   1.116   4.069   5.513  3.1377 -1.6779  0.5081
16980TIP3   OH272354   3.354   2.773  17.386  0.6092  0.0222  0.1069
16980TIP3    H172355   3.319   2.733  17.306  0.6569 -2.0091  1.0275
16980TIP3    H272356   3.295   2.846  17.405  0.2960  0.2205 -1.4720
16981TIP3   OH272357   4.504   0.620   1.294  0.2158  0.3140 -0.0290
16981TIP3    H172358   4.501   0.525   1.303  1.3886  0.2590 -0.0582
16981TIP3    H272359   4.502   0.635   1.200 -0.1985  0.3317 -0.0182
16982TIP3   OH272360   0.443   4.010  11.577  0.2539 -0.3997 -0.0368
16982TIP3    H172361   0.453   3.931  11.524  2.2057  1.1188 -2.1419
16982TIP3    H272362   0.458   4.082  11.515  0.4628  1.5648  2.1628
16983TIP3   OH272363   0.767   1.003   6.167 -0.3634  0.2501  0.7588
16983TIP3    H172364   0.698   1.054   6.124 -0.7539  0.9807  2.1968
16983TIP3    H272365   0.727   0.970   6.247  0.5501 -0.4956  0.9266
16984TIP3   OH272366   6.503   4.356   4.064 -0.1254  0.2020 -0.5835
16984TIP3    H172367   6.570   4.324   4.005  0.8798 -0.8581  1.0655
16984TIP3    H272368   6.516   4.451   4.066  2.0245 -0.0471  0.4323
16985TIP3   OH272369   3.604   2.988   0.538 -0.3920  0.5215  0.8126
16985TIP3    H172370   3.556   3.010   0.618  0.4739  0.7679  1.2770
16985TIP3    H272371   3.678   2.936   0.569  0.1923  0.9903  0.2253
16986TIP3   OH272372   6.198   4.008   2.704 -0.5694 -0.0080  0.6445
16986TIP3    H172373   6.244   3.936   2.749 -0.9279 -0.2494  0.6285
16986TIP3    H272374   6.227   4.087   2.749  0.0987 -0.1289  0.4394
16987TIP3   OH272375   6.357   6.544  14.891  0.1761 -0.0626 -0.1318
16987TIP3    H172376   6.267   6.514  14.907  0.3763 -0.3738  0.4161
16987TIP3    H272377   6.351   6.639  14.896 -0.1301 -0.0782 -0.1337
16988TIP3   OH272378   1.420   3.314  12.894 -0.0990 -0.1473 -0.4264
16988TIP3    H172379   1.487   3.360  12.945  0.4839 -0.5741 -0.7888
16988TIP3    H272380   1.406   3.232  12.942 -0.1628 -0.1797 -0.5007
16989TIP3   OH272381   6.005   4.035   4.795 -0.2191 -0.1683  0.0411
16989TIP3    H172382   5.997   4.129   4.808  0.7034 -0.2439  1.3305
16989TIP3    H272383   5.925   4.011   4.747 -0.6233  1.2044 -0.0178
16990TIP3   OH272384   3.445   2.093   4.483 -0.3089  0.4635 -0.8999
16990TIP3    H172385   3.479   2.151   4.552  0.1370  1.3304 -1.8265
16990TIP3    H272386   3.517   2.085   4.420 -0.6432 -0.4751 -1.1804
16991TIP3   OH272387   0.905   6.016   1.758  0.3302 -0.1858  0.6137
16991TIP3    H172388   0.973   6.075   1.724  0.0423  0.1182  0.5652
16991TIP3    H272389   0.826   6.069   1.762  0.2031 -0.4055  1.1335
16992TIP3   OH272390   6.091   6.563  16.958  0.2516  0.2980 -0.1586
16992TIP3    H172391   6.025   6.494  16.969 -1.4755  2.0809  1.4977
16992TIP3    H272392   6.154   6.548  17.028  0.5473 -0.2713 -0.5404
16993TIP3   OH272393   2.207   4.418   4.804 -0.0892  0.3163 -0.1754
16993TIP3    H172394   2.240   4.461   4.725  0.2859 -0.4911 -0.4738
16993TIP3    H272395   2.131   4.369   4.775 -0.2161  0.3740  0.0580
16994TIP3   OH272396   0.717   4.020  15.125 -0.0060  0.0922 -0.3291
16994TIP3    H172397   0.633   3.975  15.137 -0.5355  0.5227 -2.0705
16994TIP3    H272398   0.696   4.113  15.133  0.5862  0.1530  0.6352
16995TIP3   OH272399   4.295   6.359  15.636 -0.5296  0.4824  0.3456
16995TIP3    H172400   4.337   6.406  15.708 -0.1537  1.3104 -0.4026
16995TIP3    H272401   4.340   6.274  15.634 -1.5302 -0.1379  1.9983
16996TIP3   OH272402   4.639   5.398  13.636 -0.1092 -0.1183 -0.0743
16996TIP3    H172403   4.702   5.467  13.618 -0.5624  0.3156  0.0063
16996TIP3    H272404   4.629   5.398  13.731 -0.1723 -0.2397 -0.0799
16997TIP3   OH272405   4.681   1.421  13.048  0.4678 -0.0115  0.4430
16997TIP3    H172406   4.601   1.449  13.005 -0.2054 -0.7545  1.1687
16997TIP3    H272407   4.716   1.500  13.089  0.0058  0.2766  0.2764
16998TIP3   OH272408   0.995   5.328   0.517 -0.3310  0.1994  0.1422
16998TIP3    H172409   1.041   5.291   0.442  1.4455  1.6860  0.4008
16998TIP3    H272410   1.042   5.294   0.593  1.1733  2.5769  0.3897
16999TIP3   OH272411   0.035   4.929   1.129 -0.1866 -0.0450 -0.3794
16999TIP3    H172412  -0.015   4.974   1.197  0.0718 -0.9375  0.4226
16999TIP3    H272413   0.080   4.858   1.175 -0.4118 -0.9844 -1.5691
17000TIP3   OH272414   5.727   5.597  15.028  0.2663 -0.2610  0.1962
17000TIP3    H172415   5.796   5.551  14.980  0.7402 -1.3077  1.7948
17000TIP3    H272416   5.646   5.554  15.001  0.4164 -0.1381 -0.4544
17001TIP3   OH272417   5.824   4.414   4.986 -0.6168  0.0984  0.0872
17001TIP3    H172418   5.769   4.440   4.911 -2.0832  1.0926  1.4435
17001TIP3    H272419   5.773   4.347   5.031 -0.2163  0.2297  0.7516
17002TIP3   OH272420   1.672   6.392  14.610 -0.0428  0.0116  0.4818
17002TIP3    H172421   1.599   6.332  14.621 -0.2324  0.4905  2.1314
17002TIP3    H272422   1.749   6.342  14.637  0.0695 -0.0824 -0.0011
17003TIP3   OH272423   2.693   4.160  11.704  0.2439 -0.1385  0.5441
17003TIP3    H172424   2.673   4.130  11.616 -0.0574 -0.0975  0.5976
17003TIP3    H272425   2.776   4.118  11.726  0.6217  0.3172  0.0156
17004TIP3   OH272426   1.995   2.953   3.533 -0.5154 -0.2965 -0.3352
17004TIP3    H172427   1.957   2.979   3.617 -3.3233 -0.8942 -1.3137
17004TIP3    H272428   1.946   2.875   3.507  2.5122 -2.1454 -1.0645
17005TIP3   OH272429   4.302   0.542  14.916 -0.1828  0.4416  0.2738
17005TIP3    H172430   4.318   0.629  14.879 -0.1045 -0.4163 -1.8687
17005TIP3    H272431   4.389   0.510  14.939 -0.0104  0.2954 -0.5300
17006TIP3   OH272432   6.532   4.092  11.865 -0.2107 -0.0422 -0.1340
17006TIP3    H172433   6.462   4.157  11.872  1.2137  1.3929  2.4166
17006TIP3    H272434   6.539   4.074  11.771 -2.9033  0.9325 -0.6075
17007TIP3   OH272435   2.211   6.564   4.901  0.3812 -0.2818  0.0364
17007TIP3    H172436   2.194   6.578   4.808 -2.1580  1.3461  0.6344
17007TIP3    H272437   2.192   6.472   4.915 -1.8514  0.0296 -0.6210
17008TIP3   OH272438   5.377   2.598  14.667  0.4791 -0.3260 -0.0268
17008TIP3    H172439   5.405   2.532  14.604  0.7439 -0.2133 -0.0298
17008TIP3    H272440   5.290   2.570  14.696  1.0548 -1.2870  0.8287
17009TIP3   OH272441   3.717   4.530  14.218 -0.1762  0.2102  0.4955
17009TIP3    H172442   3.770   4.609  14.205 -0.3881  0.4532  1.0551
17009TIP3    H272443   3.744   4.471  14.148  1.2164  0.1169  1.0803
17010TIP3   OH272444   2.674   0.300  13.224  0.1417  0.6641  0.1692
17010TIP3    H172445   2.655   0.278  13.315  2.1759 -0.0337  0.4694
17010TIP3    H272446   2.617   0.375  13.206 -0.2996  0.8320  2.0102
17011TIP3   OH272447   5.733   1.930   6.245  0.2260 -0.8009 -0.2747
17011TIP3    H172448   5.806   1.888   6.198 -1.2922 -2.7767 -1.0466
17011TIP3    H272449   5.702   1.862   6.305 -0.4914  0.2664  0.5787
17012TIP3   OH272450   0.687   0.521  11.788  0.5286  0.0083 -0.2245
17012TIP3    H172451   0.636   0.514  11.869 -1.0183 -1.2454 -1.2532
17012TIP3    H272452   0.690   0.615  11.770 -0.1849  0.2054  0.6084
17013TIP3   OH272453   0.518   1.195  17.140 -0.0294 -0.2475  0.0482
17013TIP3    H172454   0.524   1.281  17.099  1.3566 -0.1871  0.3283
17013TIP3    H272455   0.498   1.213  17.232 -2.3810 -0.3571 -0.3725
17014TIP3   OH272456   6.730   1.894  15.858 -0.2772 -0.0894 -0.2930
17014TIP3    H172457   6.763   1.984  15.867  1.7566 -0.6534 -1.3890
17014TIP3    H272458   6.783   1.857  15.787 -1.3427 -2.0441 -0.1243
17015TIP3   OH272459   4.265   3.127   1.420 -0.1094  0.0129 -0.0996
17015TIP3    H172460   4.185   3.170   1.451 -0.1704 -1.0814  1.3531
17015TIP3    H272461   4.336   3.175   1.461 -0.1283 -0.4886  0.5303
17016TIP3   OH272462   1.439   6.219   3.190  0.0893  0.3810 -0.3402
17016TIP3    H172463   1.467   6.243   3.279 -1.9268  0.6602  0.2772
17016TIP3    H272464   1.512   6.170   3.154  0.8308 -0.0314  1.6077
17017TIP3   OH272465   0.811   3.239   3.956 -0.4986  0.4234  0.5618
17017TIP3    H172466   0.819   3.301   3.883  1.1569  0.0958  0.4314
17017TIP3    H272467   0.757   3.168   3.922  3.1886 -1.6182 -1.8059
17018TIP3   OH272468   4.436   5.612  14.448  0.1990  0.1264 -0.2979
17018TIP3    H172469   4.457   5.654  14.532 -0.5098 -0.6646  0.2981
17018TIP3    H272470   4.340   5.615  14.444  0.0581 -2.0309  0.1211
17019TIP3   OH272471   3.455   6.155  13.222  0.1788 -0.4739 -0.0856
17019TIP3    H172472   3.416   6.131  13.306 -0.7220 -0.7456 -0.5591
17019TIP3    H272473   3.388   6.208  13.179  1.1188  0.7076 -0.1368
17020TIP3   OH272474   3.416   1.302  12.930 -0.4345  0.1088 -0.8695
17020TIP3    H172475   3.355   1.250  12.878 -0.8580 -0.3261  0.0321
17020TIP3    H272476   3.453   1.365  12.868  0.7936 -1.8226 -2.2155
17021TIP3   OH272477   5.854   4.374  15.287  0.1853  0.0271  0.3647
17021TIP3    H172478   5.870   4.355  15.194  0.0929 -5.3237  1.1448
17021TIP3    H272479   5.939   4.405  15.320  1.4220 -1.9223 -0.7880
17022TIP3   OH272480   1.551   3.221  15.354 -0.0927 -0.2788  0.2232
17022TIP3    H172481   1.617   3.179  15.408 -2.4411 -2.4049  1.6772
17022TIP3    H272482   1.578   3.313  15.350  1.3352 -0.4444  3.2665
17023TIP3   OH272483   3.058   5.986   5.014  0.3828  0.3668  0.2394
17023TIP3    H172484   3.077   5.902   4.972 -0.5620  0.1923  0.1416
17023TIP3    H272485   2.974   6.013   4.977 -0.0656  0.6150  1.3974
17024TIP3   OH272486   0.151   1.449  16.324 -0.1158 -0.0914  0.2638
17024TIP3    H172487   0.097   1.492  16.258 -0.1905 -0.8313 -0.1657
17024TIP3    H272488   0.120   1.359  16.325 -0.6322  0.0812  1.8591
17025TIP3   OH272489   5.155   1.531  15.503  0.6008  0.1553 -0.0366
17025TIP3    H172490   5.238   1.541  15.548  0.8871 -0.1903 -0.4797
17025TIP3    H272491   5.139   1.616  15.463 -0.4871  1.0077  2.0766
17026TIP3   OH272492   1.902   2.137   2.877  0.6999 -0.0816 -0.4496
17026TIP3    H172493   1.836   2.168   2.814 -0.3454 -0.3179  0.4992
17026TIP3    H272494   1.862   2.151   2.963  2.1145  0.2564  0.1818
17027TIP3   OH272495   5.991   1.236  16.650  0.5098  0.3710  0.3769
17027TIP3    H172496   6.001   1.141  16.641 -1.2365  0.0731  1.2555
17027TIP3    H272497   6.034   1.258  16.732 -0.9983 -0.0417  1.3167
17028TIP3   OH272498   4.576   3.276   4.270 -0.1409  0.1804  0.0917
17028TIP3    H172499   4.499   3.273   4.326 -0.2178 -3.3566  0.0099
17028TIP3    H272500   4.544   3.252   4.183  1.1263 -3.4502  0.4376
17029TIP3   OH272501   2.613   2.794   3.705 -0.3897 -0.4605  0.5734
17029TIP3    H172502   2.638   2.848   3.780  0.9983 -1.1565  0.6264
17029TIP3    H272503   2.671   2.719   3.708  2.8581  1.4445 -3.5998
17030TIP3   OH272504   1.436   6.658   0.343 -0.2391  0.0134 -0.2033
17030TIP3    H172505   1.438   6.562   0.339 -0.5345 -0.0307  0.5262
17030TIP3    H272506   1.455   6.678   0.435  0.9092  0.6923 -0.5676
17031TIP3   OH272507   0.115   4.616  16.469 -0.2091 -0.1975  0.2652
17031TIP3    H172508   0.164   4.556  16.525 -0.6917  0.1190  1.0472
17031TIP3    H272509   0.084   4.561  16.397  2.1693 -0.1972 -0.8576
17032TIP3   OH272510   0.847   2.545   5.565 -0.0702  0.2421  0.2481
17032TIP3    H172511   0.824   2.567   5.655 -1.7668 -0.4553  0.0172
17032TIP3    H272512   0.786   2.476   5.540  0.6170  0.1476 -1.3235
17033TIP3   OH272513   4.925   2.022   0.376 -0.0144  0.3936 -0.7083
17033TIP3    H172514   4.997   2.043   0.434 -0.0593  0.9807 -0.8651
17033TIP3    H272515   4.940   2.074   0.297  0.2039 -0.6054 -1.3524
17034TIP3   OH272516   6.452   5.900  14.203 -0.3505  0.2157  0.3875
17034TIP3    H172517   6.467   5.826  14.145 -1.3041  0.0254  0.3793
17034TIP3    H272518   6.530   5.955  14.191  0.3030 -0.7029  0.2930
17035TIP3   OH272519   4.589   4.519  15.293 -0.0390  0.0309 -0.3494
17035TIP3    H172520   4.669   4.570  15.281 -0.0627  0.6077  1.5033
17035TIP3    H272521   4.529   4.580  15.336  0.0660 -1.5684  2.3170
17036TIP3   OH272522   0.321   4.282  11.984 -0.5379 -0.2545  0.2720
17036TIP3    H172523   0.259   4.270  11.912  0.8525 -1.2341 -0.8208
17036TIP3    H272524   0.337   4.193  12.017 -1.4325  0.2058  2.0863
17037TIP3   OH272525   1.029   6.105   1.346  0.6284 -0.4088  0.2354
17037TIP3    H172526   1.078   6.182   1.376  1.9846 -0.7685 -0.9506
17037TIP3    H272527   0.955   6.099   1.406  1.2915  0.9675  1.2457
17038TIP3   OH272528   5.320   5.383   0.082  0.0627  0.2127 -0.3303
17038TIP3    H172529   5.352   5.472   0.094  0.8149 -0.1784  0.6872
17038TIP3    H272530   5.250   5.392   0.017  0.6965  1.4085 -0.8917
17039TIP3   OH272531   3.644   1.360  15.875 -0.0018  0.3203  0.4256
17039TIP3    H172532   3.689   1.283  15.908 -1.0139 -0.8764 -0.8451
17039TIP3    H272533   3.714   1.418  15.845  0.7433 -0.5629  0.4357
17040TIP3   OH272534   0.507   1.841  10.594  0.5431 -0.2618  0.5203
17040TIP3    H172535   0.505   1.805  10.505 -0.7314  0.7187  0.1229
17040TIP3    H272536   0.504   1.765  10.651  0.3344 -0.8748 -0.2940
17041TIP3   OH272537   0.222   0.346  12.169 -0.3377 -0.0884 -0.4336
17041TIP3    H172538   0.255   0.314  12.253  0.4648  2.6419  0.3592
17041TIP3    H272539   0.266   0.291  12.104  0.3409 -1.1279  0.8540
17042TIP3   OH272540   2.995   4.927  15.440 -0.3167 -0.5337  0.2134
17042TIP3    H172541   2.954   5.011  15.421  1.7782  0.9239  1.7909
17042TIP3    H272542   3.030   4.899  15.356  1.8500  1.8698  0.2001
17043TIP3   OH272543   6.412   0.899   5.195 -0.1257 -0.4904  0.0024
17043TIP3    H172544   6.448   0.851   5.270  1.3018  2.2071  1.1779
17043TIP3    H272545   6.321   0.868   5.189 -0.7833  0.1292  3.8210
17044TIP3   OH272546   3.645   4.642   0.983 -0.3676 -0.0371 -0.0925
17044TIP3    H172547   3.717   4.607   1.035 -0.8898 -0.5758  0.2788
17044TIP3    H272548   3.613   4.717   1.033 -0.9531 -0.6338  0.4328
17045TIP3   OH272549   4.201   5.311   0.341 -0.0793 -0.2593 -0.4767
17045TIP3    H172550   4.295   5.298   0.326 -0.3311 -2.1217 -0.6840
17045TIP3    H272551   4.189   5.296   0.435 -0.0089  1.2984 -0.1885
17046TIP3   OH272552   2.910   6.231   0.219 -0.1728  0.0498 -0.1761
17046TIP3    H172553   2.958   6.231   0.302  1.6602  1.1991 -1.1510
17046TIP3    H272554   2.931   6.147   0.179 -1.5339 -0.7561  0.7393
17047TIP3   OH272555   4.606   1.131   5.538  0.2531 -0.2108 -0.4262
17047TIP3    H172556   4.670   1.121   5.609  1.0416  0.2794 -1.0486
17047TIP3    H272557   4.660   1.135   5.459 -0.5050  1.0011 -0.8983
17048TIP3   OH272558   5.177   2.013  12.979  0.0387  0.6351  0.1975
17048TIP3    H172559   5.187   2.069  12.901  2.7680  1.1300  0.7846
17048TIP3    H272560   5.238   1.941  12.964 -2.0086 -1.2324  0.3540
17049TIP3   OH272561   1.229   2.678  13.797  0.6016 -0.4376  0.3676
17049TIP3    H172562   1.284   2.740  13.749  0.5518 -0.8925 -0.2865
17049TIP3    H272563   1.161   2.732  13.837 -0.5890 -0.2469 -1.7870
17050TIP3   OH272564   3.120   2.333   2.602  0.0714 -0.0653 -0.3184
17050TIP3    H172565   3.135   2.400   2.535 -0.8815  0.2098 -0.2751
17050TIP3    H272566   3.036   2.294   2.577 -0.7579  0.6433  1.1986
17051TIP3   OH272567   4.884   0.528   2.667  0.3093  0.3611  0.6366
17051TIP3    H172568   4.828   0.450   2.668  0.5096  0.2051 -0.1001
17051TIP3    H272569   4.953   0.508   2.730  0.1087  0.1308  0.7873
17052TIP3   OH272570   5.845   6.692   2.107  0.3246  0.8166 -0.3857
17052TIP3    H172571   5.925   6.661   2.065 -1.1300  0.0465 -2.7686
17052TIP3    H272572   5.823   6.624   2.170  2.6720  2.1073  2.0458
17053TIP3   OH272573   4.342   4.579  15.148  0.1980  1.0384 -0.4928
17053TIP3    H172574   4.345   4.653  15.209 -1.1000  0.9265 -0.2637
17053TIP3    H272575   4.291   4.612  15.074  0.7502  0.7869 -0.9872
17054TIP3   OH272576   6.480   2.698  15.341 -0.8554  0.3887 -0.8621
17054TIP3    H172577   6.528   2.706  15.259 -0.2587 -1.0319 -0.6865
17054TIP3    H272578   6.501   2.778  15.390  1.8251 -0.3907 -0.5681
17055TIP3   OH272579   2.090   1.875  16.528  0.1352  0.1346  0.2781
17055TIP3    H172580   2.152   1.811  16.493 -0.4011 -0.2755  0.0559
17055TIP3    H272581   2.006   1.849  16.491  0.0999  1.8036 -0.9559
17056TIP3   OH272582   5.959   2.447  14.197  0.4369 -0.5769 -0.6695
17056TIP3    H172583   5.998   2.533  14.179 -1.5476  0.3396 -0.9577
17056TIP3    H272584   5.957   2.403  14.112  0.2160 -0.3291 -0.7969
17057TIP3   OH272585   3.935   5.272  15.186  0.0703 -0.0718 -0.1336
17057TIP3    H172586   3.879   5.313  15.252  0.8522 -0.6010  0.8968
17057TIP3    H272587   3.897   5.186  15.172  0.4068 -0.2989  0.3075
17058TIP3   OH272588   3.570   2.417  13.189 -0.0074 -0.0784  0.4992
17058TIP3    H172589   3.563   2.507  13.221  1.8334 -0.7397  3.0584
17058TIP3    H272590   3.563   2.363  13.267  2.7730 -1.9469 -0.4046
17059TIP3   OH272591   3.811   2.330  12.539  0.1012  0.3668  0.1527
17059TIP3    H172592   3.810   2.234  12.543  0.4120  0.3885  1.0289
17059TIP3    H272593   3.903   2.353  12.543 -0.0302  0.7522  2.2795
17060TIP3   OH272594   5.575   0.856   2.998  0.0573  0.1144  0.4166
17060TIP3    H172595   5.664   0.823   3.013  0.1999 -1.3539 -2.8003
17060TIP3    H272596   5.519   0.801   3.052  0.9216 -0.3334  0.8760
17061TIP3   OH272597   4.365   0.650   1.770 -0.1740  0.0136  0.2957
17061TIP3    H172598   4.434   0.648   1.704  0.1464 -1.1562  0.6429
17061TIP3    H272599   4.291   0.605   1.729  0.0611 -0.8099  0.7529
17062TIP3   OH272600   4.686   1.124   4.296  0.7838 -0.6289  0.0635
17062TIP3    H172601   4.595   1.101   4.280  1.0290 -2.2408  0.7912
17062TIP3    H272602   4.736   1.059   4.245  1.5269  0.2751 -0.3882
17063TIP3   OH272603   0.734   6.461   4.406 -0.6262  0.9801  0.2940
17063TIP3    H172604   0.753   6.469   4.312 -0.1362  0.5486  0.3515
17063TIP3    H272605   0.751   6.549   4.441 -2.2239  1.5389 -0.2491
17064TIP3   OH272606   2.780   0.643   5.531 -0.5031 -1.2371  0.3435
17064TIP3    H172607   2.874   0.627   5.540 -0.1851  0.3449  0.0426
17064TIP3    H272608   2.739   0.561   5.558  0.8822 -1.2590  2.6219
17065TIP3   OH272609   1.480   1.714  12.982 -0.1117  0.3166 -0.1619
17065TIP3    H172610   1.506   1.674  12.899 -1.9985  1.9556 -1.6205
17065TIP3    H272611   1.446   1.800  12.958 -0.1094  1.0984  2.3978
17066TIP3   OH272612   0.908   4.510   2.022  0.1563  0.1245  0.1498
17066TIP3    H172613   0.898   4.605   2.010  1.0835  0.1322 -0.6354
17066TIP3    H272614   0.944   4.501   2.110  1.1967  0.5921 -0.2122
17067TIP3   OH272615   0.264   3.165  12.148 -0.4663  0.2785  0.2768
17067TIP3    H172616   0.339   3.118  12.111 -0.0721  1.6914 -0.7887
17067TIP3    H272617   0.240   3.114  12.226  1.8998  0.0472  0.9354
17068TIP3   OH272618   4.647   1.424  14.209  0.1098  0.6388 -0.1210
17068TIP3    H172619   4.675   1.359  14.273 -1.8453  0.3856  0.5328
17068TIP3    H272620   4.715   1.492  14.213  1.5829 -0.7753  0.0098
17069TIP3   OH272621   6.389   6.425  14.408  0.0719 -0.3161  0.6902
17069TIP3    H172622   6.305   6.413  14.452 -0.3095  1.3948  0.5242
17069TIP3    H272623   6.392   6.519  14.388  0.8043 -0.7717 -1.7335
17070TIP3   OH272624   3.023   0.005  13.364 -0.4362  0.5841  0.5725
17070TIP3    H172625   3.057  -0.082  13.341  1.9936  1.4902  0.4363
17070TIP3    H272626   2.954   0.021  13.300  1.8213  0.3606 -2.1561
17071TIP3   OH272627   0.580   3.652   1.503 -0.4382  0.5426 -0.2310
17071TIP3    H172628   0.609   3.726   1.557 -1.0298  0.7089 -0.1326
17071TIP3    H272629   0.623   3.576   1.542  1.8665  1.0528 -1.5775
17072TIP3   OH272630   5.130   5.106  15.289  0.3578  0.7874  0.2772
17072TIP3    H172631   5.196   5.094  15.357 -0.9610 -1.3114  1.2915
17072TIP3    H272632   5.134   5.025  15.238 -1.2055  0.7350  0.1892
17073TIP3   OH272633   6.611   4.343   1.821 -0.4499 -0.3261 -0.3589
17073TIP3    H172634   6.559   4.365   1.744 -1.6254 -1.6731 -0.0040
17073TIP3    H272635   6.609   4.248   1.825  0.0292 -0.3054  1.0466
17074TIP3   OH272636   1.162   1.824   4.875  0.3209 -0.3125 -0.0735
17074TIP3    H172637   1.090   1.847   4.933  0.9995 -0.2828  0.7837
17074TIP3    H272638   1.217   1.766   4.928  0.3408 -1.2492 -1.0884
17075TIP3   OH272639   2.455   6.223   0.531  0.0217  0.0668  0.0054
17075TIP3    H172640   2.412   6.298   0.489  0.2376  0.6432  0.7734
17075TIP3    H272641   2.529   6.261   0.578 -0.5972 -0.4297  1.4533
17076TIP3   OH272642   5.037   6.257   0.443  0.8369 -0.2314  0.8459
17076TIP3    H172643   5.025   6.322   0.374  1.6483 -1.0033 -0.0389
17076TIP3    H272644   5.073   6.306   0.517  1.6883  0.2898  0.1001
17077TIP3   OH272645   2.666   5.089   5.515 -0.0734 -0.1816  0.0167
17077TIP3    H172646   2.748   5.118   5.554 -0.0149  0.9116 -0.8659
17077TIP3    H272647   2.674   4.993   5.509  0.1822 -0.3126  1.9949
17078TIP3   OH272648   2.396   3.756   1.861  0.6144  0.0588  0.4940
17078TIP3    H172649   2.453   3.734   1.787  2.7642  2.4264  1.3123
17078TIP3    H272650   2.447   3.733   1.938 -0.3211  0.4900  1.2591
17079TIP3   OH272651   2.079   2.930  11.809  0.3951 -0.4100  0.0510
17079TIP3    H172652   2.096   2.935  11.903 -0.8726 -0.6255  0.3155
17079TIP3    H272653   1.986   2.908  11.803  0.2015  0.6241 -1.2540
17080TIP3   OH272654   0.377   2.420  15.944  0.0341 -0.2003  0.0860
17080TIP3    H172655   0.466   2.387  15.951  0.3198  0.5517  0.0799
17080TIP3    H272656   0.330   2.376  16.015  0.6827  0.2568  0.8062
17081TIP3   OH272657   2.459   4.840   5.007  0.1060  0.1173  0.9152
17081TIP3    H172658   2.460   4.882   5.093 -0.0335 -0.3221  1.1404
17081TIP3    H272659   2.412   4.901   4.950 -0.8425 -0.0961  1.4379
17082TIP3   OH272660   5.209   0.285  13.574 -0.0773 -0.1306  0.4921
17082TIP3    H172661   5.200   0.279  13.479 -1.3152 -1.3273  0.6545
17082TIP3    H272662   5.301   0.268  13.591  0.0425 -0.4435 -0.4601
17083TIP3   OH272663   1.851   4.543  14.517 -0.1508 -0.0049  0.2029
17083TIP3    H172664   1.772   4.596  14.524 -0.1264 -0.1006  1.2871
17083TIP3    H272665   1.821   4.453  14.527 -0.0751 -0.1567 -0.7864
17084TIP3   OH272666   2.471   2.664  12.022 -0.1766 -0.1643 -0.0898
17084TIP3    H172667   2.538   2.706  11.969 -0.6397  0.0939 -0.4828
17084TIP3    H272668   2.395   2.722  12.015  0.5753  1.4639  3.1628
17085TIP3   OH272669   1.884   3.358  14.355  0.0112  0.2920 -0.5695
17085TIP3    H172670   1.833   3.425  14.401 -1.9058 -0.6915 -1.1675
17085TIP3    H272671   1.936   3.317  14.424  0.1542  1.4447  0.0355
17086TIP3   OH272672   5.899   3.441  13.418  0.0818  0.0610  0.1057
17086TIP3    H172673   5.890   3.471  13.508 -0.0535  1.5205 -0.3572
17086TIP3    H272674   5.981   3.393  13.416 -0.9679 -1.9367  1.4693
17087TIP3   OH272675   3.661   0.183  16.716  0.3647 -0.5482 -0.2722
17087TIP3    H172676   3.603   0.121  16.671  0.1325 -0.5763  0.0671
17087TIP3    H272677   3.643   0.267  16.674  0.0194 -0.5412 -0.1136
17088TIP3   OH272678   3.860   2.228  10.671  0.5315 -0.2343  0.3870
17088TIP3    H172679   3.783   2.285  10.681  0.6278 -0.2277  1.0840
17088TIP3    H272680   3.824   2.143  10.648  0.3751  0.0436 -0.4638
17089TIP3   OH272681   2.286   4.962   4.378  0.1507 -0.0079 -0.0262
17089TIP3    H172682   2.248   4.908   4.447  0.0115  0.9351  0.6588
17089TIP3    H272683   2.379   4.966   4.398 -0.0700  1.3053  0.8770
17090TIP3   OH272684   2.330   5.519   0.353 -0.3639  0.0849  0.6044
17090TIP3    H172685   2.326   5.575   0.430  1.4216 -1.1124  1.6376
17090TIP3    H272686   2.372   5.438   0.384  1.4383 -0.0237 -1.8454
17091TIP3   OH272687   4.704   6.281   5.246  0.3861 -0.4183  0.0937
17091TIP3    H172688   4.734   6.278   5.337 -0.6803 -2.2349  0.4527
17091TIP3    H272689   4.638   6.211   5.241 -0.9456  0.8777 -1.5957
17092TIP3   OH272690   0.349   6.092  11.667 -0.5676  0.0555 -0.1455
17092TIP3    H172691   0.335   6.006  11.628 -1.7640 -0.0530  0.4711
17092TIP3    H272692   0.327   6.080  11.759  0.8054  0.6525  0.2853
17093TIP3   OH272693   5.318   2.768   3.517 -0.5074 -0.4704  0.0464
17093TIP3    H172694   5.283   2.844   3.470  0.2111 -0.2952 -0.2135
17093TIP3    H272695   5.278   2.773   3.604  1.3763  1.6101  0.8945
17094TIP3   OH272696   4.130   5.722  13.473 -0.0482 -0.3703 -0.0806
17094TIP3    H172697   4.183   5.784  13.422  0.5138  0.3104  1.2712
17094TIP3    H272698   4.121   5.646  13.417 -1.9053  1.3929 -2.3633
17095TIP3   OH272699   0.294   0.629   2.113  0.2289 -0.3090  0.6712
17095TIP3    H172700   0.302   0.700   2.176  0.4422  0.1257  0.1542
17095TIP3    H272701   0.240   0.563   2.158 -0.4334  0.4070  0.9481
17096TIP3   OH272702   3.968   0.906  16.273  0.3983 -0.3287  0.3181
17096TIP3    H172703   3.970   0.833  16.335 -2.3588 -0.8569 -0.0763
17096TIP3    H272704   3.876   0.933  16.271  1.1827  2.7142 -0.1024
17097TIP3   OH272705   3.146   0.425   2.108  0.4020  0.8567  0.3526
17097TIP3    H172706   3.220   0.454   2.054 -1.2664  0.5827 -2.2889
17097TIP3    H272707   3.137   0.332   2.088  0.6959  0.3347  2.4368
17098TIP3   OH272708   0.631   1.566   3.882  0.1900 -0.0410 -0.1441
17098TIP3    H172709   0.666   1.557   3.793 -3.1496 -0.5315 -1.5672
17098TIP3    H272710   0.647   1.481   3.922 -0.7235 -0.8146 -1.3308
17099TIP3   OH272711   3.881   6.203   5.565 -0.2514 -0.8900  0.4439
17099TIP3    H172712   3.948   6.271   5.561 -0.9763 -0.2330 -0.9431
17099TIP3    H272713   3.863   6.181   5.474 -1.3734 -1.6195  0.8185
17100TIP3   OH272714   6.508   6.425  14.686 -0.7706  0.1662 -0.0834
17100TIP3    H172715   6.450   6.450  14.614 -0.8551 -0.5113 -0.2550
17100TIP3    H272716   6.474   6.473  14.762 -1.1683  0.2635 -0.3222
17101TIP3   OH272717   1.488   3.349  17.162 -0.5535 -0.3464  0.2347
17101TIP3    H172718   1.454   3.306  17.083 -0.2328  0.8483 -0.5776
17101TIP3    H272719   1.574   3.309  17.176 -0.2836 -0.0371 -0.4802
17102TIP3   OH272720   1.212   5.980  15.599 -0.4888 -0.6955  0.3994
17102TIP3    H172721   1.294   5.974  15.550 -0.9881  1.5897 -0.8708
17102TIP3    H272722   1.236   5.963  15.690  1.1786 -1.2270 -0.1168
17103TIP3   OH272723   4.226   4.381  11.618  0.1650 -0.0602 -0.5002
17103TIP3    H172724   4.168   4.327  11.565  0.9582  0.6674 -2.1659
17103TIP3    H272725   4.246   4.326  11.694 -2.4055 -0.4349 -0.0044
17104TIP3   OH272726   3.453   4.880  15.230 -0.2650  0.6320  0.5163
17104TIP3    H172727   3.467   4.788  15.208 -0.8207  0.8965 -1.0033
17104TIP3    H272728   3.457   4.882  15.326  1.3260 -0.7070  0.5235
17105TIP3   OH272729   2.260   2.471  17.266 -0.7477 -0.0049  0.6879
17105TIP3    H172730   2.347   2.434  17.255 -1.6195 -1.6725 -1.1475
17105TIP3    H272731   2.241   2.462  17.360 -0.8241 -4.2284  0.4256
17106TIP3   OH272732   0.912   2.907   1.373  0.3678 -0.7723  0.7058
17106TIP3    H172733   0.916   2.908   1.277 -0.5533 -1.1811  0.6530
17106TIP3    H272734   1.001   2.890   1.401  0.5593 -1.1132 -0.0944
17107TIP3   OH272735   4.605   0.178   3.763  0.1341  0.0134 -0.0417
17107TIP3    H172736   4.562   0.192   3.678  0.6854 -1.2259 -0.5452
17107TIP3    H272737   4.608   0.083   3.772  1.5030  0.1109  0.6429
17108TIP3   OH272738   6.321   0.570  16.651 -0.4829  0.2095  0.2676
17108TIP3    H172739   6.319   0.542  16.560 -0.6352 -0.1941  0.3919
17108TIP3    H272740   6.244   0.626  16.660 -1.0711 -0.5899  0.4042
17109TIP3   OH272741   3.267   5.499   5.920 -0.1388  0.0815  0.3148
17109TIP3    H172742   3.260   5.405   5.937  2.3110 -0.4064 -0.8410
17109TIP3    H272743   3.279   5.538   6.006  0.2240 -0.8568  0.7052
17110TIP3   OH272744   0.783   2.342  12.341  0.4548  0.1793 -0.1023
17110TIP3    H172745   0.743   2.368  12.258  0.9130  0.0886 -0.3558
17110TIP3    H272746   0.771   2.418  12.398 -0.1214  0.1342 -0.1538
17111TIP3   OH272747   0.343   5.838  12.567  0.2267  0.2744  0.3163
17111TIP3    H172748   0.409   5.882  12.513  0.0202 -0.0412 -0.2024
17111TIP3    H272749   0.392   5.802  12.641  0.4866  0.8664  0.4394
17112TIP3   OH272750   3.519   2.837   5.109  0.4955 -0.3415 -0.2718
17112TIP3    H172751   3.496   2.864   5.197 -0.1136 -1.0090 -0.2134
17112TIP3    H272752   3.527   2.918   5.059  0.8784  0.0388  0.3992
17113TIP3   OH272753   3.666   1.503   3.213 -0.6201  0.0368  0.5946
17113TIP3    H172754   3.737   1.568   3.210  0.1039 -0.7742 -0.7553
17113TIP3    H272755   3.642   1.489   3.122 -2.9784  0.7055  1.0418
17114TIP3   OH272756   5.115   3.100  16.600  0.2986 -0.2225 -0.1360
17114TIP3    H172757   5.048   3.047  16.643  0.3378 -1.5685 -1.6453
17114TIP3    H272758   5.068   3.150  16.534  0.6900 -0.8335 -0.8942
17115TIP3   OH272759   1.809   2.768  14.364 -0.1851  0.0319 -0.2805
17115TIP3    H172760   1.808   2.679  14.330  0.3295  0.2082 -0.7690
17115TIP3    H272761   1.769   2.761  14.451  0.6131 -0.8237  0.0349
17116TIP3   OH272762   6.499   6.739  11.924 -0.2788  0.8683  0.5245
17116TIP3    H172763   6.576   6.785  11.956  1.5118 -3.3474  3.1298
17116TIP3    H272764   6.530   6.689  11.849 -0.9647  0.4682  0.5002
17117TIP3   OH272765   4.378   4.541  14.443  0.0964 -0.0013 -0.2987
17117TIP3    H172766   4.309   4.607  14.445 -0.0226 -0.0095 -2.2845
17117TIP3    H272767   4.457   4.590  14.419  0.2754 -0.3868 -0.4980
17118TIP3   OH272768   4.301   1.478   2.315  0.0050 -0.3212 -0.3641
17118TIP3    H172769   4.390   1.451   2.292 -0.4891 -2.6679  0.1710
17118TIP3    H272770   4.298   1.470   2.411 -1.3351 -2.3194 -0.5243
17119TIP3   OH272771   5.550   6.095  16.784  0.1958 -0.0279 -0.2933
17119TIP3    H172772   5.511   6.019  16.828  1.1573 -0.6897 -0.5586
17119TIP3    H272773   5.536   6.078  16.691  1.7195 -0.6457 -0.4421
17120TIP3   OH272774   4.257   2.084   4.607 -0.0499  0.3147 -0.2518
17120TIP3    H172775   4.243   2.072   4.513 -0.8070 -0.0880 -0.0967
17120TIP3    H272776   4.170   2.072   4.645  0.0241  1.6126  0.3868
17121TIP3   OH272777   0.124   2.806   0.893 -0.3526 -0.2334  0.3913
17121TIP3    H172778   0.104   2.738   0.828  1.0905  1.0888 -1.5315
17121TIP3    H272779   0.191   2.766   0.949  0.8547 -0.2786 -1.0330
17122TIP3   OH272780   2.351   1.513  16.784 -0.0703 -0.3901 -0.5013
17122TIP3    H172781   2.427   1.476  16.739 -0.4070 -1.3065 -0.3409
17122TIP3    H272782   2.379   1.523  16.875 -0.3845 -1.4717 -0.2759
17123TIP3   OH272783   0.646   6.540   5.251  0.1730  0.5145 -0.7271
17123TIP3    H172784   0.695   6.469   5.210 -0.1329  0.5697 -1.1916
17123TIP3    H272785   0.713   6.599   5.286  0.4313  0.2482 -0.7734
17124TIP3   OH272786   5.210   6.311  16.341  0.5136 -0.0032 -0.4188
17124TIP3    H172787   5.280   6.280  16.284  1.3669 -1.5001  1.3321
17124TIP3    H272788   5.253   6.374  16.399  0.2727 -0.4528  0.2547
17125TIP3   OH272789   4.660   0.024  16.623 -0.0238  0.7151 -0.5191
17125TIP3    H172790   4.583  -0.030  16.636 -0.0069  0.8290  0.0763
17125TIP3    H272791   4.630   0.113  16.644  0.6610  0.5544  1.2740
17126TIP3   OH272792   2.392   1.003   3.188 -0.3173  0.0413  0.5906
17126TIP3    H172793   2.328   1.010   3.118  0.7817  2.3598 -0.2805
17126TIP3    H272794   2.398   1.091   3.225  1.7042 -0.2985  1.2315
17127TIP3   OH272795   1.117   4.285  11.549 -0.0243 -0.5737  0.5838
17127TIP3    H172796   1.065   4.363  11.565  0.5111 -0.4503  1.7948
17127TIP3    H272797   1.089   4.255  11.462 -1.7952 -0.2706  1.0091
17128TIP3   OH272798   0.548   3.142   5.434 -0.0726  0.0396 -0.3927
17128TIP3    H172799   0.456   3.118   5.447 -0.1254  0.5966  0.3488
17128TIP3    H272800   0.559   3.223   5.483  0.9928 -0.3999  0.1359
17129TIP3   OH272801   1.195   6.060  11.428 -0.0001 -0.1661  0.4404
17129TIP3    H172802   1.128   5.999  11.460  0.8396 -2.3196 -1.5511
17129TIP3    H272803   1.148   6.142  11.415 -2.4105 -1.6109 -1.0380
17130TIP3   OH272804   1.470   0.632  13.474 -0.0783 -0.6118  0.0371
17130TIP3    H172805   1.516   0.626  13.390  1.6789  0.0527  0.8802
17130TIP3    H272806   1.540   0.652  13.537 -1.7721  2.4221  1.1312
17131TIP3   OH272807   2.380   2.904   3.130 -0.5375 -0.1394 -0.1305
17131TIP3    H172808   2.290   2.936   3.137 -0.5077 -0.0215 -0.2804
17131TIP3    H272809   2.392   2.885   3.037  0.1098  1.3910 -0.3840
17132TIP3   OH272810   3.989   6.057  10.682 -0.5631  0.1449 -0.0959
17132TIP3    H172811   3.922   6.102  10.631 -0.1421  0.6110 -0.2462
17132TIP3    H272812   3.951   6.050  10.770 -1.6383 -1.4204 -0.6455
17133TIP3   OH272813   5.652   3.421   0.632  0.2968  0.3158  0.8164
17133TIP3    H172814   5.669   3.353   0.698  2.6195  0.3421  0.3429
17133TIP3    H272815   5.557   3.422   0.623  0.1029 -1.9929  1.7538
17134TIP3   OH272816   1.317   0.759   4.031 -0.5061 -0.2426  0.0543
17134TIP3    H172817   1.276   0.701   4.095 -0.0605 -1.7515 -0.9983
17134TIP3    H272818   1.402   0.781   4.069 -0.6027 -0.4156  0.3728
17135TIP3   OH272819   1.733   4.410  11.915  0.0925 -0.0512  0.1652
17135TIP3    H172820   1.705   4.501  11.908 -0.6315 -0.3413 -1.0299
17135TIP3    H272821   1.784   4.394  11.836  1.5821 -0.2550  1.1264
17136TIP3   OH272822   5.272   1.506   4.454 -0.4668 -0.4366  0.1964
17136TIP3    H172823   5.203   1.569   4.475 -2.7008 -2.4539 -0.5706
17136TIP3    H272824   5.298   1.527   4.365 -0.1125  0.2736  0.4557
17137TIP3   OH272825   3.418   1.882   1.919  0.1285 -0.6511  0.3290
17137TIP3    H172826   3.480   1.868   1.991  0.9042 -0.4778 -0.2957
17137TIP3    H272827   3.340   1.918   1.962  0.5028 -0.7369  1.1096
17138TIP3   OH272828   2.225   5.720   3.576 -0.6504 -0.6764  0.2411
17138TIP3    H172829   2.203   5.813   3.577 -2.0667 -0.9765 -0.8759
17138TIP3    H272830   2.215   5.693   3.485 -1.5718 -2.2084  0.7546
17139TIP3   OH272831   3.789   5.080   0.112  0.1403 -0.4205  0.3946
17139TIP3    H172832   3.873   5.125   0.125  0.1976 -0.8220  1.4767
17139TIP3    H272833   3.734   5.110   0.184 -0.3159 -0.9483  0.2754
17140TIP3   OH272834   1.479   1.275  14.065  0.0380  0.4355  0.0026
17140TIP3    H172835   1.474   1.197  14.009  0.7327  0.5348 -0.2173
17140TIP3    H272836   1.457   1.244  14.152  0.3951 -0.0369 -0.0676
17141TIP3   OH272837   3.354   3.405   1.458 -0.2749  0.2505 -0.6895
17141TIP3    H172838   3.364   3.370   1.370 -0.5298 -0.1551 -0.5613
17141TIP3    H272839   3.288   3.474   1.449 -0.6563 -0.1162 -0.7322
17142TIP3   OH272840   1.726   2.958  12.819  0.6921 -0.6453  0.5343
17142TIP3    H172841   1.684   2.873  12.822 -2.6291  0.8597  0.8062
17142TIP3    H272842   1.731   2.987  12.910 -0.0523  0.2210  0.3209
17143TIP3   OH272843   0.160   6.121   0.670 -0.4860  0.2027 -0.1186
17143TIP3    H172844   0.112   6.087   0.595 -0.6125 -0.7705  0.3931
17143TIP3    H272845   0.160   6.216   0.657  0.2086  0.0066 -1.7690
17144TIP3   OH272846   2.681   1.045  10.645 -0.5200 -0.0009  0.2953
17144TIP3    H172847   2.655   1.107  10.577 -0.3113  0.2348  0.4305
17144TIP3    H272848   2.750   0.993  10.604  0.5191  0.9812  0.7353
17145TIP3   OH272849   1.974   0.296   3.404 -0.3208 -0.1097 -0.7658
17145TIP3    H172850   1.998   0.383   3.435  0.1353 -0.9282  1.3143
17145TIP3    H272851   1.941   0.250   3.482 -1.3945 -1.5276 -1.9817
17146TIP3   OH272852   1.985   0.462  12.947 -0.3248 -0.1300 -0.0271
17146TIP3    H172853   2.001   0.378  12.989  0.2243 -0.3666 -0.7018
17146TIP3    H272854   2.049   0.467  12.877 -0.6116  0.6798 -0.2459
17147TIP3   OH272855   0.738   4.795   0.444 -0.3574  0.1651 -0.0415
17147TIP3    H172856   0.686   4.821   0.368  2.1710  1.8356 -1.3353
17147TIP3    H272857   0.744   4.875   0.497  0.0205 -0.2885  0.6119
17148TIP3   OH272858   1.944   5.455  11.973  0.2491  0.1548 -0.4981
17148TIP3    H172859   2.037   5.472  11.987  0.2380  0.9092 -1.2521
17148TIP3    H272860   1.942   5.384  11.908  0.3018  0.1846 -0.5318
17149TIP3   OH272861   6.547   4.553   6.261 -0.4065  0.0915  0.4164
17149TIP3    H172862   6.488   4.560   6.187  1.7772 -1.7085 -1.6640
17149TIP3    H272863   6.579   4.463   6.258  2.0658  0.8317  1.6722
17150TIP3   OH272864   5.710   3.143  12.917  0.0085  0.4211 -0.3993
17150TIP3    H172865   5.756   3.130  13.000  2.0129 -0.9715 -1.6312
17150TIP3    H272866   5.645   3.072  12.915 -0.3475  0.7225  0.1449
17151TIP3   OH272867   4.378   2.066  12.485  0.2901 -0.1545  0.3489
17151TIP3    H172868   4.404   2.155  12.461  0.6890 -0.1005  0.9657
17151TIP3    H272869   4.295   2.052  12.440 -1.2539  1.5638  2.5098
17152TIP3   OH272870   5.926   6.353   6.050 -0.3643  0.4748 -0.1025
17152TIP3    H172871   5.935   6.417   5.979 -1.6628  0.0057 -0.7223
17152TIP3    H272872   6.015   6.342   6.083  0.1960  1.0967 -1.3254
17153TIP3   OH272873   4.382   3.269  17.233 -0.5076 -0.2084 -0.2262
17153TIP3    H172874   4.414   3.357  17.214  0.6307 -1.1086 -3.0136
17153TIP3    H272875   4.306   3.258  17.176 -0.4896 -1.1262 -0.0853
17154TIP3   OH272876   1.682   5.689  12.225  0.3190 -0.8764  0.6457
17154TIP3    H172877   1.692   5.611  12.169  1.2545 -1.0175  0.9790
17154TIP3    H272878   1.627   5.748  12.174  0.3572 -1.3903 -0.0119
17155TIP3   OH272879   6.259   3.969  11.827 -1.0515 -0.9481  0.3368
17155TIP3    H172880   6.260   3.972  11.731  0.4533  2.3103  0.3259
17155TIP3    H272881   6.170   3.998  11.850 -1.0698 -0.6759 -0.0632
17156TIP3   OH272882   4.971   5.507  13.496 -0.3316 -0.7221  0.2033
17156TIP3    H172883   4.886   5.548  13.482 -0.9461 -0.5132  3.5293
17156TIP3    H272884   4.956   5.414  13.480 -1.0415 -0.6134  0.2133
17157TIP3   OH272885   1.747   1.394  15.970 -0.4652 -0.2087 -0.0381
17157TIP3    H172886   1.725   1.385  15.877 -1.6510 -2.8792  0.4118
17157TIP3    H272887   1.805   1.470  15.974 -0.7140  0.2299 -2.8875
17158TIP3   OH272888   0.648   4.520   1.001  0.3043  0.1091 -0.1639
17158TIP3    H172889   0.662   4.486   1.090 -0.5631 -0.5336 -0.2594
17158TIP3    H272890   0.603   4.603   1.014  2.2920  1.1927  0.0676
17159TIP3   OH272891   4.140   2.168  12.710  0.4413  0.0816 -0.3643
17159TIP3    H172892   4.226   2.155  12.749  0.1675  0.8836  0.5437
17159TIP3    H272893   4.081   2.182  12.784 -0.0747  1.7592 -1.0407
17160TIP3   OH272894   5.795   6.265  15.975  0.3620 -0.7385 -0.4174
17160TIP3    H172895   5.731   6.200  15.948  0.6923 -1.6689  0.9276
17160TIP3    H272896   5.843   6.287  15.895 -0.4716 -1.3344 -1.0926
17161TIP3   OH272897   0.521   1.700   4.634  0.2997 -0.2931  0.2789
17161TIP3    H172898   0.431   1.701   4.602  0.2656 -0.2995  0.3752
17161TIP3    H272899   0.565   1.635   4.579  0.7945  1.2784 -1.2568
17162TIP3   OH272900   1.773   1.479   2.178 -0.5704  0.0070  0.0354
17162TIP3    H172901   1.757   1.386   2.188 -0.7008 -0.1454 -1.3554
17162TIP3    H272902   1.691   1.514   2.141 -0.0168  0.3988 -0.8523
17163TIP3   OH272903   3.901   1.311  13.901  0.5692  0.3071 -0.2533
17163TIP3    H172904   3.934   1.268  13.981  1.6863 -0.5202 -1.1244
17163TIP3    H272905   3.808   1.323  13.917  0.7452  0.0344  1.1270
17164TIP3   OH272906   5.176   0.598  13.293  0.1411 -0.1794 -0.1574
17164TIP3    H172907   5.201   0.510  13.264  3.4765  0.5881 -0.0142
17164TIP3    H272908   5.242   0.621  13.359 -1.7562  1.7368  1.2028
17165TIP3   OH272909   6.049   1.960  14.463  0.0120 -0.2020  0.0761
17165TIP3    H172910   6.068   1.906  14.387  2.2161 -0.1689  0.5617
17165TIP3    H272911   5.985   2.024  14.431 -0.3886 -1.2298 -1.2695
17166TIP3   OH272912   5.621   0.635  13.922  0.5141  0.1099  0.0570
17166TIP3    H172913   5.542   0.583  13.936  0.3055  0.0473 -1.2266
17166TIP3    H272914   5.646   0.616  13.832  1.5016  0.8054  0.1727
17167TIP3   OH272915   0.107   4.010  16.648 -0.1875  0.2815 -0.4484
17167TIP3    H172916   0.025   3.963  16.658  1.6140 -3.7697 -2.3603
17167TIP3    H272917   0.159   3.984  16.724  0.2493  0.5880 -0.6390
17168TIP3   OH272918   3.594   6.111   4.017  0.0853  0.2264  0.6159
17168TIP3    H172919   3.532   6.047   4.052  1.8513 -1.4471  0.9230
17168TIP3    H272920   3.557   6.196   4.040 -2.3030 -0.6471  0.3147
17169TIP3   OH272921   4.721   5.391   4.640  0.2933  0.2553 -0.0710
17169TIP3    H172922   4.690   5.326   4.577 -3.0607  0.7534  0.8936
17169TIP3    H272923   4.780   5.342   4.698 -1.0610 -1.6064 -0.1875
17170TIP3   OH272924   1.288   5.028  12.261 -0.6039  0.1376 -0.1440
17170TIP3    H172925   1.260   5.041  12.171 -1.7585  1.3746  0.3400
17170TIP3    H272926   1.274   5.113  12.303  0.3677 -0.2692  1.0868
17171TIP3   OH272927   1.343   5.114  14.038 -0.3681  0.0919  0.2767
17171TIP3    H172928   1.292   5.035  14.054  1.1767 -0.5890  2.2431
17171TIP3    H272929   1.424   5.082  13.998  0.6523  0.5063  1.8987
17172TIP3   OH272930   6.433   4.636  10.634 -0.1811  0.1028 -1.2530
17172TIP3    H172931   6.385   4.554  10.627  0.2694 -0.3748  0.6800
17172TIP3    H272932   6.397   4.679  10.712  0.3322  1.2185 -1.6093
17173TIP3   OH272933   1.402   1.453   3.719  0.0271  0.1619 -0.1898
17173TIP3    H172934   1.461   1.480   3.790 -0.1892 -0.2880  0.1649
17173TIP3    H272935   1.423   1.360   3.705  0.6805  0.4504 -1.3100
17174TIP3   OH272936   0.406   0.204  11.213  0.4855  0.1515  0.4080
17174TIP3    H172937   0.472   0.247  11.267  0.7809 -0.0554  0.2139
17174TIP3    H272938   0.456   0.157  11.147  0.1028  1.7158 -1.0802
17175TIP3   OH272939   6.701   0.595   4.390 -0.5859  0.1779 -0.3519
17175TIP3    H172940   6.617   0.567   4.353 -0.2581 -0.2491 -0.7758
17175TIP3    H272941   6.677   0.659   4.458 -1.3503 -1.0449  0.5664
17176TIP3   OH272942   2.431   2.069  13.201  0.0842 -0.1552  0.4484
17176TIP3    H172943   2.444   2.163  13.215  1.4790 -0.5001  1.7595
17176TIP3    H272944   2.432   2.031  13.289 -2.7505 -1.1767  0.1320
17177TIP3   OH272945   0.020   2.677  11.611  0.0652 -0.3970  0.2976
17177TIP3    H172946   0.055   2.635  11.532 -0.4602 -0.7612  0.2534
17177TIP3    H272947  -0.017   2.605  11.662  2.8274 -0.5888  2.2127
17178TIP3   OH272948   3.491   4.478  16.365  0.2270  0.2985  0.4672
17178TIP3    H172949   3.465   4.389  16.339 -1.0816  0.1773  2.0054
17178TIP3    H272950   3.566   4.465  16.423 -0.1652  0.1525  0.9518
17179TIP3   OH272951   4.703   1.110   0.284  0.3419  0.1084  0.3453
17179TIP3    H172952   4.759   1.186   0.298 -1.8997  1.8060  0.6977
17179TIP3    H272953   4.661   1.127   0.200  0.5024 -1.2487 -0.0343
17180TIP3   OH272954   1.892   5.824  16.430  0.4396 -0.0458  0.5236
17180TIP3    H172955   1.986   5.820  16.418  0.2704  0.2006 -1.1228
17180TIP3    H272956   1.856   5.816  16.341 -1.1441 -1.6796  1.2500
17181TIP3   OH272957   0.919   0.899   4.451 -0.1140 -0.4821  0.5765
17181TIP3    H172958   0.974   0.960   4.500 -1.6629  0.0555  1.7365
17181TIP3    H272959   0.964   0.888   4.367  1.7779 -0.1522  1.4970
17182TIP3   OH272960   2.591   1.573  16.615 -0.0493 -0.2888 -0.0015
17182TIP3    H172961   2.598   1.507  16.546  3.4355  1.1372 -1.1923
17182TIP3    H272962   2.579   1.656  16.569  3.2907  0.8308  0.8649
17183TIP3   OH272963   1.008   0.060   1.907 -0.4544 -0.3997  0.1167
17183TIP3    H172964   0.915   0.042   1.893  0.1708 -2.9168 -1.4060
17183TIP3    H272965   1.018   0.061   2.002 -2.0554  0.3246  0.3269
17184TIP3   OH272966   4.434   0.885   1.358 -0.3581  0.1280  0.2899
17184TIP3    H172967   4.481   0.802   1.350 -0.3575  0.1060  0.5204
17184TIP3    H272968   4.502   0.951   1.370 -0.4299 -0.1020  2.3380
17185TIP3   OH272969   3.539   6.332  13.996 -0.2915  0.2231 -0.2198
17185TIP3    H172970   3.453   6.342  13.956 -1.8466  1.4921  3.0349
17185TIP3    H272971   3.589   6.408  13.964 -0.7640  0.1307 -1.2105
17186TIP3   OH272972   3.783   3.339   3.600  0.0920  0.8450  0.3201
17186TIP3    H172973   3.865   3.366   3.640 -0.3329 -0.5964  2.3237
17186TIP3    H272974   3.722   3.332   3.673 -0.6027 -2.4866 -0.4000
17187TIP3   OH272975   6.403   4.041   1.342 -0.6871 -0.5934  0.3542
17187TIP3    H172976   6.405   3.993   1.425  1.0648 -0.2084  0.5751
17187TIP3    H272977   6.478   4.100   1.347  0.5109 -1.7348 -2.1663
17188TIP3   OH272978   0.065   1.155  16.761 -0.3434  0.8558  0.4215
17188TIP3    H172979   0.006   1.186  16.692  0.5642  0.6547 -0.4716
17188TIP3    H272980   0.021   1.177  16.843 -1.9585  0.1457 -0.2142
17189TIP3   OH272981   5.337   5.327   4.227 -0.4741 -0.3575 -0.4828
17189TIP3    H172982   5.245   5.353   4.223 -0.1588  0.7330 -0.8139
17189TIP3    H272983   5.334   5.235   4.256 -1.6795 -0.5044 -1.0041
17190TIP3   OH272984   6.253   2.802  11.420 -0.2488  0.0480 -0.8656
17190TIP3    H172985   6.183   2.746  11.387 -0.7817 -2.1072  3.2854
17190TIP3    H272986   6.334   2.754  11.400 -0.3464  0.0613 -1.2911
17191TIP3   OH272987   0.368   3.049  14.339  0.3929  0.1719  0.2599
17191TIP3    H172988   0.334   3.132  14.305 -1.0402  0.3377  1.9642
17191TIP3    H272989   0.295   3.012  14.388  1.5630 -1.2869  0.9611
17192TIP3   OH272990   2.969   1.849   4.470  0.2261 -0.7922 -0.2354
17192TIP3    H172991   3.051   1.891   4.443  0.6909 -0.4935  1.4620
17192TIP3    H272992   2.908   1.867   4.399  1.2732  0.1498 -0.9365
17193TIP3   OH272993   3.510   2.032   3.208  0.3196 -0.1029 -0.1641
17193TIP3    H172994   3.489   2.054   3.117  1.3218  1.2336 -0.1083
17193TIP3    H272995   3.442   2.077   3.259  0.1810 -0.2530 -0.2145
17194TIP3   OH272996   2.028   0.835  16.136 -0.2845  0.0613  0.1315
17194TIP3    H172997   2.027   0.781  16.058 -0.0770  0.5273 -0.2030
17194TIP3    H272998   2.010   0.775  16.208 -0.1202 -0.4343 -0.2385
17195TIP3   OH272999   5.345   6.327   3.068  0.1190  0.1407 -0.1188
17195TIP3    H173000   5.358   6.295   3.157  1.6419 -1.7451 -0.9649
17195TIP3    H273001   5.432   6.326   3.029 -0.1926  2.7807 -1.1005
17196TIP3   OH273002   5.542   6.600   1.262  0.1208 -0.1791  0.1591
17196TIP3    H173003   5.588   6.671   1.217 -0.6332  1.2298  1.5435
17196TIP3    H273004   5.598   6.524   1.250  0.5171  0.4051 -2.1368
17197TIP3   OH273005   0.934   4.705  13.494 -0.1523 -0.2806 -0.0220
17197TIP3    H173006   1.008   4.708  13.433  0.4217  1.3253  0.6758
17197TIP3    H273007   0.857   4.713  13.438  0.1175 -2.5340 -0.8083
17198TIP3   OH273008   3.753   3.130  13.152  0.2380 -0.0521  0.2121
17198TIP3    H173009   3.763   3.086  13.067 -2.1914 -1.1694  0.4222
17198TIP3    H273010   3.671   3.179  13.143  1.6065  2.5089  0.8545
17199TIP3   OH273011   5.200   6.566  13.667  0.8806 -0.3525  0.5474
17199TIP3    H173012   5.283   6.612  13.651  1.3633 -1.3459  0.0189
17199TIP3    H273013   5.206   6.488  13.610 -1.0082  0.2445 -0.5530
17200TIP3   OH273014   3.205   5.683  11.257 -0.5837  0.1127 -0.1225
17200TIP3    H173015   3.118   5.703  11.221 -0.0795  1.4187 -0.7043
17200TIP3    H273016   3.262   5.675  11.180 -0.3687 -1.8974  0.1847
17201TIP3   OH273017   3.995   2.038   1.503 -0.3721  0.5645 -0.1019
17201TIP3    H173018   3.981   2.124   1.463 -0.4981  0.1210 -1.0539
17201TIP3    H273019   4.089   2.021   1.492 -0.3902  0.4808 -0.1317
17202TIP3   OH273020   4.918   6.464  14.055 -0.8478 -0.5978 -0.6651
17202TIP3    H173021   5.012   6.477  14.069 -0.8047 -0.1198 -1.3533
17202TIP3    H273022   4.912   6.431  13.965 -1.2954 -1.2838 -0.3941
17203TIP3   OH273023   2.638   4.496  13.745 -0.5509 -0.6337  0.0713
17203TIP3    H173024   2.633   4.438  13.821 -0.7387  0.3997  0.8834
17203TIP3    H273025   2.731   4.504  13.728 -0.2005  1.7884  2.3962
17204TIP3   OH273026   6.496   6.213   5.428  0.1941 -0.0092 -0.7823
17204TIP3    H173027   6.591   6.223   5.425  0.3003 -0.3634  0.6718
17204TIP3    H273028   6.462   6.302   5.426  0.6759  0.2516  1.1049
17205TIP3   OH273029   3.484   0.292   0.458 -0.1350 -0.0590  0.1135
17205TIP3    H173030   3.571   0.331   0.449  0.0386 -0.5105 -0.1817
17205TIP3    H273031   3.483   0.254   0.546  0.2559 -0.7471 -0.1717
17206TIP3   OH273032   3.143   1.727   2.103 -0.8170  0.0875  0.3379
17206TIP3    H173033   3.217   1.678   2.138 -0.5939  0.4749  0.4027
17206TIP3    H273034   3.162   1.818   2.123 -1.5300  0.1556  0.7703
17207TIP3   OH273035   2.663   2.317  13.356  0.3464 -0.7320  0.2629
17207TIP3    H173036   2.718   2.376  13.407  2.3655 -1.3103 -1.1551
17207TIP3    H273037   2.657   2.237  13.409  2.1992 -1.2282 -0.2072
17208TIP3   OH273038   1.594   3.764   4.583  0.5056  0.2617  0.3787
17208TIP3    H173039   1.616   3.684   4.535 -1.3863 -0.6156  0.8820
17208TIP3    H273040   1.538   3.813   4.524  0.4757  0.5273  0.6287
17209TIP3   OH273041   3.736   5.354  11.017  0.1231  0.5759  0.8401
17209TIP3    H173042   3.758   5.420  10.952  1.0891 -0.2829  0.2678
17209TIP3    H273043   3.674   5.296  10.973  0.2878  0.3536  0.8984
17210TIP3   OH273044   1.598   5.497   0.644  0.7912 -0.4426 -0.3151
17210TIP3    H173045   1.573   5.589   0.644 -0.0000 -0.5739  2.4411
17210TIP3    H273046   1.638   5.483   0.558 -2.5990  1.4349 -2.4293
17211TIP3   OH273047   5.975   3.897  14.263  0.2437  0.2322  0.0775
17211TIP3    H173048   5.955   3.899  14.170  0.9860  0.7041 -0.0747
17211TIP3    H273049   6.069   3.882  14.267  0.0342 -1.0498  0.7683
17212TIP3   OH273050   0.730   2.389   1.345 -0.1617 -0.2665 -0.5491
17212TIP3    H173051   0.719   2.455   1.413 -0.7371  0.4915 -1.3532
17212TIP3    H273052   0.702   2.433   1.264 -0.9296 -1.6140 -1.0425
17213TIP3   OH273053   4.645   1.879   0.719 -0.4097  0.3725  0.1855
17213TIP3    H173054   4.684   1.879   0.632  1.7985  1.2992  1.1132
17213TIP3    H273055   4.621   1.788   0.734  1.6915 -0.3204 -0.3565
17214TIP3   OH273056   2.158   1.971  14.347 -0.6848 -0.0035  0.0583
17214TIP3    H173057   2.160   1.996  14.439 -1.0418  1.2702 -0.2589
17214TIP3    H273058   2.083   1.911  14.340 -0.1850 -0.7219  0.7275
17215TIP3   OH273059   4.002   0.527  16.009  0.5093 -0.1613  0.3548
17215TIP3    H173060   4.004   0.432  15.993 -0.4448 -0.4893  1.9337
17215TIP3    H273061   4.093   0.550  16.026  0.5682 -1.1120  1.4687
17216TIP3   OH273062   2.058   5.832   5.827 -0.0637 -0.2321 -0.1775
17216TIP3    H173063   2.123   5.899   5.804  0.4384 -0.4085  0.6768
17216TIP3    H273064   1.980   5.881   5.851 -0.3236 -0.0222 -1.3818
17217TIP3   OH273065   5.898   4.419   4.202 -0.1529 -0.4990  0.3349
17217TIP3    H173066   5.841   4.359   4.249  0.8612 -0.8061  1.2080
17217TIP3    H273067   5.987   4.398   4.232  0.4142  0.1307 -0.7912
17218TIP3   OH273068   5.408   1.774  11.458 -0.3018  0.0783 -0.0438
17218TIP3    H173069   5.434   1.705  11.519  0.2673  0.3191 -0.0062
17218TIP3    H273070   5.334   1.738  11.410  0.8180 -1.0678 -0.9594
17219TIP3   OH273071   3.283   5.436  15.239  0.8065  0.3059 -0.3392
17219TIP3    H173072   3.352   5.376  15.268  2.5617  2.5067  0.3160
17219TIP3    H273073   3.315   5.523  15.263 -1.8004  1.5165 -0.8786
17220TIP3   OH273074   0.349   3.678  14.455  0.1396  0.0387  0.0331
17220TIP3    H173075   0.267   3.674  14.406  0.3820  0.7147 -0.4370
17220TIP3    H273076   0.387   3.763  14.432  0.5199  0.1355  0.9738
17221TIP3   OH273077   1.099   4.854   0.746 -0.4452  0.6343  0.1063
17221TIP3    H173078   1.014   4.818   0.772  0.0212 -0.1166  0.6374
17221TIP3    H273079   1.163   4.789   0.776  0.2792  0.8790 -0.8603
17222TIP3   OH273080   4.052   0.470  12.561  0.0892 -0.9488 -0.3461
17222TIP3    H173081   4.112   0.517  12.503  0.4010  0.9320  1.3831
17222TIP3    H273082   3.984   0.437  12.503 -0.4793  2.2190 -1.6976
17223TIP3   OH273083   2.952   6.056  14.848  0.2759 -0.4664 -0.0207
17223TIP3    H173084   2.911   5.988  14.901 -1.2018  0.6841  0.4024
17223TIP3    H273085   2.903   6.055  14.765  1.2875 -0.9449 -0.6406
17224TIP3   OH273086   1.348   6.131  12.034 -0.3795 -0.0488  0.4738
17224TIP3    H173087   1.409   6.189  11.987 -0.9190  0.2752  0.1577
17224TIP3    H273088   1.396   6.104  12.113  0.8960 -1.3248 -0.6740
17225TIP3   OH273089   6.223   2.781  10.891  0.1230 -0.0128 -0.3915
17225TIP3    H173090   6.173   2.720  10.946  1.1571 -1.4710 -1.0049
17225TIP3    H273091   6.265   2.839  10.954  1.1344 -1.5335  0.4104
17226TIP3   OH273092   3.703   4.389   2.951 -0.4568 -0.2727  0.2271
17226TIP3    H173093   3.618   4.365   2.989 -0.1960 -0.4463  0.7016
17226TIP3    H273094   3.767   4.364   3.018 -0.0436 -0.0028 -0.0682
17227TIP3   OH273095   4.621   0.801   3.644 -0.2441  0.3479 -0.1188
17227TIP3    H173096   4.608   0.894   3.666 -1.3842  0.1338  0.2020
17227TIP3    H273097   4.532   0.767   3.632  0.0075 -1.1486  1.6915
17228TIP3   OH273098   4.283   1.890  15.500 -0.0640 -0.0503 -0.1376
17228TIP3    H173099   4.247   1.977  15.520  2.4369  0.9066  0.6751
17228TIP3    H273100   4.332   1.903  15.419 -1.5216 -1.3244 -1.2650
17229TIP3   OH273101   5.602   0.108  15.872  0.9814  0.1766  0.7887
17229TIP3    H173102   5.635   0.036  15.818  1.2060  0.5528  0.4129
17229TIP3    H273103   5.675   0.170  15.877  1.0161  0.0627  1.6793
17230TIP3   OH273104   1.704   6.608  12.068 -0.0278  0.4027  0.0491
17230TIP3    H173105   1.737   6.661  11.995 -0.4363  0.7635  0.1213
17230TIP3    H273106   1.674   6.671  12.132 -0.5226  0.0814  0.1380
17231TIP3   OH273107   2.461   5.890  15.734  0.0356  0.0433 -0.0744
17231TIP3    H173108   2.368   5.867  15.729  0.2979 -1.1421  0.0743
17231TIP3    H273109   2.493   5.876  15.645  0.1704 -0.0483 -0.0121
17232TIP3   OH273110   3.604   3.891   5.736  0.6306 -0.3688 -0.5371
17232TIP3    H173111   3.629   3.913   5.826 -0.7079  0.1606 -0.2664
17232TIP3    H273112   3.687   3.873   5.692  1.4702  1.0263  0.3704
17233TIP3   OH273113   4.391   5.331  13.404 -0.0312  0.3785 -0.0692
17233TIP3    H173114   4.314   5.356  13.455  1.6607  0.4901  2.6499
17233TIP3    H273115   4.401   5.237  13.421  1.3433  0.6955  1.0156
17234TIP3   OH273116   6.454   2.738   3.807  0.6258 -0.0523  0.6466
17234TIP3    H173117   6.492   2.812   3.761  1.4744  0.3502  1.9258
17234TIP3    H273118   6.400   2.693   3.742  0.9162  1.0973 -0.4114
17235TIP3   OH273119   0.487   4.751  13.900 -0.3134 -0.0756  0.1083
17235TIP3    H173120   0.453   4.776  13.814 -0.4481 -2.4741 -0.6332
17235TIP3    H273121   0.409   4.748  13.957 -0.1218  2.2682  0.5888
17236TIP3   OH273122   1.212   3.393   1.620 -0.2165 -0.9131 -0.4228
17236TIP3    H173123   1.242   3.332   1.687 -1.5094  0.6198  1.7002
17236TIP3    H273124   1.118   3.378   1.613 -0.3068 -0.1802 -0.9406
17237TIP3   OH273125   2.711   3.756  14.815 -0.3144 -0.6008 -0.0966
17237TIP3    H173126   2.697   3.824  14.881  2.6852  1.0718 -0.9907
17237TIP3    H273127   2.767   3.691  14.859  2.9648  1.2520 -1.1956
17238TIP3   OH273128   4.265   1.155   4.767 -0.3905  0.7722  0.0575
17238TIP3    H173129   4.278   1.187   4.678  1.0162  1.0073  0.3244
17238TIP3    H273130   4.181   1.108   4.764  0.6095 -1.0762 -1.9240
17239TIP3   OH273131   6.676   3.748   2.900  0.0312  0.3888  0.5655
17239TIP3    H173132   6.632   3.715   2.821  0.3085  2.3541 -0.4976
17239TIP3    H273133   6.749   3.688   2.913  0.0732  0.0938 -0.7997
17240TIP3   OH273134   2.256   0.045   0.411  0.0397 -0.5891  0.3561
17240TIP3    H173135   2.311   0.076   0.483 -0.4712 -1.1269  1.0049
17240TIP3    H273136   2.306   0.064   0.332  1.0654 -0.8771  0.9088
17241TIP3   OH273137   2.426   1.985  15.931 -0.2561  0.7197  0.4706
17241TIP3    H173138   2.358   2.051  15.924  0.0301  0.9160 -0.6868
17241TIP3    H273139   2.506   2.034  15.951 -0.0364  0.7526 -0.4263
17242TIP3   OH273140   6.150   6.248  11.819  0.6270 -0.6416 -0.1400
17242TIP3    H173141   6.163   6.211  11.907 -0.0655 -0.9684 -0.1764
17242TIP3    H273142   6.136   6.172  11.763  1.5021 -0.4606 -0.6193
17243TIP3   OH273143   1.970   1.761   2.907  0.1077  0.4562 -0.4548
17243TIP3    H173144   1.995   1.757   2.815  1.7496 -0.4960 -0.0085
17243TIP3    H273145   2.031   1.824   2.946  1.6886 -1.6112  0.5882
17244TIP3   OH273146   1.997   5.057  14.225  0.5178 -0.0259  0.2208
17244TIP3    H173147   1.976   5.107  14.304  0.3282 -0.7261  0.6208
17244TIP3    H273148   2.086   5.024  14.241  0.8482  0.6012 -0.2652
17245TIP3   OH273149   3.178   2.168   3.845 -0.0026 -0.3653 -0.0321
17245TIP3    H173150   3.250   2.217   3.882 -0.0416  0.8753 -1.5126
17245TIP3    H273151   3.110   2.233   3.829 -1.0276 -1.3236  0.2844
17246TIP3   OH273152   2.117   2.582   3.078 -0.1934 -0.8691 -0.2189
17246TIP3    H173153   2.099   2.645   3.148 -0.7782  0.6518 -1.6778
17246TIP3    H273154   2.053   2.512   3.092  0.5259 -1.2503  1.4790
17247TIP3   OH273155   3.371   0.552   3.742 -0.3777  0.6504  0.4913
17247TIP3    H173156   3.451   0.573   3.695 -0.9104  2.3084  0.2420
17247TIP3    H273157   3.321   0.496   3.683 -1.2695  3.1155 -1.2495
17248TIP3   OH273158   1.930   1.031   6.273 -0.6007  0.1430  0.3273
17248TIP3    H173159   2.021   1.061   6.282 -0.9205  1.4498 -0.4803
17248TIP3    H273160   1.895   1.083   6.200 -1.1473 -2.3885 -1.3406
17249TIP3   OH273161   0.989   1.547   0.330  0.0782  0.0550 -0.5447
17249TIP3    H173162   1.066   1.582   0.284 -0.5468 -0.2184 -1.8411
17249TIP3    H273163   0.915   1.593   0.290 -0.5260 -0.6001 -0.1932
17250TIP3   OH273164   5.872   2.775  13.726 -0.4591 -0.5321 -0.2661
17250TIP3    H173165   5.888   2.758  13.819 -2.6277 -2.5071 -0.1702
17250TIP3    H273166   5.777   2.782  13.720 -0.2870  0.8115 -2.1890
17251TIP3   OH273167   4.461   4.776  14.141  1.3169 -0.4158 -0.5881
17251TIP3    H173168   4.375   4.734  14.142  0.2182  1.6048 -2.3912
17251TIP3    H273169   4.522   4.704  14.123 -0.4915 -1.3342 -3.7501
17252TIP3   OH273170   5.569   2.756   4.348 -0.2771 -0.0567  0.1810
17252TIP3    H173171   5.531   2.676   4.312 -0.0329 -0.4371  0.7510
17252TIP3    H273172   5.661   2.733   4.366 -0.2884  0.2448  0.6430
17253TIP3   OH273173   5.695   6.482   3.334 -0.2778 -0.4735 -0.2654
17253TIP3    H173174   5.678   6.389   3.349  0.2954 -0.7980 -1.4804
17253TIP3    H273175   5.609   6.523   3.336 -0.4966 -0.9424  0.7301
17254TIP3   OH273176   6.515   2.030  16.223  0.1414 -0.0121 -0.2130
17254TIP3    H173177   6.568   2.048  16.300 -1.2069 -1.1856  1.0558
17254TIP3    H273178   6.427   2.060  16.246  0.0763  1.3803 -2.0585
17255TIP3   OH273179   5.645   4.934  12.055 -0.7913  0.5893  0.0101
17255TIP3    H173180   5.589   5.006  12.085  0.8410  1.8155  0.2299
17255TIP3    H273181   5.674   4.891  12.136 -0.3894  0.7564 -0.0466
17256TIP3   OH273182   0.190   5.953   2.474  0.3511  0.7222 -0.2505
17256TIP3    H173183   0.192   5.871   2.424  0.0472  2.3197 -3.0843
17256TIP3    H273184   0.100   5.985   2.464  0.6927  1.8179  0.0829
17257TIP3   OH273185   2.375   2.323  15.035 -0.1664  0.2063  0.5071
17257TIP3    H173186   2.284   2.301  15.016 -0.7866  0.6899  2.5750
17257TIP3    H273187   2.400   2.386  14.968 -1.1852 -0.3154 -0.3808
17258TIP3   OH273188   1.718   3.568  13.859  0.0635  0.3245 -0.5156
17258TIP3    H173189   1.708   3.473  13.857 -1.2663  0.3063  2.2657
17258TIP3    H273190   1.782   3.584  13.928 -1.8727  1.4816  1.1041
17259TIP3   OH273191   5.137   2.851  14.718  0.7570  0.0611  0.3107
17259TIP3    H173192   5.225   2.872  14.749  1.1195  0.7067 -1.1157
17259TIP3    H273193   5.101   2.935  14.690 -1.1623  0.2101  2.8410
17260TIP3   OH273194   4.243   3.235   0.990  0.5780  0.0982  0.2922
17260TIP3    H173195   4.154   3.231   1.023  0.5370  0.3152  0.2058
17260TIP3    H273196   4.256   3.151   0.945  0.2179  0.3088 -0.2126
17261TIP3   OH273197   5.500   2.802  15.661 -0.0710 -0.1362  0.1012
17261TIP3    H173198   5.515   2.710  15.680  1.6996  0.1928  0.4873
17261TIP3    H273199   5.457   2.837  15.739 -0.7002 -0.6217 -0.0284
17262TIP3   OH273200   1.646   2.366   1.914  0.2884 -0.0486  0.1128
17262TIP3    H173201   1.625   2.330   1.828 -1.9105  2.2852 -0.4543
17262TIP3    H273202   1.741   2.379   1.913  0.3435 -0.3916 -1.8026
17263TIP3   OH273203   3.365   4.305  10.866 -0.3076  0.1289 -0.3122
17263TIP3    H173204   3.309   4.234  10.835  0.6960 -0.7226 -0.2241
17263TIP3    H273205   3.413   4.334  10.788 -1.1678  1.1677 -0.4851
17264TIP3   OH273206   3.441   1.442   3.687  0.0957  0.5856 -0.0287
17264TIP3    H173207   3.372   1.508   3.698  0.1399  0.6778 -0.2980
17264TIP3    H273208   3.509   1.487   3.637 -0.2509  0.0747 -0.9841
17265TIP3   OH273209   3.204   3.144  11.297  0.0629 -0.0256  0.1832
17265TIP3    H173210   3.207   3.162  11.203  1.7817 -0.1144  0.1992
17265TIP3    H273211   3.186   3.229  11.338  2.4669  0.6628 -0.0713
17266TIP3   OH273212   0.569   5.504   3.095  0.5232  0.1120  0.5164
17266TIP3    H173213   0.533   5.591   3.111 -0.5346 -0.6323  2.5671
17266TIP3    H273214   0.575   5.497   2.999 -3.0150  1.0213  0.1026
17267TIP3   OH273215   4.104   5.449   2.390 -0.1402 -0.0326 -0.0527
17267TIP3    H173216   4.136   5.447   2.480  0.1955  1.3192 -0.1249
17267TIP3    H273217   4.181   5.430   2.336 -0.3008 -0.6560 -0.0632
17268TIP3   OH273218   0.361   2.422   1.482  0.0311 -0.2717 -0.3878
17268TIP3    H173219   0.320   2.346   1.440  0.7170 -1.3295  0.7819
17268TIP3    H273220   0.335   2.496   1.428 -1.0155 -1.2810 -1.3249
17269TIP3   OH273221   6.599   6.143   3.655 -0.1958  0.1831  0.0849
17269TIP3    H173222   6.681   6.169   3.614 -0.7400  0.6943 -0.6910
17269TIP3    H273223   6.579   6.214   3.716 -0.1079  0.0889  0.2260
17270TIP3   OH273224   5.537   4.538  14.354 -0.3336  0.2730 -0.2827
17270TIP3    H173225   5.538   4.442  14.351 -1.3558  0.1957  0.8885
17270TIP3    H273226   5.630   4.563  14.360 -0.0253 -0.9446  4.5620
17271TIP3   OH273227   5.520   0.578   1.498 -0.1039  0.2829  0.2969
17271TIP3    H173228   5.603   0.566   1.453 -0.6712 -1.8811 -0.2780
17271TIP3    H273229   5.470   0.636   1.440  0.4544  0.3990 -0.0809
17272TIP3   OH273230   4.897   2.497   4.613 -0.3779  0.7285  0.0285
17272TIP3    H173231   4.813   2.459   4.587  0.4343 -0.4839 -0.9236
17272TIP3    H273232   4.913   2.566   4.549 -0.5438  0.8207  0.0852
17273TIP3   OH273233   2.600   5.596   5.776  0.1401 -0.1425  0.1613
17273TIP3    H173234   2.544   5.662   5.735 -1.2142 -1.6963 -0.5656
17273TIP3    H273235   2.550   5.515   5.773  1.4706 -1.0983  1.6712
17274TIP3   OH273236   6.177   0.231  13.790  0.1354  0.2345 -0.2975
17274TIP3    H173237   6.209   0.320  13.778 -0.9942  0.9583  1.6760
17274TIP3    H273238   6.135   0.231  13.876 -1.0031 -1.8788 -0.7715
17275TIP3   OH273239   1.057   5.204  12.140  0.6836  0.1121  0.1825
17275TIP3    H173240   1.021   5.292  12.153  1.7565  0.6270 -0.2290
17275TIP3    H273241   1.133   5.201  12.198  0.5325 -0.6299  0.3484
17276TIP3   OH273242   4.552   1.674   1.900  0.0343  0.1030 -0.0723
17276TIP3    H173243   4.507   1.600   1.941  3.9656 -1.3219  2.1985
17276TIP3    H273244   4.541   1.746   1.962  1.1000 -0.3697  0.7005
17277TIP3   OH273245   2.828   4.231   1.449 -0.1200  0.4725  0.1194
17277TIP3    H173246   2.886   4.156   1.461 -0.9489 -0.4748 -1.4735
17277TIP3    H273247   2.764   4.201   1.384 -1.4151  2.0290  0.6290
17278TIP3   OH273248   5.236   4.587   0.858 -0.6321  0.7248 -0.5192
17278TIP3    H173249   5.141   4.586   0.865 -0.7675  1.2496 -2.0541
17278TIP3    H273250   5.261   4.495   0.850 -1.0429  0.6227 -0.6212
17279TIP3   OH273251   0.978   3.784   1.672  0.0179 -0.1955  0.0448
17279TIP3    H173252   0.990   3.839   1.749 -1.2567 -1.0312  0.8841
17279TIP3    H273253   0.900   3.732   1.692 -1.4520  0.7980 -2.5007
17280TIP3   OH273254   6.741   4.900  13.015 -0.0205  0.2146 -0.5464
17280TIP3    H173255   6.801   4.944  12.955  1.5635  0.0688  0.8681
17280TIP3    H273256   6.777   4.813  13.026 -0.7187 -0.0156  0.0311
17281TIP3   OH273257   0.572   2.043  17.243  0.4194  0.0327  0.7317
17281TIP3    H173258   0.483   2.009  17.236  0.5267 -0.4452  1.4922
17281TIP3    H273259   0.628   1.968  17.220  0.6612  1.2169 -3.2952
17282TIP3   OH273260   2.704   0.333   4.304  0.3674  0.6802 -0.0965
17282TIP3    H173261   2.649   0.255   4.300  1.4809 -0.1581  0.4042
17282TIP3    H273262   2.654   0.395   4.357 -0.0403 -0.1187  0.4809
17283TIP3   OH273263   3.404   4.356  12.451 -0.1989  0.0356  0.8080
17283TIP3    H173264   3.411   4.270  12.411  2.0758  0.3979  0.2806
17283TIP3    H273265   3.379   4.414  12.379  1.8159  0.3435  0.2936
17284TIP3   OH273266   4.699   4.378  12.977 -0.3709  0.6385  0.2555
17284TIP3    H173267   4.778   4.376  13.031 -1.1553 -0.9386  1.4115
17284TIP3    H273268   4.729   4.348  12.891  0.4288  0.8046  0.4636
17285TIP3   OH273269   1.547   5.470   3.907  0.2102 -0.1924  0.4510
17285TIP3    H173270   1.587   5.454   3.993  0.2309  2.8187  1.1158
17285TIP3    H273271   1.621   5.492   3.850 -0.0428  0.8535  0.5016
17286TIP3   OH273272   1.626   2.061  15.814  0.3214  0.1060  0.4313
17286TIP3    H173273   1.641   2.148  15.851  1.2992  0.4030 -0.6115
17286TIP3    H273274   1.580   2.014  15.883 -1.6241  1.9029  0.4675
17287TIP3   OH273275   5.845   4.202   1.031 -0.2719 -0.0055  0.0049
17287TIP3    H173276   5.888   4.116   1.031  0.6151  0.4216  0.0050
17287TIP3    H273277   5.907   4.260   0.987 -1.0995  0.5267 -0.4853
17288TIP3   OH273278   6.129   3.783   6.262  0.1110  0.3306  0.1308
17288TIP3    H173279   6.216   3.761   6.228  0.6335  2.1073  0.2284
17288TIP3    H273280   6.108   3.710   6.321  0.4078 -1.3911 -1.7721
17289TIP3   OH273281   5.941   0.828  14.281  0.1466 -0.2170  0.6173
17289TIP3    H173282   5.930   0.734  14.296 -1.2760 -0.6807 -2.5174
17289TIP3    H273283   5.852   0.863  14.286  0.7054  1.0836  2.1188
17290TIP3   OH273284   3.198   2.815  11.510  0.8575 -0.2445 -0.6146
17290TIP3    H173285   3.121   2.759  11.512  0.4102  0.3789  0.9073
17290TIP3    H273286   3.252   2.779  11.439 -0.8686 -0.6159 -1.8155
17291TIP3   OH273287   0.978   2.151   4.084 -0.4176  0.5441  0.3745
17291TIP3    H173288   0.959   2.069   4.037  1.1608 -0.6505  1.7099
17291TIP3    H273289   0.891   2.188   4.102 -1.3819 -2.1816  1.9848
17292TIP3   OH273290   2.982   5.336   5.522  0.1716 -0.7407 -0.3830
17292TIP3    H173291   3.020   5.410   5.569 -1.8609 -0.2738  0.6424
17292TIP3    H273292   3.042   5.320   5.449  1.2594  1.1575  0.0370
17293TIP3   OH273293   1.987   2.790  15.359 -0.1972  0.5082 -0.3471
17293TIP3    H173294   1.891   2.799  15.356 -0.2894 -0.6426 -2.3079
17293TIP3    H273295   2.007   2.729  15.289  2.1256  1.6945 -0.7912
17294TIP3   OH273296   0.716   0.337  13.664  0.3261 -0.4225  0.1421
17294TIP3    H173297   0.708   0.280  13.588  0.8499 -0.4600  0.1164
17294TIP3    H273298   0.781   0.402  13.638  0.3651 -0.3230  0.4908
17295TIP3   OH273299   3.147   6.566   5.694 -0.1235  0.0168  0.2027
17295TIP3    H173300   3.066   6.608   5.724 -0.0656 -0.8562  1.6567
17295TIP3    H273301   3.182   6.522   5.771  1.4912 -0.0469 -0.5275
17296TIP3   OH273302   4.861   6.290  13.852 -0.2266 -0.1761  0.4249
17296TIP3    H173303   4.827   6.333  13.774  0.6854  0.6151  0.4371
17296TIP3    H273304   4.894   6.206  13.820 -0.3636 -0.0950  0.0606
17297TIP3   OH273305   2.569   5.261  16.525  0.5965  0.3298 -0.1283
17297TIP3    H173306   2.608   5.237  16.441 -0.6256  3.4580 -1.7366
17297TIP3    H273307   2.524   5.344  16.509 -1.1805  0.2149  3.2168
17298TIP3   OH273308   4.346   1.582   5.217 -0.0471  0.1656  0.4291
17298TIP3    H173309   4.390   1.544   5.141 -1.1351 -0.2626 -0.0007
17298TIP3    H273310   4.256   1.549   5.213 -0.4425  1.0689  1.2488
17299TIP3   OH273311   4.807   6.342   1.283 -0.3569 -0.3140  0.2606
17299TIP3    H173312   4.837   6.387   1.362 -0.2908  0.2719 -0.0889
17299TIP3    H273313   4.756   6.408   1.236 -1.2505 -0.9642  0.2986
17300TIP3   OH273314   3.782   4.286   4.304  0.4859 -0.1625  0.3418
17300TIP3    H173315   3.709   4.256   4.358  0.2106  0.1919  0.1690
17300TIP3    H273316   3.811   4.207   4.257  0.1558 -0.2855  0.3428
17301TIP3   OH273317   4.043   0.918   3.564 -0.9358 -0.2855  0.3496
17301TIP3    H173318   3.980   0.888   3.630 -1.3085 -0.3938 -0.0530
17301TIP3    H273319   4.026   0.862   3.488  0.9677 -1.6757  0.8620
17302TIP3   OH273320   4.510   4.173   2.986 -0.2109 -0.0114 -0.2340
17302TIP3    H173321   4.567   4.171   2.910  1.8975  2.2215  1.1227
17302TIP3    H273322   4.429   4.213   2.955  0.4944  0.5627 -1.3664
17303TIP3   OH273323   5.953   3.651   5.108  0.0815  0.2605 -0.1160
17303TIP3    H173324   6.022   3.640   5.173 -0.2033  0.3490  0.2018
17303TIP3    H273325   6.000   3.670   5.026  0.4264  0.4718  0.1291
17304TIP3   OH273326   1.082   4.487  12.606 -0.3181  0.1497 -0.0877
17304TIP3    H173327   1.013   4.538  12.565 -1.4545 -0.6531  0.7648
17304TIP3    H273328   1.099   4.415  12.545 -0.7238 -0.0253  0.0001
17305TIP3   OH273329   5.221   6.395  15.609 -0.4054 -0.0048 -0.0764
17305TIP3    H173330   5.280   6.464  15.580 -0.3581  1.0207  2.2083
17305TIP3    H273331   5.212   6.409  15.703 -1.1553 -2.5662  0.3199
17306TIP3   OH273332   2.575   3.831   4.746 -0.4011  0.0066  0.1151
17306TIP3    H173333   2.659   3.873   4.761  0.5549 -1.3942 -1.1137
17306TIP3    H273334   2.565   3.831   4.651 -1.7962  0.1202  0.2378
17307TIP3   OH273335   2.986   4.220   1.804 -0.0932  0.2031 -0.2993
17307TIP3    H173336   2.939   4.212   1.721 -0.9550  2.5836 -0.1203
17307TIP3    H273337   2.919   4.210   1.872  0.3626 -0.3576  0.0763
17308TIP3   OH273338   4.260   3.861   5.824 -0.4676  0.2539  0.4690
17308TIP3    H173339   4.165   3.864   5.832 -0.6320  1.1283 -1.2350
17308TIP3    H273340   4.278   3.777   5.781 -0.4830  0.1573  0.6518
17309TIP3   OH273341   2.268   3.834   0.261  0.2316 -0.1596  0.2905
17309TIP3    H173342   2.327   3.860   0.191 -0.8243 -0.6487 -0.8234
17309TIP3    H273343   2.224   3.756   0.227  1.1394 -1.6589  2.3084
17310TIP3   OH273344   1.963   1.645   4.469  0.6183  0.2849  0.5398
17310TIP3    H173345   1.992   1.600   4.548  0.2083  1.5230  1.4109
17310TIP3    H273346   1.868   1.628   4.465  0.5862  0.4805  0.4710
17311TIP3   OH273347   2.222   5.707  15.694 -0.5856 -0.8295 -0.3441
17311TIP3    H173348   2.174   5.667  15.622 -1.0947 -2.5141  0.8676
17311TIP3    H273349   2.155   5.730  15.759 -0.3436  2.2394 -1.0204
17312TIP3   OH273350   0.598   3.825  13.052  0.0019  0.2242  0.0714
17312TIP3    H173351   0.576   3.819  12.959 -0.7379 -0.1837  0.2726
17312TIP3    H273352   0.572   3.913  13.077 -0.2695  0.1591  0.0178
17313TIP3   OH273353   5.699   1.920   4.757  0.0693 -0.7021 -0.1158
17313TIP3    H173354   5.638   1.853   4.726 -1.4887 -0.7921  2.7718
17313TIP3    H273355   5.769   1.872   4.800 -1.3871 -0.6284  2.5522
17314TIP3   OH273356   2.720   6.551   1.399  0.4003  0.3132 -0.2470
17314TIP3    H173357   2.703   6.461   1.428 -0.4819  0.2416 -0.9236
17314TIP3    H273358   2.809   6.549   1.365 -0.0076 -0.6181 -1.3341
17315TIP3   OH273359   2.908   2.996   6.685 -0.2247  0.0231 -0.0809
17315TIP3    H173360   2.865   2.911   6.679 -0.7125  0.3327 -1.2879
17315TIP3    H273361   2.869   3.048   6.615 -0.3201  1.4199  0.9549
17316TIP3   OH273362   5.921   3.869  16.934  0.2376 -0.3291  0.3277
17316TIP3    H173363   5.848   3.917  16.973 -0.3172 -0.3914 -0.5935
17316TIP3    H273364   5.916   3.781  16.972 -0.5543 -0.5148 -0.1829
17317TIP3   OH273365   2.025   3.064  15.400 -0.5825 -0.3775 -0.0557
17317TIP3    H173366   2.037   3.105  15.314 -1.6764  0.2428  0.0748
17317TIP3    H273367   2.015   2.971  15.381  2.7020 -0.8103 -0.3030
17318TIP3   OH273368   2.305   1.734   4.728  0.2962 -0.1653 -0.0443
17318TIP3    H173369   2.367   1.807   4.737 -0.8290  0.7850  0.2709
17318TIP3    H273370   2.343   1.678   4.661  1.4846  0.4025  0.1267
17319TIP3   OH273371   3.666   0.417   2.890  0.4068  0.0042 -0.0183
17319TIP3    H173372   3.620   0.436   2.808  1.2654  0.8617 -0.3267
17319TIP3    H273373   3.671   0.502   2.935 -0.9305 -0.6239  1.4132
17320TIP3   OH273374   6.276   2.879  14.187 -0.4579 -0.6173  0.4371
17320TIP3    H173375   6.305   2.924  14.267  3.0305 -1.8030 -0.0115
17320TIP3    H273376   6.279   2.947  14.119 -2.0760  0.0415  0.9541
17321TIP3   OH273377   1.374   5.330   3.762  0.2780 -0.1318 -0.0804
17321TIP3    H173378   1.352   5.277   3.839  0.6414  0.4606  0.4453
17321TIP3    H273379   1.436   5.395   3.795 -2.4789  2.6672  0.0495
17322TIP3   OH273380   4.017   4.238  14.152 -0.2221  0.2957  0.5035
17322TIP3    H173381   4.108   4.264  14.161 -0.0449  0.2442 -0.8965
17322TIP3    H273382   3.988   4.219  14.241  1.0438  0.5939  0.9944
17323TIP3   OH273383   4.078   4.789  12.816 -0.0687  0.0341 -0.1979
17323TIP3    H173384   4.121   4.792  12.902 -0.9425  2.1584  0.2372
17323TIP3    H273385   4.117   4.862  12.767  1.3888 -1.9496 -2.1736
17324TIP3   OH273386   3.859   6.221  12.048 -0.2122 -0.2243  0.0362
17324TIP3    H173387   3.912   6.171  11.986  0.7505  0.3927  0.3432
17324TIP3    H273388   3.769   6.206  12.020  0.1485 -0.8584 -0.8244
17325TIP3   OH273389   2.968   2.641  11.529 -0.3978  0.1906  0.0197
17325TIP3    H173390   2.933   2.633  11.617 -2.8177  0.1946 -0.8635
17325TIP3    H273391   2.953   2.556  11.489 -1.5153  0.8671 -1.0872
17326TIP3   OH273392   3.901   2.664   0.794  0.3692  0.1685 -0.4301
17326TIP3    H173393   3.960   2.664   0.870 -0.3707  2.3754  0.2315
17326TIP3    H273394   3.902   2.574   0.763 -0.3810 -1.2389  3.0829
17327TIP3   OH273395   6.147   5.502   4.769  0.2770  0.0780 -0.1230
17327TIP3    H173396   6.126   5.467   4.683  2.5075  1.9032 -1.5234
17327TIP3    H273397   6.062   5.526   4.807 -0.6536  1.6484 -2.9319
17328TIP3   OH273398   3.059   1.640  16.611 -0.5871 -0.1636  0.3885
17328TIP3    H173399   3.026   1.729  16.617 -0.4508 -0.0881  0.0377
17328TIP3    H273400   3.146   1.643  16.651 -1.7476 -0.7871  3.2228
17329TIP3   OH273401   4.309   2.357   4.821 -0.2373 -0.1704 -0.0240
17329TIP3    H173402   4.320   2.277   4.871  0.7989  0.6369  1.1092
17329TIP3    H273403   4.250   2.334   4.750  1.2492 -2.3316 -0.6374
17330TIP3   OH273404   6.666   4.749   2.979  0.3037 -0.2759 -0.3961
17330TIP3    H173405   6.619   4.667   2.966 -0.5231  0.3909 -1.9098
17330TIP3    H273406   6.753   4.734   2.944  1.0576 -1.3047  1.7817
17331TIP3   OH273407   4.752   1.469  12.613  0.5822  0.7755 -0.2594
17331TIP3    H173408   4.832   1.420  12.591 -0.2591  0.0067 -1.8200
17331TIP3    H273409   4.709   1.415  12.679  0.1757 -0.1135 -1.2122
17332TIP3   OH273410   4.386   5.203  12.033  0.1665 -0.2925  0.1993
17332TIP3    H173411   4.364   5.251  12.113 -1.3824 -1.2648  0.3954
17332TIP3    H273412   4.307   5.155  12.011  0.8445 -0.7279 -1.4523
17333TIP3   OH273413   0.496   2.909   3.522 -0.4386 -0.0053 -0.1154
17333TIP3    H173414   0.424   2.860   3.563 -2.1028 -1.1519 -3.9554
17333TIP3    H273415   0.561   2.842   3.500  0.0254  0.4466 -0.1481
17334TIP3   OH273416   1.390   0.363   5.265 -0.0519  0.0166 -0.2314
17334TIP3    H173417   1.335   0.306   5.319  0.6031 -0.3380  0.0704
17334TIP3    H273418   1.421   0.430   5.326  0.3189 -0.1213 -0.2702
17335TIP3   OH273419   1.861   2.024   5.978 -0.0654  0.2244  0.5134
17335TIP3    H173420   1.813   2.107   5.977  0.4721  0.5323 -1.0372
17335TIP3    H273421   1.888   2.014   6.069 -0.9517  1.2620  0.9179
17336TIP3   OH273422   6.696   1.751   5.707 -0.4039 -0.5943  0.1631
17336TIP3    H173423   6.729   1.765   5.796 -0.5217 -1.1027  0.2887
17336TIP3    H273424   6.774   1.736   5.654 -0.4424 -2.2460  0.5402
17337TIP3   OH273425   1.425   1.005   2.611 -0.4213  0.2914 -0.3851
17337TIP3    H173426   1.501   1.022   2.554  0.2884  2.1723  1.0138
17337TIP3    H273427   1.360   1.070   2.583 -0.8894 -0.2014 -0.4537
17338TIP3   OH273428   5.214   2.731  15.072  0.0011  0.2854  0.4098
17338TIP3    H173429   5.205   2.822  15.099 -1.7469  0.0383  0.7618
17338TIP3    H273430   5.136   2.714  15.019 -0.4675 -1.4161  1.5599
17339TIP3   OH273431   0.581   2.153  14.838 -0.4676 -0.1850 -0.4210
17339TIP3    H173432   0.520   2.105  14.781  0.5409 -0.2597 -1.4505
17339TIP3    H273433   0.632   2.207  14.779  1.3997 -1.1229  0.2628
17340TIP3   OH273434   2.001   5.239   3.805 -0.2105 -0.0393  0.1562
17340TIP3    H173435   2.030   5.239   3.896 -2.5690 -0.0117  0.9850
17340TIP3    H273436   1.985   5.331   3.784 -0.0106 -0.0775 -0.1697
17341TIP3   OH273437   4.041   0.590  15.322  0.1985  0.1706 -0.2050
17341TIP3    H173438   4.102   0.534  15.369  0.4040 -0.0973 -0.7917
17341TIP3    H273439   4.001   0.645  15.391  2.5820  1.8147 -0.0247
17342TIP3   OH273440   1.465   4.486  14.485 -0.1802  0.2342  0.7465
17342TIP3    H173441   1.385   4.509  14.532 -0.4388  0.1083  0.3646
17342TIP3    H273442   1.528   4.554  14.512  0.0101 -0.4640  2.1451
17343TIP3   OH273443   5.366   2.448  15.646 -0.1276 -0.0634  0.5691
17343TIP3    H173444   5.280   2.406  15.640 -0.8340  1.0192  2.4489
17343TIP3    H273445   5.358   2.526  15.591 -0.0597 -0.3733  0.1083
17344TIP3   OH273446   3.640   1.491   4.616 -0.4068 -0.1491 -0.3817
17344TIP3    H173447   3.581   1.566   4.608  0.2233  0.2880 -1.0408
17344TIP3    H273448   3.710   1.508   4.552  1.5145  0.3487  1.7339
17345TIP3   OH273449   1.484   5.743   1.673  0.1266  0.5122 -0.0654
17345TIP3    H173450   1.537   5.675   1.630  0.2928  0.1528  0.6950
17345TIP3    H273451   1.395   5.728   1.640  0.1002 -0.2852  0.3343
17346TIP3   OH273452   2.503   4.118   4.900  1.0350  0.0973 -0.2998
17346TIP3    H173453   2.427   4.073   4.864  0.7428 -0.1092  0.5612
17346TIP3    H273454   2.576   4.058   4.884  0.8071 -0.2585 -0.0127
17347TIP3   OH273455   4.021   1.011  12.697  0.2550  0.1401 -0.0332
17347TIP3    H173456   4.032   1.090  12.645 -1.5097 -0.0969 -0.8505
17347TIP3    H273457   3.987   0.946  12.636 -2.2073 -0.0501  1.3879
17348TIP3   OH273458   2.385   4.755  15.117 -0.3038 -0.3672 -0.3321
17348TIP3    H173459   2.473   4.791  15.107 -0.6905  1.4060  1.8726
17348TIP3    H273460   2.332   4.800  15.051 -0.1178  0.7932  0.2859
17349TIP3   OH273461   4.104   4.066   4.273  0.5781  0.3271 -0.1775
17349TIP3    H173462   4.125   4.156   4.250 -0.0518  0.0309 -2.0856
17349TIP3    H273463   4.049   4.073   4.352  1.2703  1.5281  0.2281
17350TIP3   OH273464   4.677   4.607  11.225 -0.3073 -0.2131 -0.9685
17350TIP3    H173465   4.749   4.643  11.276 -0.0695 -2.5936  0.5153
17350TIP3    H273466   4.713   4.596  11.137  1.1081 -1.1774 -0.2997
17351TIP3   OH273467   6.556   3.903   3.830 -0.5703  0.3308  0.8538
17351TIP3    H173468   6.554   3.982   3.775  2.2903  0.1669  0.3370
17351TIP3    H273469   6.560   3.831   3.768 -0.0667 -0.0336  1.3028
17352TIP3   OH273470   3.957   4.850   5.733 -0.3975 -0.3750  0.1791
17352TIP3    H173471   3.893   4.788   5.769 -0.7143 -0.1344  0.0447
17352TIP3    H273472   4.038   4.831   5.779 -0.8097 -0.0195  1.0812
17353TIP3   OH273473   2.115   1.012  14.258  0.1421 -0.4759 -0.1170
17353TIP3    H173474   2.061   0.939  14.287 -0.5665  0.5032  1.1213
17353TIP3    H273475   2.137   1.059  14.338  2.9693 -0.8926 -0.5426
17354TIP3   OH273476   6.527   1.377   2.174 -0.5589  0.3485 -0.7440
17354TIP3    H173477   6.526   1.459   2.124  1.8982  2.0081  1.6286
17354TIP3    H273478   6.463   1.390   2.243 -0.7353 -0.0697 -0.8282
17355TIP3   OH273479   0.845   5.926  14.588  0.1443 -0.3555 -0.3875
17355TIP3    H173480   0.777   5.900  14.526  0.1360 -2.1575  0.3338
17355TIP3    H273481   0.923   5.941  14.534  0.0781 -1.6728 -0.8766
17356TIP3   OH273482   0.023   3.026   3.985  0.1912 -0.0671 -0.1160
17356TIP3    H173483  -0.037   3.081   3.934 -1.2577 -1.0477  0.4479
17356TIP3    H273484   0.065   3.086   4.046  2.1992  1.2070 -2.5775
17357TIP3   OH273485   2.215   4.238  14.640  0.4017 -0.3353  0.1828
17357TIP3    H173486   2.260   4.175  14.697 -0.7192 -2.1442 -0.8480
17357TIP3    H273487   2.256   4.226  14.554 -0.5983 -0.4659 -0.2798
17358TIP3   OH273488   4.047   1.131  16.416 -0.3803 -0.0862 -0.1448
17358TIP3    H173489   4.018   1.049  16.376 -1.2672  0.3757 -0.4870
17358TIP3    H273490   3.988   1.197  16.379 -0.4974  0.5139  1.0825
17359TIP3   OH273491   2.278   2.487   0.816  0.0031 -0.1028 -0.0638
17359TIP3    H173492   2.236   2.404   0.843 -1.9826  0.8543 -0.0281
17359TIP3    H273493   2.369   2.477   0.842 -0.3654 -1.9655  0.6868
17360TIP3   OH273494   1.865   3.646   1.195 -0.5863  0.0866  0.8543
17360TIP3    H173495   1.792   3.629   1.135  0.2084  0.7139 -0.3405
17360TIP3    H273496   1.826   3.641   1.282 -2.2283  1.1681  0.2443
17361TIP3   OH273497   0.173   5.469   1.308  0.1107 -0.1976 -0.2372
17361TIP3    H173498   0.218   5.494   1.227 -1.7884  1.1251 -0.9570
17361TIP3    H273499   0.212   5.524   1.376  0.9967 -0.5599 -0.4474
17362TIP3   OH273500   3.148   3.629  11.300  0.5084  0.4370  0.4345
17362TIP3    H173501   3.068   3.580  11.281  0.8969 -0.0277 -0.0354
17362TIP3    H273502   3.130   3.717  11.268 -1.1180  1.3649  3.4659
17363TIP3   OH273503   3.192   5.364  15.715 -0.0927  0.2013 -0.1315
17363TIP3    H173504   3.200   5.300  15.786  1.5897  0.2409 -0.2297
17363TIP3    H273505   3.281   5.371  15.680 -0.3567  2.1690 -0.5060
17364TIP3   OH273506   5.815   6.688  13.386 -0.2988  0.2795  0.6225
17364TIP3    H173507   5.889   6.746  13.407  0.4137 -1.2190  2.5375
17364TIP3    H273508   5.765   6.683  13.467 -0.2242 -1.9103  0.5949
17365TIP3   OH273509   0.382   6.084   2.978 -0.0441  0.3420 -0.0660
17365TIP3    H173510   0.298   6.037   2.977  0.0583 -0.0051 -3.2364
17365TIP3    H273511   0.360   6.172   2.949  0.7461 -0.0604 -2.0453
17366TIP3   OH273512   0.138   5.721  14.785 -0.5435  0.2695  0.2072
17366TIP3    H173513   0.128   5.672  14.703 -0.4984  2.0945 -0.9533
17366TIP3    H273514   0.076   5.680  14.845  2.0427 -3.5897  0.5851
17367TIP3   OH273515   4.275   2.683   4.835  0.2543  0.3809 -0.1413
17367TIP3    H173516   4.279   2.588   4.827  1.0974  0.5292 -1.9719
17367TIP3    H273517   4.289   2.699   4.928 -1.4980 -1.3183  0.4846
17368TIP3   OH273518   0.053   4.592   6.187  0.3395 -0.0930  0.1131
17368TIP3    H173519  -0.027   4.628   6.223  0.5231  1.1532 -0.6615
17368TIP3    H273520   0.120   4.658   6.204  0.7452 -0.1563 -1.1090
17369TIP3   OH273521   3.825   4.247   1.138 -0.3357  0.3113  0.1817
17369TIP3    H173522   3.854   4.325   1.090  0.3920  0.4202  0.7787
17369TIP3    H273523   3.732   4.262   1.155 -0.5689  0.3451 -1.0430
17370TIP3   OH273524   1.627   4.279   3.588  0.2205 -0.6779  0.0298
17370TIP3    H173525   1.589   4.320   3.511  0.3484 -1.5281 -0.4940
17370TIP3    H273526   1.692   4.218   3.554 -0.0456 -1.4048  0.7764
17371TIP3   OH273527   0.735   4.934  11.221 -0.7094 -0.2010  0.1134
17371TIP3    H173528   0.794   4.867  11.187 -1.9717 -2.5066  2.1119
17371TIP3    H273529   0.652   4.917  11.177 -1.2388 -0.4747  1.1914
17372TIP3   OH273530   2.016   5.662   5.152  0.4634 -0.1848  0.2373
17372TIP3    H173531   2.072   5.702   5.084  1.3873 -1.2743  0.3388
17372TIP3    H273532   1.942   5.626   5.103 -0.5571  1.8551  0.1672
17373TIP3   OH273533   5.556   0.874   3.587 -0.1887  0.3655  0.2276
17373TIP3    H173534   5.497   0.950   3.581 -0.5629  0.0082 -0.8627
17373TIP3    H273535   5.582   0.857   3.497 -0.7751 -1.3038  0.3383
17374TIP3   OH273536   2.457   3.517   5.342 -0.1161 -0.0615 -0.0783
17374TIP3    H173537   2.497   3.589   5.390  1.5017 -0.6797 -0.3931
17374TIP3    H273538   2.501   3.518   5.256  0.8628 -2.1071  0.3218
17375TIP3   OH273539   2.942   4.008  11.705  0.4415 -0.0054  0.3974
17375TIP3    H173540   2.975   3.983  11.619  0.3877  0.0382  0.3638
17375TIP3    H273541   3.007   3.975  11.766  0.8200  0.5546  0.3021
17376TIP3   OH273542   4.495   3.091  10.835 -0.2808  0.4307 -0.0133
17376TIP3    H173543   4.488   3.166  10.776 -0.8133 -0.8389 -1.6519
17376TIP3    H273544   4.418   3.039  10.816  1.8814 -2.4412 -1.7549
17377TIP3   OH273545   4.678   1.634   2.552  0.0123  0.1976  0.1986
17377TIP3    H173546   4.636   1.708   2.509 -1.4874 -0.7667 -0.0826
17377TIP3    H273547   4.640   1.633   2.640 -0.7894 -0.8476 -0.1446
17378TIP3   OH273548   2.007   1.137  16.140 -0.2313  0.3192 -0.6250
17378TIP3    H173549   2.039   1.048  16.153 -0.0462  0.3968 -0.5559
17378TIP3    H273550   1.912   1.129  16.148 -0.1110  0.5173  1.7385
17379TIP3   OH273551   6.717   2.639   2.379 -0.0078 -0.0311 -0.1341
17379TIP3    H173552   6.627   2.661   2.402  0.4775  1.7810  0.1447
17379TIP3    H273553   6.713   2.613   2.287 -0.8071 -0.0339 -0.1041
17380TIP3   OH273554   2.679   5.740   5.035  0.2483  0.1598  0.5143
17380TIP3    H173555   2.732   5.804   5.082  1.5314  0.0832 -0.7525
17380TIP3    H273556   2.699   5.656   5.076  0.2555  0.2745  0.7464
17381TIP3   OH273557   3.536   2.373  11.564 -0.4362 -0.0607 -0.1354
17381TIP3    H173558   3.530   2.434  11.638  1.3332 -2.0329  1.8020
17381TIP3    H273559   3.592   2.418  11.500 -1.4650  1.4270 -0.0316
17382TIP3   OH273560   6.497   1.072  14.333 -0.3640  0.0395  0.2804
17382TIP3    H173561   6.549   0.991  14.329  0.3557  0.5431 -1.0563
17382TIP3    H273562   6.560   1.139  14.359 -0.9507  0.2053  1.3235
17383TIP3   OH273563   1.939   0.765  10.952  0.4127  0.4367 -0.2830
17383TIP3    H173564   1.858   0.785  10.905 -0.0185 -0.7514 -0.0771
17383TIP3    H273565   1.998   0.730  10.885  0.8324  1.4521 -0.4631
17384TIP3   OH273566   1.419   4.914   6.702 -0.2736  0.0330  0.8945
17384TIP3    H173567   1.377   4.866   6.631 -0.6852  1.3473  0.2131
17384TIP3    H273568   1.510   4.926   6.672 -0.3014  0.1101  0.8411
17385TIP3   OH273569   2.003   4.321   5.699 -0.1645 -0.1543 -0.1170
17385TIP3    H173570   1.995   4.337   5.605  2.0090 -0.6996 -0.4557
17385TIP3    H273571   1.933   4.373   5.738  0.3519  2.0494 -1.8741
17386TIP3   OH273572   2.793   2.234   3.030  0.4013  0.6117 -0.2045
17386TIP3    H173573   2.829   2.291   3.098 -1.0169  1.1306  0.1529
17386TIP3    H273574   2.765   2.294   2.961  0.2145  0.2332 -0.4602
17387TIP3   OH273575   4.855   0.847  14.949  0.3942 -0.4085 -0.6690
17387TIP3    H173576   4.799   0.923  14.966  0.6701  0.2441 -2.4353
17387TIP3    H273577   4.926   0.881  14.894 -0.4925 -2.2107 -3.1389
17388TIP3   OH273578   1.381   5.707   4.346  0.3075 -0.0496  0.2554
17388TIP3    H173579   1.461   5.728   4.297  0.8935 -1.9129  0.3562
17388TIP3    H273580   1.406   5.712   4.438 -0.6011  2.6783  0.4510
17389TIP3   OH273581   0.421   2.919  11.131  0.0342  0.5298  0.3519
17389TIP3    H173582   0.452   2.925  11.222  2.1546  2.0045 -0.3807
17389TIP3    H273583   0.445   3.003  11.092 -2.3910  0.6076 -1.1699
17390TIP3   OH273584   6.264   2.941  15.725 -0.6462  0.0996 -0.1924
17390TIP3    H173585   6.255   2.846  15.725 -1.1604  0.1353 -1.5813
17390TIP3    H273586   6.225   2.968  15.809  1.2198 -1.0203  1.1091
17391TIP3   OH273587   5.771   1.089  11.911  0.6545  0.3826 -0.0203
17391TIP3    H173588   5.716   1.035  11.967  0.9293 -0.7686 -0.8431
17391TIP3    H273589   5.720   1.101  11.831  0.8054  0.9292 -0.0422
17392TIP3   OH273590   5.278   4.257  15.400 -0.3676 -0.3769 -0.1510
17392TIP3    H173591   5.296   4.180  15.454  1.5771 -0.8656 -1.4322
17392TIP3    H273592   5.208   4.230  15.341  0.4148 -1.2348 -0.7003
17393TIP3   OH273593   6.660   3.439  15.294 -0.4646 -0.7994  0.9345
17393TIP3    H173594   6.673   3.516  15.348 -0.2051 -0.4069  0.3233
17393TIP3    H273595   6.611   3.378  15.349 -1.9166  0.3381  0.9428
17394TIP3   OH273596   5.298   0.737  17.053 -0.5125 -0.4071  0.4547
17394TIP3    H173597   5.221   0.746  16.996  0.7020 -2.0063 -1.5485
17394TIP3    H273598   5.310   0.825  17.090 -1.5316  0.6362 -1.5437
17395TIP3   OH273599   5.184   0.680  12.254  0.9433  0.1260 -0.6153
17395TIP3    H173600   5.269   0.647  12.226  0.1223 -1.5037 -1.2992
17395TIP3    H273601   5.131   0.602  12.269  0.1096  1.0350  1.6850
17396TIP3   OH273602   0.598   3.458   4.904 -0.1826  0.2790 -0.3568
17396TIP3    H173603   0.518   3.407   4.911  0.0514 -0.4177 -2.2179
17396TIP3    H273604   0.578   3.541   4.947 -1.4827 -0.3371  0.2626
17397TIP3   OH273605   0.495   4.345   5.190  0.1019 -0.1962 -0.4626
17397TIP3    H173606   0.471   4.332   5.098  0.6539  0.5857 -0.7219
17397TIP3    H273607   0.521   4.437   5.196 -1.6274  0.2806  0.8537
17398TIP3   OH273608   6.320   3.487   4.275 -1.1028  0.6814 -0.4421
17398TIP3    H173609   6.390   3.548   4.300  1.2471 -1.6681 -0.7948
17398TIP3    H273610   6.276   3.466   4.358  0.5423  0.0466  0.3221
17399TIP3   OH273611   4.904   5.946  11.808 -0.0936 -0.3423  0.8809
17399TIP3    H173612   4.994   5.941  11.774 -0.9861  0.6238 -1.8934
17399TIP3    H273613   4.850   5.910  11.737 -2.0658  0.9963  1.6278
17400TIP3   OH273614   6.010   5.327  11.094 -0.2659 -0.6668  0.0296
17400TIP3    H173615   6.070   5.267  11.051  0.3766 -1.4254  1.8982
17400TIP3    H273616   5.958   5.272  11.153 -0.0935  0.4968  1.3191
17401TIP3   OH273617   1.409   3.507   1.805  0.4580  0.0866 -0.0883
17401TIP3    H173618   1.404   3.603   1.809  0.2084  0.0442  0.8851
17401TIP3    H273619   1.374   3.485   1.719  1.8724  0.9424 -0.9202
17402TIP3   OH273620   3.392   0.154   3.667 -0.4349 -0.6136  0.5626
17402TIP3    H173621   3.461   0.096   3.700  0.6323  0.8659  1.0177
17402TIP3    H273622   3.360   0.200   3.745 -1.2693 -0.5832  0.2100
17403TIP3   OH273623   6.523   4.730   1.687 -0.0507 -0.1194 -0.4302
17403TIP3    H173624   6.466   4.654   1.698  2.1236 -1.8366 -0.4322
17403TIP3    H273625   6.602   4.696   1.646  1.9964  1.6825  1.7179
17404TIP3   OH273626   0.836   2.667  12.960  0.7528 -0.0753  0.2069
17404TIP3    H173627   0.900   2.628  12.901  1.3203 -0.2715  0.9462
17404TIP3    H273628   0.807   2.595  13.016 -0.0790  0.0212 -0.0902
17405TIP3   OH273629   3.275   2.670   2.923  0.1593 -0.2001 -0.2340
17405TIP3    H173630   3.276   2.714   2.839 -1.2499  0.3782  0.0222
17405TIP3    H273631   3.238   2.583   2.905  3.0057 -1.4253 -0.7527
17406TIP3   OH273632   0.946   4.541  15.855  0.3173 -0.3897  0.3868
17406TIP3    H173633   1.026   4.490  15.871  0.7707 -0.6279 -2.1184
17406TIP3    H273634   0.902   4.494  15.783 -0.7491  1.1501 -0.0101
17407TIP3   OH273635   5.080   2.485  12.721 -0.1427 -0.5934  0.3181
17407TIP3    H173636   5.089   2.516  12.630 -0.4792 -0.0423  0.4684
17407TIP3    H273637   4.992   2.449  12.725  0.1991 -1.4626  0.1816
17408TIP3   OH273638   1.164   3.653   1.510 -0.7152  0.0378  0.3432
17408TIP3    H173639   1.191   3.570   1.549  0.2536  0.6162  0.9303
17408TIP3    H273640   1.092   3.683   1.566 -0.8387 -0.2226  0.3296
17409TIP3   OH273641   3.821   0.829  12.571  0.0606  0.3569 -0.5274
17409TIP3    H173642   3.809   0.870  12.656 -0.5674  0.3864 -0.6285
17409TIP3    H273643   3.746   0.857  12.519  0.3393  0.1892 -1.0334
17410TIP3   OH273644   4.591   0.310   1.611 -0.4925 -0.1630  0.0432
17410TIP3    H173645   4.512   0.363   1.601  0.4920  1.1908 -0.9448
17410TIP3    H273646   4.591   0.285   1.704 -1.1984  1.2858  0.4670
17411TIP3   OH273647   3.832   2.176  11.081  0.0959  0.3644  0.0141
17411TIP3    H173648   3.846   2.154  11.173 -0.8724 -1.1620 -0.1755
17411TIP3    H273649   3.912   2.149  11.037  1.0475  2.1777  0.5359
17412TIP3   OH273650   4.513   1.601  11.336 -0.0527  0.2670 -0.0680
17412TIP3    H173651   4.441   1.541  11.356 -0.6355  0.9549 -0.0478
17412TIP3    H273652   4.569   1.553  11.276  0.7911 -1.1853  1.7758
17413TIP3   OH273653   5.818   1.788  13.243  0.4536 -0.2726  0.0963
17413TIP3    H173654   5.819   1.708  13.296 -2.1303 -0.6451 -0.3234
17413TIP3    H273655   5.740   1.835  13.272 -0.0584  0.3597 -2.1422
17414TIP3   OH273656   0.221   0.374   4.780  0.0463  0.3779 -0.3896
17414TIP3    H173657   0.193   0.465   4.789  2.7609  1.3248 -0.5906
17414TIP3    H273658   0.314   0.379   4.759  0.1693 -2.4566 -0.9875
17415TIP3   OH273659   0.080   3.324  14.234  0.1882  0.4605  0.1772
17415TIP3    H173660   0.172   3.348  14.242 -0.1580  2.1679 -0.6130
17415TIP3    H273661   0.068   3.300  14.143  0.0858 -0.9107  0.5309
17416TIP3   OH273662   3.727   3.522  12.763 -0.3890 -0.4208  0.1655
17416TIP3    H173663   3.680   3.593  12.807 -1.5394 -1.3363  0.4335
17416TIP3    H273664   3.721   3.544  12.670 -1.0987 -0.3842  0.2194
17417TIP3   OH273665   5.542   0.059  11.267 -0.0154  0.5140 -0.1551
17417TIP3    H173666   5.501   0.145  11.257  1.4310  1.2888  0.3940
17417TIP3    H273667   5.579   0.040  11.181  1.6062  1.4918  0.2925
17418TIP3   OH273668   2.756   6.180   3.313 -0.2016 -0.4157 -0.1367
17418TIP3    H173669   2.801   6.100   3.288  0.4299 -0.1171  0.0323
17418TIP3    H273670   2.763   6.183   3.409 -0.5892 -0.3694 -0.1075
17419TIP3   OH273671   3.488   2.320  15.023 -0.0620 -0.3604 -0.0906
17419TIP3    H173672   3.498   2.252  14.957 -2.3897  1.6675 -2.7628
17419TIP3    H273673   3.577   2.344  15.046  0.8159 -2.8026 -0.6218
17420TIP3   OH273674   4.293   5.599  13.144 -0.9991 -0.2386  0.1112
17420TIP3    H173675   4.277   5.692  13.129 -1.9330 -0.2829  0.7843
17420TIP3    H273676   4.294   5.561  13.056  0.0340  0.4887 -0.2192
17421TIP3   OH273677   5.982   2.877   5.845 -0.1292 -0.3476 -0.2238
17421TIP3    H173678   6.075   2.879   5.821  0.0961 -0.6603  0.5746
17421TIP3    H273679   5.936   2.902   5.765  0.5382 -1.9544 -1.1581
17422TIP3   OH273680   2.620   1.601   4.624 -0.0982  0.5143  0.0614
17422TIP3    H173681   2.675   1.523   4.618 -2.7821 -1.4875 -0.6477
17422TIP3    H273682   2.574   1.591   4.707  0.4282  2.0721  0.5793
17423TIP3   OH273683   4.612   1.211  11.366 -0.2766  0.8407  0.5109
17423TIP3    H173684   4.680   1.148  11.342 -0.4069  0.1486  1.8497
17423TIP3    H273685   4.627   1.286  11.309  0.8188  0.1949 -0.0762
17424TIP3   OH273686   4.083   5.023   4.839  0.0200 -0.3693  0.2590
17424TIP3    H173687   4.047   4.954   4.895 -1.3018 -0.2779 -0.4416
17424TIP3    H273688   4.089   5.099   4.897  2.4119 -1.2477  1.3073
17425TIP3   OH273689   1.708   4.817  14.538  0.2587 -0.8450 -0.7555
17425TIP3    H173690   1.726   4.897  14.588  0.4776 -1.5117  0.2664
17425TIP3    H273691   1.650   4.846  14.468  0.0972  0.1609 -0.2371
17426TIP3   OH273692   1.131   3.907  16.404  0.3454  0.2641  0.2576
17426TIP3    H173693   1.107   3.833  16.349  3.0156  0.0260 -0.7282
17426TIP3    H273694   1.088   3.982  16.365 -0.2602 -0.3787 -0.3183
17427TIP3   OH273695   0.138   4.265   4.045  0.3361 -0.2794  0.2274
17427TIP3    H173696   0.125   4.197   4.112  1.4525  0.8794  1.6898
17427TIP3    H273697   0.065   4.253   3.984 -2.2084  0.1132  2.9599
17428TIP3   OH273698   2.243   3.450  13.415 -0.2995 -0.1854 -0.3688
17428TIP3    H173699   2.212   3.447  13.505 -1.3350 -0.7073 -0.7285
17428TIP3    H273700   2.178   3.504  13.369 -1.3173 -2.1393 -1.3526
17429TIP3   OH273701   4.410   4.376  10.990 -0.0756  0.1232 -0.3905
17429TIP3    H173702   4.503   4.382  10.967 -0.5614  0.7357 -2.4569
17429TIP3    H273703   4.390   4.283  10.988  0.7618 -0.1362  1.4487
17430TIP3   OH273704   6.666   5.067  15.367  0.3142  0.1614 -0.1858
17430TIP3    H173705   6.746   5.049  15.318  0.8924  1.2939  0.3009
17430TIP3    H273706   6.632   5.147  15.328 -1.5220 -1.1695 -1.4993
17431TIP3   OH273707   4.984   4.887  16.504  0.2769 -0.1385 -0.5172
17431TIP3    H173708   4.937   4.953  16.554 -0.1452 -0.2303 -0.7905
17431TIP3    H273709   5.022   4.830  16.571 -2.0299 -1.4979 -0.2560
17432TIP3   OH273710   3.606   0.065  13.642 -0.3727 -0.0685 -0.2608
17432TIP3    H173711   3.655   0.063  13.560 -0.0456  0.0351 -0.0694
17432TIP3    H273712   3.617  -0.024  13.677  0.0196  0.0719 -0.0209
17433TIP3   OH273713   3.374   5.392   0.255  0.1502  0.0460  0.0561
17433TIP3    H173714   3.405   5.461   0.314 -0.2719  0.1933  0.1081
17433TIP3    H273715   3.359   5.437   0.172 -0.0001 -0.0074  0.0541
17434TIP3   OH273716   4.228   1.277   5.133 -0.3444  0.4695  0.0855
17434TIP3    H173717   4.294   1.239   5.192  0.1728 -0.5343 -1.0913
17434TIP3    H273718   4.156   1.302   5.191  0.5426  0.4424  1.2573
17435TIP3   OH273719   4.797   3.451  11.738 -0.1454 -0.1332  1.3562
17435TIP3    H173720   4.792   3.454  11.642  0.2831  0.4444  1.3480
17435TIP3    H273721   4.713   3.413  11.765 -0.9057  1.1223  0.8259
17436TIP3   OH273722   4.108   4.538   5.773 -0.2956  0.1425  0.2753
17436TIP3    H173723   4.179   4.475   5.776 -1.0717 -0.7588  2.3948
17436TIP3    H273724   4.141   4.614   5.822  0.3272  1.0789 -1.5305
17437TIP3   OH273725   5.498   0.612   5.477 -0.1728  0.4363  0.0997
17437TIP3    H173726   5.444   0.597   5.555 -1.3022  3.1149 -0.0550
17437TIP3    H273727   5.554   0.686   5.502 -0.1842  0.9815 -1.4286
17438TIP3   OH273728   0.469   0.652   3.566  1.0204  0.1997 -0.1170
17438TIP3    H173729   0.561   0.673   3.585  1.7770 -1.0382 -2.0656
17438TIP3    H273730   0.437   0.610   3.646  1.6230  2.0454  1.1687
17439TIP3   OH273731   5.236   4.222   3.744 -0.1606  0.3994 -0.3192
17439TIP3    H173732   5.280   4.267   3.816 -3.1626  1.6759  0.8829
17439TIP3    H273733   5.173   4.164   3.786 -2.2009  1.3835 -1.8378
17440TIP3   OH273734   3.618   4.408  15.526  0.1239 -1.2411  0.4036
17440TIP3    H173735   3.698   4.458  15.510 -1.2943  1.7617  1.9541
17440TIP3    H273736   3.556   4.440  15.460 -0.7283 -1.1833  1.2149
17441TIP3   OH273737   6.564   0.172   2.922  0.3209 -0.0963 -0.6154
17441TIP3    H173738   6.633   0.168   2.989 -0.7369 -1.5327  0.4618
17441TIP3    H273739   6.567   0.262   2.890  2.0486  0.1417  0.0837
17442TIP3   OH273740   4.543   1.233   3.239  0.0300  0.1386 -0.0320
17442TIP3    H173741   4.481   1.199   3.175  0.2505 -1.2251  0.4344
17442TIP3    H273742   4.503   1.313   3.272 -2.0442 -1.2813  1.0821
17443TIP3   OH273743   5.058   1.113  16.883  0.2960  0.0531 -0.1964
17443TIP3    H173744   5.101   1.134  16.800  1.9216 -0.8865  0.3731
17443TIP3    H273745   5.109   1.160  16.949 -0.4790  0.1307  0.3612
17444TIP3   OH273746   2.549   1.546   5.784  0.2015  0.1516 -0.0668
17444TIP3    H173747   2.498   1.517   5.859 -0.1059  1.6283  0.3340
17444TIP3    H273748   2.531   1.640   5.778  2.2443  0.5642 -0.4216
17445TIP3   OH273749   3.732   2.687   2.373 -0.4003 -0.3060 -0.0019
17445TIP3    H173750   3.789   2.719   2.303  1.3331 -0.6248  1.2172
17445TIP3    H273751   3.698   2.767   2.415 -0.0061 -0.1130 -0.0519
17446TIP3   OH273752   2.324   1.220   1.621 -0.0461 -0.0220 -0.1236
17446TIP3    H173753   2.336   1.307   1.583  0.7191  0.3644  0.9617
17446TIP3    H273754   2.237   1.223   1.662  0.1019  0.3272  0.1655
17447TIP3   OH273755   3.058   3.662  16.819  0.1514  0.4998 -0.4111
17447TIP3    H173756   3.022   3.700  16.899  0.0588  0.9194 -0.6461
17447TIP3    H273757   3.046   3.567  16.829  3.0812  0.2251  1.4985
17448TIP3   OH273758   3.426   5.841   3.814  0.3837  0.0312 -0.5882
17448TIP3    H173759   3.408   5.747   3.823  2.9244 -0.3754  1.6066
17448TIP3    H273760   3.517   5.844   3.783  1.6443  1.5912  2.7440
17449TIP3   OH273761   3.386   1.967   5.960  0.3688  0.2237  0.5887
17449TIP3    H173762   3.411   1.937   6.047 -5.8002 -2.1919  2.1226
17449TIP3    H273763   3.355   2.057   5.973  0.2675  0.1710  0.7175
17450TIP3   OH273764   0.086   2.011   3.347  0.0221 -0.2349 -0.3701
17450TIP3    H173765   0.087   1.926   3.391  2.3084  0.5989  1.4296
17450TIP3    H273766   0.082   2.075   3.418 -2.3947  1.2389 -1.6992
17451TIP3   OH273767   1.202   3.112   4.960 -0.6754  0.1899 -0.2328
17451TIP3    H173768   1.175   3.117   4.869  0.7894  2.0935 -0.6377
17451TIP3    H273769   1.176   3.197   4.997 -0.4693 -0.2149  0.8753
17452TIP3   OH273770   2.926   0.409   5.675 -0.1203 -0.7748 -0.0511
17452TIP3    H173771   3.015   0.391   5.706  0.2172 -1.4402 -1.3238
17452TIP3    H273772   2.869   0.380   5.746  0.5844 -3.0670 -0.3230
17453TIP3   OH273773   5.497   5.310  12.197 -0.0923  0.1669  1.2968
17453TIP3    H173774   5.533   5.316  12.286 -0.7459 -1.2362  1.6670
17453TIP3    H273775   5.506   5.399  12.163  0.2034  0.7271  2.7477
17454TIP3   OH273776   1.036   2.414  12.831 -0.4180  0.1919 -0.3230
17454TIP3    H173777   1.082   2.498  12.831 -0.0968  0.0165 -0.0765
17454TIP3    H273778   1.076   2.365  12.902 -1.0136  0.0481 -0.0840
17455TIP3   OH273779   0.368   6.499  11.491 -0.4372 -0.0950  0.0715
17455TIP3    H173780   0.280   6.538  11.492 -0.3556  0.1120 -0.8156
17455TIP3    H273781   0.351   6.404  11.488 -0.6415 -0.0386 -0.8566
17456TIP3   OH273782   2.585   4.716  12.268 -0.4309  0.7848  0.7217
17456TIP3    H173783   2.521   4.655  12.232 -1.9643  2.6293  0.1508
17456TIP3    H273784   2.669   4.687  12.233 -1.1861 -0.6240  0.0014
17457TIP3   OH273785   5.031   1.028  15.338  0.4087  0.4173 -0.0067
17457TIP3    H173786   5.055   1.028  15.245 -2.0284  1.5771 -0.7199
17457TIP3    H273787   4.966   1.098  15.346 -1.0292 -1.0403  2.1321
17458TIP3   OH273788   2.721   0.799  10.787  0.3074 -0.2422 -0.7731
17458TIP3    H173789   2.659   0.731  10.762 -0.1795  0.0500 -0.3818
17458TIP3    H273790   2.684   0.880  10.751 -1.4370  0.5296  2.3966
17459TIP3   OH273791   2.807   4.589  16.809 -0.1495 -0.0702  0.0183
17459TIP3    H173792   2.742   4.612  16.743 -0.3423 -0.0437  0.2152
17459TIP3    H273793   2.796   4.656  16.877  0.7708  0.5284 -0.4105
17460TIP3   OH273794   0.917   5.495   6.129  0.2223 -0.4632 -0.3815
17460TIP3    H173795   0.864   5.573   6.140 -1.4428 -1.7817  1.7897
17460TIP3    H273796   0.996   5.512   6.180  1.8621  1.2975 -3.2094
17461TIP3   OH273797   5.422   4.307  13.136  0.2066 -0.2418  0.0640
17461TIP3    H173798   5.342   4.290  13.185  1.2105 -0.6550  1.6501
17461TIP3    H273799   5.451   4.393  13.165  1.3636 -0.9268  1.0511
17462TIP3   OH273800   4.985   2.972  11.665  0.2406 -0.0132 -0.1504
17462TIP3    H173801   4.996   3.046  11.724 -1.5118 -0.2905  0.5937
17462TIP3    H273802   5.051   2.984  11.597  0.1378  2.1024  0.0753
17463TIP3   OH273803   2.865   3.559  11.747 -0.0534 -0.5096 -0.2646
17463TIP3    H173804   2.786   3.582  11.796  0.6413 -0.3429  0.8290
17463TIP3    H273805   2.853   3.468  11.723 -1.2394 -0.0600 -1.4539
17464TIP3   OH273806   4.927   1.385   1.746 -0.6737 -0.7971 -0.5156
17464TIP3    H173807   4.835   1.410   1.749 -0.0208  1.8146 -0.2432
17464TIP3    H273808   4.952   1.373   1.837 -0.4708 -0.3772 -0.5146
17465TIP3   OH273809   4.069   6.196  15.736 -0.1396 -0.3341  0.2058
17465TIP3    H173810   4.073   6.225  15.645 -0.8976  0.1738  0.3246
17465TIP3    H273811   4.026   6.111  15.733 -2.2345  0.6637  0.2657
17466TIP3   OH273812   4.075   1.096  16.917  0.2330 -0.2756 -0.3633
17466TIP3    H173813   4.053   1.011  16.879 -0.6844 -0.1507 -0.1352
17466TIP3    H273814   4.046   1.160  16.852 -0.3574 -0.0975  0.0679
17467TIP3   OH273815   5.187   6.258   1.704  0.4998  0.2345 -0.6751
17467TIP3    H173816   5.134   6.325   1.661 -0.7910  0.3968  1.0501
17467TIP3    H273817   5.262   6.306   1.739  0.5701  0.4324 -1.0928
17468TIP3   OH273818   2.049   1.175  16.414  0.7317 -0.2206 -0.0747
17468TIP3    H173819   2.027   1.160  16.322 -0.9484 -0.2643  0.3007
17468TIP3    H273820   2.090   1.262  16.415 -1.4183  0.8607 -0.5908
17469TIP3   OH273821   6.188   3.858   4.405  0.8409 -0.2503  0.3196
17469TIP3    H173822   6.172   3.814   4.488  0.0765  0.9066  0.8100
17469TIP3    H273823   6.210   3.948   4.430  0.1480  0.2327 -0.7395
17470TIP3   OH273824   5.091   1.474  11.469  0.0838  0.2931 -0.2232
17470TIP3    H173825   5.025   1.486  11.537  1.6615  1.9843  1.1296
17470TIP3    H273826   5.078   1.548  11.409  1.2297  1.1698  0.5490
17471TIP3   OH273827   6.520   3.003   2.839  0.2642  0.0943  0.6876
17471TIP3    H173828   6.450   2.940   2.820 -0.1871  0.5986  0.6779
17471TIP3    H273829   6.572   3.005   2.758 -0.0456  0.1576  0.4873
17472TIP3   OH273830   4.785   5.630   1.436  0.6271  0.0571  0.3516
17472TIP3    H173831   4.738   5.669   1.362  1.0845  0.5442  0.3174
17472TIP3    H273832   4.799   5.539   1.409  0.6687  0.1949 -0.1007
17473TIP3   OH273833   2.117   4.998  13.941  0.1053  0.0097  0.9663
17473TIP3    H173834   2.156   5.045  13.867  0.4535 -0.4786  0.8311
17473TIP3    H273835   2.141   5.049  14.018  2.2898 -1.0128  1.0570
17474TIP3   OH273836   5.523   3.752  14.796  0.2175 -0.2527 -0.2604
17474TIP3    H173837   5.548   3.844  14.796  0.5953 -0.3564 -0.3577
17474TIP3    H273838   5.484   3.737  14.710  0.6810 -0.3267 -0.4589
17475TIP3   OH273839   5.621   3.302   0.179  0.6360 -0.3613  0.4569
17475TIP3    H173840   5.585   3.306   0.267  1.8323 -1.5142  1.0454
17475TIP3    H273841   5.593   3.217   0.145 -0.6192  0.4736 -0.6715
17476TIP3   OH273842   5.877   0.138  11.394 -0.1193 -0.2731 -0.7803
17476TIP3    H173843   5.816   0.064  11.397  1.7917 -1.9053 -0.1402
17476TIP3    H273844   5.956   0.106  11.437  1.0772  1.9084 -1.2005
17477TIP3   OH273845   3.690   4.576  16.692 -1.1275 -0.6411 -0.5326
17477TIP3    H173846   3.679   4.579  16.787 -1.9823 -0.7510 -0.6124
17477TIP3    H273847   3.700   4.667  16.666 -3.6240 -0.2894 -0.5888
17478TIP3   OH273848   5.434   3.093   3.953  0.4786 -0.2500 -0.6200
17478TIP3    H173849   5.352   3.142   3.952  2.0755  2.6388 -0.6866
17478TIP3    H273850   5.421   3.027   4.021 -2.3626 -0.8762 -1.6469
17479TIP3   OH273851   1.822   1.855   5.307  0.0457  0.9665 -0.0137
17479TIP3    H173852   1.900   1.859   5.251  1.6076  2.4373  2.1222
17479TIP3    H273853   1.832   1.773   5.355  1.4312  2.0569  1.6930
17480TIP3   OH273854   4.993   2.276   4.969 -0.5582 -0.3827 -0.5172
17480TIP3    H173855   5.000   2.257   4.876 -0.0050  2.3247 -1.1081
17480TIP3    H273856   4.899   2.271   4.988 -0.9107  1.1684 -1.7490
17481TIP3   OH273857   0.526   0.124   3.775  0.4146 -0.1471  0.0556
17481TIP3    H173858   0.557   0.037   3.800 -0.0893 -0.3205  0.0914
17481TIP3    H273859   0.568   0.184   3.837 -0.1432 -0.4851  0.7661
17482TIP3   OH273860   3.653   2.926  11.193  0.5052 -0.4411 -0.2514
17482TIP3    H173861   3.671   2.868  11.267  0.9851  0.0761  0.0356
17482TIP3    H273862   3.611   2.869  11.128  1.9187 -1.3637 -0.4011
17483TIP3   OH273863   2.576   5.988   4.490  0.0119 -0.7651 -0.1828
17483TIP3    H173864   2.484   5.980   4.516 -0.6798 -0.4683 -2.3541
17483TIP3    H273865   2.623   6.002   4.572 -1.9369 -0.4347  0.9342
17484TIP3   OH273866   4.426   3.005   5.156 -0.0298  0.1499  0.0055
17484TIP3    H173867   4.448   2.931   5.213  0.1782  0.0696 -0.1794
17484TIP3    H273868   4.455   2.978   5.069  0.5647  0.6681  0.0319
17485TIP3   OH273869   5.405   0.758  13.119 -0.5824 -0.6062 -0.4555
17485TIP3    H173870   5.468   0.688  13.134 -0.7897 -0.7235 -0.1215
17485TIP3    H273871   5.428   0.825  13.184 -1.0259 -0.8030 -0.0921
17486TIP3   OH273872   0.373   1.581   5.432 -0.3640 -0.4471 -0.2474
17486TIP3    H173873   0.370   1.538   5.346 -1.9625  0.0531 -0.4833
17486TIP3    H273874   0.466   1.592   5.450  0.0277  0.5367 -2.4956
17487TIP3   OH273875   5.473   2.856   4.114 -0.6464 -0.2405  0.0619
17487TIP3    H173876   5.497   2.855   4.207 -1.4320 -0.7899  0.2648
17487TIP3    H273877   5.547   2.814   4.070 -0.1435  0.2748  0.4008
17488TIP3   OH273878   4.878   4.132  11.688  0.3360 -0.3745  0.3114
17488TIP3    H173879   4.842   4.203  11.635  1.6862  0.4962  0.5010
17488TIP3    H273880   4.826   4.133  11.769 -0.8056 -0.7832 -0.3982
17489TIP3   OH273881   5.373   1.965  12.228  0.4049 -0.5443 -0.5343
17489TIP3    H173882   5.367   2.012  12.144 -0.8312 -0.5111 -0.4438
17489TIP3    H273883   5.341   1.876  12.208 -0.9643 -0.2271  0.1173
17490TIP3   OH273884   2.278   0.533   0.654  0.5033 -0.0910 -1.0621
17490TIP3    H173885   2.281   0.496   0.743 -0.6315  0.9600 -0.5640
17490TIP3    H273886   2.367   0.566   0.639  0.2440  1.4586  0.4708
17491TIP3   OH273887   1.647   1.589   1.808  0.2848  0.6662 -0.3555
17491TIP3    H173888   1.625   1.498   1.788  0.9437  0.6751 -1.1747
17491TIP3    H273889   1.602   1.607   1.891 -0.4171 -0.1851 -0.5346
17492TIP3   OH273890   5.970   2.102   2.814  0.7065  0.4326  0.3357
17492TIP3    H173891   5.897   2.164   2.811 -1.0813 -1.5287  1.2031
17492TIP3    H273892   6.048   2.157   2.807 -0.7821  2.7711  1.0501
17493TIP3   OH273893   1.247   0.232  12.553  0.6939 -0.5371 -0.4852
17493TIP3    H173894   1.321   0.237  12.613  0.5580  0.2269 -0.3663
17493TIP3    H273895   1.211   0.321  12.552  0.2496 -0.7172 -1.1347
17494TIP3   OH273896   2.798   6.139  11.977 -0.3402 -0.0028  0.1811
17494TIP3    H173897   2.816   6.166  11.887  0.3590 -1.3321 -0.0955
17494TIP3    H273898   2.705   6.119  11.978  0.0712 -2.3609 -0.9469
17495TIP3   OH273899   4.479   0.437  10.528 -0.5045  0.1596 -0.3512
17495TIP3    H173900   4.533   0.358  10.530 -1.7046 -0.7008 -1.0435
17495TIP3    H273901   4.474   0.461  10.436 -1.0916  0.3810 -0.2651
17496TIP3   OH273902   1.244   2.968  16.122 -0.4107  0.0573  0.6181
17496TIP3    H173903   1.275   3.052  16.156  1.4981  0.1985 -1.2556
17496TIP3    H273904   1.188   2.991  16.049  1.4270 -0.2395 -0.9541
17497TIP3   OH273905   5.033   4.143   3.983 -0.0355 -0.0362  0.3579
17497TIP3    H173906   4.986   4.193   3.917  0.0009  0.1647  0.4825
17497TIP3    H273907   5.037   4.201   4.059  0.3354 -0.0807  0.3778
17498TIP3   OH273908   4.737   6.658   4.552 -0.2354 -0.0744  0.0088
17498TIP3    H173909   4.775   6.700   4.475 -0.8489 -0.0136 -0.2695
17498TIP3    H273910   4.647   6.636   4.525 -0.1896 -0.8129  0.4275
17499TIP3   OH273911   1.068   6.098  13.402  0.5563  0.0500  0.5912
17499TIP3    H173912   1.127   6.034  13.440  0.0975  0.0149  1.2607
17499TIP3    H273913   1.028   6.053  13.327  2.9194  0.7603 -1.2136
17500TIP3   OH273914   1.222   1.629  12.890  0.5016 -0.1797  0.1203
17500TIP3    H173915   1.292   1.667  12.944  0.8077 -2.4352  1.4296
17500TIP3    H273916   1.192   1.702  12.836  0.1965  2.2726  3.2667
17501TIP3   OH273917   5.295   0.558  14.692 -0.2464  0.2421  0.5343
17501TIP3    H173918   5.331   0.563  14.603 -0.3282 -1.4217  0.3780
17501TIP3    H273919   5.206   0.592  14.684 -0.1562  0.3732  0.0424
17502TIP3   OH273920   5.974   4.632  16.072 -0.5003  0.4165  0.3185
17502TIP3    H173921   6.000   4.616  15.982 -0.7468  0.9379  0.1516
17502TIP3    H273922   6.048   4.679  16.111  0.0970 -0.8290  0.7218
17503TIP3   OH273923   5.412   4.369   3.478 -0.4488  0.0496  0.3874
17503TIP3    H173924   5.395   4.275   3.480 -1.9835  0.3104  1.1408
17503TIP3    H273925   5.339   4.405   3.428  1.6181  0.6140 -2.4780
17504TIP3   OH273926   6.750   6.010  15.977  0.4289 -0.3023 -0.6012
17504TIP3    H173927   6.768   6.058  16.058 -1.2780  0.0445 -0.3920
17504TIP3    H273928   6.730   5.921  16.005 -0.5869 -0.0793 -0.5761
17505TIP3   OH273929   6.705   5.025   0.882 -0.2814 -0.5448  0.4297
17505TIP3    H173930   6.788   5.043   0.838 -1.3813 -1.4660 -2.1776
17505TIP3    H273931   6.717   5.060   0.971  2.2739  0.8304 -0.3703
17506TIP3   OH273932   1.068   2.607   1.621  0.6608 -0.0969 -0.0930
17506TIP3    H173933   0.995   2.546   1.626  0.7701 -0.6339 -2.9454
17506TIP3    H273934   1.028   2.694   1.628 -0.1358 -0.4055 -0.6761
17507TIP3   OH273935   2.656   1.857  14.961 -0.0280  0.1121 -0.4779
17507TIP3    H173936   2.669   1.809  15.042  0.5627 -0.0260 -0.6529
17507TIP3    H273937   2.578   1.911  14.977 -0.5022 -0.6576 -0.1716
17508TIP3   OH273938   5.478   2.304   2.107 -0.4351 -0.2243 -0.2491
17508TIP3    H173939   5.474   2.333   2.016 -2.6061  0.5204  0.0149
17508TIP3    H273940   5.478   2.385   2.159  1.2681 -0.6256  0.4322
17509TIP3   OH273941   1.970   0.915  14.546 -0.3594 -0.3206 -0.0215
17509TIP3    H173942   1.995   0.830  14.509 -1.9977 -0.5589 -0.6780
17509TIP3    H273943   1.876   0.908  14.559 -0.3533  1.0491  0.8890
17510TIP3   OH273944   1.710   2.758  14.635 -0.7542 -0.3963 -0.0413
17510TIP3    H173945   1.693   2.674  14.679 -1.8825 -0.1616  0.0074
17510TIP3    H273946   1.763   2.807  14.697 -1.6304 -0.3890  0.7272
17511TIP3   OH273947   5.766   3.621  11.978  0.4051 -0.1061 -0.1181
17511TIP3    H173948   5.709   3.697  11.968  0.6688  0.0641 -0.3301
17511TIP3    H273949   5.797   3.627  12.068  0.0414 -0.2344  0.0191
17512TIP3   OH273950   6.303   2.359  16.567  0.4104 -0.2642  0.5023
17512TIP3    H173951   6.249   2.421  16.615 -0.0946 -1.1475  1.0959
17512TIP3    H273952   6.267   2.273  16.588  0.5484 -0.7254 -0.9848
17513TIP3   OH273953   0.676   4.197  16.110  0.7997 -0.0200  0.4366
17513TIP3    H173954   0.619   4.140  16.059  2.2737 -1.0932 -0.0986
17513TIP3    H273955   0.629   4.212  16.191 -0.8752  0.3586 -0.5655
17514TIP3   OH273956   0.226   2.335  12.439 -0.0271 -0.5306  0.1246
17514TIP3    H173957   0.137   2.370  12.436 -0.1910 -0.9586 -0.0537
17514TIP3    H273958   0.225   2.272  12.511  0.2447 -0.2415  0.3891
17515TIP3   OH273959   2.999   6.695   0.311  0.1746 -0.4748 -0.1477
17515TIP3    H173960   2.916   6.711   0.267  0.5777 -0.5922 -0.9707
17515TIP3    H273961   3.065   6.723   0.248  0.7591  0.7032  0.9262
17516TIP3   OH273962   0.498   4.628  13.430 -0.2342 -0.3092 -0.2264
17516TIP3    H173963   0.536   4.540  13.436 -0.5900 -0.7795 -3.4238
17516TIP3    H273964   0.570   4.683  13.399 -0.1838  0.4420  1.1561
17517TIP3   OH273965   4.373   0.478  10.914  0.2391 -0.7072 -0.5592
17517TIP3    H173966   4.297   0.516  10.869  0.5543  0.4298 -0.1831
17517TIP3    H273967   4.342   0.462  11.003  0.6485  0.5805 -0.1542
17518TIP3   OH273968   4.972   4.251   1.650  0.4596 -0.0156  0.1873
17518TIP3    H173969   4.887   4.290   1.631  0.1353 -0.4055  0.7904
17518TIP3    H273970   4.988   4.191   1.578 -1.1353 -2.1053  1.4589
17519TIP3   OH273971   6.149   3.535  14.559 -0.2820  0.1534  0.1610
17519TIP3    H173972   6.090   3.605  14.584  0.2437  0.3160  0.9631
17519TIP3    H273973   6.133   3.466  14.623 -0.3257 -0.2055 -0.2308
17520TIP3   OH273974   3.462   4.165   2.486 -0.7643  0.0710 -0.3268
17520TIP3    H173975   3.454   4.253   2.522 -1.3506  0.3014 -0.9925
17520TIP3    H273976   3.556   4.152   2.475 -0.6944  0.7618 -0.5833
17521TIP3   OH273977   0.749   0.957  12.756  0.1607  0.3434  0.0459
17521TIP3    H173978   0.682   0.889  12.756 -0.2457  0.6904  2.1740
17521TIP3    H273979   0.796   0.944  12.673 -0.5336 -1.8842 -0.0538
17522TIP3   OH273980   2.833   1.439  13.175  0.1216  0.6667 -0.1755
17522TIP3    H173981   2.789   1.524  13.180  0.4044  0.7838  0.3598
17522TIP3    H273982   2.906   1.446  13.236 -0.6783 -0.4441  0.9735
17523TIP3   OH273983   3.244   5.262  13.199 -0.2247  0.5674  0.0242
17523TIP3    H173984   3.269   5.170  13.187  0.2153  0.7266 -0.3219
17523TIP3    H273985   3.269   5.304  13.116 -1.2947  0.8143 -0.1877
17524TIP3   OH273986   4.781   6.204  10.802 -0.4704  0.1609 -0.5585
17524TIP3    H173987   4.709   6.232  10.858 -0.6460  0.2334 -0.8173
17524TIP3    H273988   4.786   6.272  10.735  0.4653  0.6634  0.0083
17525TIP3   OH273989   4.954   6.671  15.610  0.5138  0.0850 -0.1050
17525TIP3    H173990   5.041   6.673  15.651 -0.1030  0.4937  1.2291
17525TIP3    H273991   4.893   6.658  15.683 -0.7546  2.3792 -0.6385
17526TIP3   OH273992   5.948   6.438  10.329  1.0980  0.1559  0.0389
17526TIP3    H173993   6.020   6.418  10.269  1.2984  0.7347  0.0775
17526TIP3    H273994   5.950   6.367  10.393  0.6715 -0.6487 -0.8237
17527TIP3   OH273995   2.765   5.050   4.033 -0.1407 -0.1443 -0.0782
17527TIP3    H173996   2.693   4.991   4.013 -1.5866  1.2565  0.7586
17527TIP3    H273997   2.748   5.128   3.979 -0.3066  0.9372  1.4799
17528TIP3   OH273998   0.233   0.694  13.293 -1.0541 -0.9046 -0.3376
17528TIP3    H173999   0.255   0.625  13.356  1.7499  1.0316  1.0488
17528TIP3    H274000   0.246   0.654  13.207 -0.7884 -2.4511  0.3966
17529TIP3   OH274001   2.629   6.388   3.056 -0.3877 -0.0422  0.0117
17529TIP3    H174002   2.535   6.406   3.049 -0.7261 -1.6190  0.1747
17529TIP3    H274003   2.652   6.415   3.146 -1.3001 -2.1245  0.9260
17530TIP3   OH274004   4.741   1.362   3.101  0.2406 -0.2482  0.6269
17530TIP3    H174005   4.701   1.449   3.100  0.9089  0.1193  2.7110
17530TIP3    H274006   4.676   1.307   3.144 -1.0347 -1.3208 -2.3559
17531TIP3   OH274007   2.269   6.298  11.967  0.4239 -0.1733  0.2042
17531TIP3    H174008   2.196   6.327  11.912 -0.0341 -0.3883  0.6833
17531TIP3    H274009   2.243   6.211  11.998 -0.3019  0.7264  2.3907
17532TIP3   OH274010   5.895   5.682   2.026 -0.6660  0.6055 -0.0897
17532TIP3    H174011   5.828   5.672   2.094 -0.6310  1.0964  0.0214
17532TIP3    H274012   5.975   5.703   2.075 -0.2421 -0.7501 -0.1631
17533TIP3   OH274013   0.389   2.042  16.158 -0.5314  0.1028 -0.0245
17533TIP3    H174014   0.382   1.999  16.073  1.1753 -0.6802  0.1796
17533TIP3    H274015   0.317   2.006  16.210  0.2571 -1.8290 -0.1818
17534TIP3   OH274016   6.373   5.224  11.704 -0.0895  0.1465  0.8817
17534TIP3    H174017   6.292   5.174  11.719  0.2976 -0.6395  0.3880
17534TIP3    H274018   6.399   5.201  11.615  1.2099 -0.3955  1.3794
17535TIP3   OH274019   6.029   5.960   1.291 -0.5454 -0.0867  0.5831
17535TIP3    H174020   6.076   6.037   1.259  0.0406 -0.9455 -0.7424
17535TIP3    H274021   6.097   5.903   1.326 -0.6328 -1.0216 -0.6707
17536TIP3   OH274022   1.801   3.495  14.128  0.0433 -0.4424 -0.7771
17536TIP3    H174023   1.811   3.588  14.146  1.2631 -0.4277 -1.4099
17536TIP3    H274024   1.840   3.452  14.204 -1.5101 -0.4654  0.0322
17537TIP3   OH274025   2.819   2.131   4.790  0.2447 -0.1480  0.4634
17537TIP3    H174026   2.910   2.130   4.759  0.1965 -1.5065  0.3109
17537TIP3    H274027   2.786   2.043   4.771 -1.1087  0.3285  0.5222
17538TIP3   OH274028   1.181   0.547   5.094 -0.0467 -0.3600  0.3962
17538TIP3    H174029   1.272   0.576   5.088  0.3590 -0.6265  3.5201
17538TIP3    H274030   1.184   0.454   5.070  0.5967 -0.4786  0.9124
17539TIP3   OH274031   4.113   5.653  13.854  0.7507 -0.0430 -0.1578
17539TIP3    H174032   4.162   5.666  13.935  0.0699 -1.2397  0.4722
17539TIP3    H274033   4.097   5.741  13.821  1.0126  0.4594  1.0175
17540TIP3   OH274034   0.931   6.543  12.346 -0.0784 -0.1197 -0.1645
17540TIP3    H174035   0.931   6.628  12.390 -1.8826  0.8629 -1.8938
17540TIP3    H274036   1.007   6.497  12.382 -0.5863  1.1334  2.8353
17541TIP3   OH274037   4.596   3.971  14.465  0.3412  0.2005 -0.0109
17541TIP3    H174038   4.568   4.036  14.401 -0.6279 -1.6142 -1.5015
17541TIP3    H274039   4.515   3.944  14.509  0.5030 -1.0662 -0.4574
17542TIP3   OH274040   0.587   6.552  11.085 -0.7259 -0.5326  0.1755
17542TIP3    H174041   0.531   6.607  11.030  0.8133  0.1571 -0.7664
17542TIP3    H274042   0.569   6.463  11.057  0.3852 -0.1695 -1.8729
17543TIP3   OH274043   1.929   1.668  13.317 -0.2848 -0.2328 -0.0230
17543TIP3    H174044   1.869   1.742  13.328 -0.3531 -0.2759 -0.0991
17543TIP3    H274045   2.015   1.707  13.310 -0.0888 -0.2511  1.7974
17544TIP3   OH274046   1.534   6.347   2.358 -0.3277 -0.4621  0.5494
17544TIP3    H174047   1.479   6.319   2.286  0.0125 -0.6079  0.3451
17544TIP3    H274048   1.485   6.324   2.437 -2.2021  2.5645  0.4240
17545TIP3   OH274049   3.483   1.754   3.272  0.4583 -0.2451 -0.0808
17545TIP3    H174050   3.489   1.845   3.299  3.1209 -0.3232 -0.1178
17545TIP3    H274051   3.448   1.758   3.183  2.3831  0.9777 -0.8611
17546TIP3   OH274052   2.795   5.424   4.838 -0.0741  0.5001  0.2378
17546TIP3    H174053   2.848   5.479   4.781 -0.9743 -0.8418 -2.0538
17546TIP3    H274054   2.754   5.485   4.900  1.2050  1.9965 -0.3334
17547TIP3   OH274055   1.387   0.630  12.410  0.1017 -0.4444  0.4626
17547TIP3    H174056   1.441   0.551  12.410 -0.4310 -0.8770  2.8610
17547TIP3    H274057   1.304   0.602  12.449  0.2543  1.4524  2.3230
17548TIP3   OH274058   2.716   3.258   1.824 -1.1488 -0.9358 -0.4044
17548TIP3    H174059   2.624   3.281   1.812 -0.8411  0.2963 -0.5595
17548TIP3    H274060   2.764   3.324   1.774 -0.0650  0.4376  2.2205
17549TIP3   OH274061   0.374   2.649  11.706  0.6640 -0.4635 -0.2668
17549TIP3    H174062   0.412   2.719  11.653  0.0966 -0.4600 -0.6701
17549TIP3    H274063   0.392   2.569  11.657 -1.2388 -0.3209 -1.3066
17550TIP3   OH274064   1.329   4.377   1.793  0.5185 -0.2296 -0.8140
17550TIP3    H174065   1.283   4.326   1.859  0.7084  0.8211  0.1579
17550TIP3    H274066   1.318   4.468   1.821  2.1983  0.1207 -1.2052
17551TIP3   OH274067   0.854   4.887  17.436  0.7642 -0.3973  0.2172
17551TIP3    H174068   0.880   4.954  17.373 -2.0716 -0.9150 -1.6648
17551TIP3    H274069   0.841   4.935  17.518 -0.5997  1.3074 -0.9299
17552TIP3   OH274070   6.068   0.867   2.793  0.7507  0.2030 -0.0314
17552TIP3    H174071   6.109   0.829   2.715 -1.7539 -0.9822 -0.8818
17552TIP3    H274072   5.974   0.865   2.774  0.1788  1.7241  2.2416
17553TIP3   OH274073   2.352   0.809   4.095 -0.0573  0.3135  0.5661
17553TIP3    H174074   2.379   0.773   4.011  1.9256  1.8015  0.5100
17553TIP3    H274075   2.272   0.858   4.075 -0.4068 -0.5247 -0.1495
17554TIP3   OH274076   3.513   1.494   2.647 -0.5508 -0.0101  0.4751
17554TIP3    H174077   3.548   1.504   2.736  0.4331 -1.3071  0.2701
17554TIP3    H274078   3.542   1.573   2.601  1.7321 -0.7626  0.4793
17555TIP3   OH274079   2.469   4.323   4.718  0.3909  0.1979 -0.3510
17555TIP3    H174080   2.487   4.262   4.789 -0.9398 -1.0867 -1.0495
17555TIP3    H274081   2.474   4.410   4.758  1.5816 -0.3837  0.8430
17556TIP3   OH274082   3.172   2.211   6.264  0.4692 -0.2560  0.3538
17556TIP3    H174083   3.241   2.144   6.268  0.6524 -0.0036  2.7031
17556TIP3    H274084   3.220   2.293   6.250  0.4465 -0.3243 -0.1451
17557TIP3   OH274085   3.349   1.220  16.906  0.0814  0.0925  0.5161
17557TIP3    H174086   3.340   1.127  16.884  0.0584 -0.2343  1.7746
17557TIP3    H274087   3.404   1.256  16.838  1.7519 -1.2905  1.0589
17558TIP3   OH274088   5.262   5.016   4.728 -0.6685 -0.3189  0.7135
17558TIP3    H174089   5.209   4.937   4.736  0.5464 -1.2519 -0.1579
17558TIP3    H274090   5.225   5.064   4.654 -0.1552 -1.1070 -0.0724
17559TIP3   OH274091   3.622   6.338  16.710 -0.0281 -0.0817 -0.2868
17559TIP3    H174092   3.585   6.426  16.703  0.4271  0.1201 -0.2094
17559TIP3    H274093   3.591   6.304  16.794 -0.5672 -0.1699 -0.5169
17560TIP3   OH274094   3.561   0.927  15.811  0.4776 -0.0952 -0.2242
17560TIP3    H174095   3.618   0.977  15.869  0.4318 -0.3515  0.0424
17560TIP3    H274096   3.579   0.836  15.833 -0.5271 -0.1685  0.3359
17561TIP3   OH274097   6.702   6.017  14.322 -0.1432  0.1805  0.0768
17561TIP3    H174098   6.791   6.049  14.341 -0.4430 -0.0835  2.2337
17561TIP3    H274099   6.647   6.095  14.331 -0.2667  0.0914  0.0843
17562TIP3   OH274100   5.778   2.594   5.580 -0.4278 -0.0551  0.9054
17562TIP3    H174101   5.697   2.564   5.539  0.2750 -0.8182  0.0395
17562TIP3    H274102   5.752   2.672   5.630 -1.1834  1.3867 -1.5902
17563TIP3   OH274103   2.762   0.063   3.947  0.1917 -0.2807 -0.0406
17563TIP3    H174104   2.837   0.122   3.950  0.9332 -1.0789 -1.6923
17563TIP3    H274105   2.799  -0.024   3.965 -0.6627 -0.4553  0.9977
17564TIP3   OH274106   6.179   2.523  13.791 -0.0605  0.1929  0.2580
17564TIP3    H174107   6.267   2.561  13.790 -0.2521  0.9754  3.1191
17564TIP3    H274108   6.129   2.576  13.729  1.0009  1.0566  0.1056
17565TIP3   OH274109   1.336   4.879   4.916  0.3609  0.3450 -0.1005
17565TIP3    H174110   1.243   4.887   4.897  0.2485 -0.0560  0.2582
17565TIP3    H274111   1.360   4.794   4.879  1.0753  1.3492 -2.0949
17566TIP3   OH274112   3.283   1.318  12.316  0.1502  0.0960 -0.3312
17566TIP3    H174113   3.282   1.357  12.403  0.3361  0.8010 -0.6351
17566TIP3    H274114   3.227   1.376  12.263 -1.0024 -1.0307 -0.3938
17567TIP3   OH274115   1.071   1.419   4.549 -0.7852 -0.0043 -0.4986
17567TIP3    H174116   1.119   1.490   4.591 -0.8564 -0.4789  0.4051
17567TIP3    H274117   1.004   1.463   4.496 -0.5316  0.6027 -0.3214
17568TIP3   OH274118   4.705   0.961  15.336  0.5306 -0.1970 -0.0391
17568TIP3    H174119   4.798   0.966  15.357  0.4272  2.1611  0.1654
17568TIP3    H274120   4.681   1.051  15.311 -1.5012 -0.9182 -0.9352
17569TIP3   OH274121   6.242   4.120   5.384  0.0552  0.6866  0.2360
17569TIP3    H174122   6.313   4.078   5.334  0.0267  0.9021  0.0115
17569TIP3    H274123   6.285   4.150   5.464  0.0943  0.3051  0.3567
17570TIP3   OH274124   0.864   5.281  13.098  1.1774 -0.3865 -0.2937
17570TIP3    H174125   0.857   5.189  13.122  2.6103 -0.3037  0.5452
17570TIP3    H274126   0.913   5.321  13.170 -1.9023  1.6646  0.9311
17571TIP3   OH274127   5.467   6.001   2.129 -0.1795 -0.7084  0.3132
17571TIP3    H174128   5.489   5.986   2.037 -0.6739 -1.0863  0.2530
17571TIP3    H274129   5.546   5.975   2.177  0.0325 -0.6387  0.0058
17572TIP3   OH274130   5.787   0.286  15.743  0.0332  0.0819 -0.3661
17572TIP3    H174131   5.751   0.363  15.700  0.8032  1.4026  1.2578
17572TIP3    H274132   5.821   0.233  15.671 -0.4546  1.2862 -1.5225
17573TIP3   OH274133   0.506   4.336  13.440 -0.1837 -0.4149 -0.3373
17573TIP3    H174134   0.426   4.310  13.395 -0.4274  1.6086 -1.2157
17573TIP3    H274135   0.571   4.271  13.414 -1.0592 -0.9648 -1.2192
17574TIP3   OH274136   0.169   4.872   6.193 -0.1209 -0.4824 -0.2330
17574TIP3    H174137   0.213   4.956   6.176 -0.5801 -0.4876 -1.5392
17574TIP3    H274138   0.240   4.813   6.219  0.2447  0.2343  0.4591
17575TIP3   OH274139   5.734   1.677  11.099  0.1130 -0.6027  0.1726
17575TIP3    H174140   5.737   1.734  11.022 -0.9068  0.7628  1.0968
17575TIP3    H274141   5.709   1.735  11.171  1.2043 -1.8021  1.5866
17576TIP3   OH274142   1.589   6.372   1.778 -0.2933  0.1221 -0.3246
17576TIP3    H174143   1.584   6.439   1.710 -2.0400 -0.6405 -1.0183
17576TIP3    H274144   1.671   6.326   1.761  0.2832  1.2306 -0.6336
17577TIP3   OH274145   1.400   3.661   4.297  0.2445  0.2208  0.3367
17577TIP3    H174146   1.309   3.644   4.271  0.4937 -0.1499 -0.3273
17577TIP3    H274147   1.398   3.747   4.338 -0.2847  0.5697 -0.3950
17578TIP3   OH274148   3.031   1.289   3.280  0.1353  0.2970 -0.4723
17578TIP3    H174149   3.075   1.362   3.237 -0.4877  0.7517 -0.3527
17578TIP3    H274150   3.098   1.250   3.336  0.7539  0.1511 -1.2961
17579TIP3   OH274151   2.098   5.173  13.475 -0.0747  0.2041 -0.1024
17579TIP3    H174152   2.128   5.262  13.496 -1.3280  0.8922 -1.0514
17579TIP3    H274153   2.122   5.162  13.382 -2.6254  0.7925 -0.9102
17580TIP3   OH274154   6.246   0.987   0.928  0.3982 -0.0238  0.4807
17580TIP3    H174155   6.177   0.923   0.911 -0.4415  0.5968  1.4815
17580TIP3    H274156   6.205   1.053   0.984  1.8970  0.1714  1.3891
17581TIP3   OH274157   2.030   1.937  11.845 -0.1286  0.0965 -0.4555
17581TIP3    H174158   2.031   1.918  11.939  1.6743  0.4183 -0.3794
17581TIP3    H274159   2.029   1.852  11.803  2.2394 -0.1707 -0.1067
17582TIP3   OH274160   4.601   6.523  14.530 -0.1180 -0.1612 -0.0672
17582TIP3    H174161   4.643   6.510  14.445  1.6841  0.6569  0.6275
17582TIP3    H274162   4.508   6.532  14.510  0.0634 -1.4770 -1.7774
17583TIP3   OH274163   6.340   6.010  14.467 -0.1135  0.3266 -0.6849
17583TIP3    H174164   6.335   5.940  14.532  4.5731  0.5318  0.2140
17583TIP3    H274165   6.348   5.964  14.383  1.0671 -0.2207 -0.2927
17584TIP3   OH274166   6.528   1.650  17.174  0.4352  0.0143  0.9456
17584TIP3    H174167   6.584   1.619  17.245  1.5019  1.2012  0.6688
17584TIP3    H274168   6.486   1.571  17.140  1.9667 -0.9327  1.1591
17585TIP3   OH274169   1.607   0.434  16.552 -0.1658 -0.1745 -0.5283
17585TIP3    H174170   1.574   0.401  16.637  0.9899  0.1489  0.0565
17585TIP3    H274171   1.545   0.398  16.488 -2.0884  0.9768  0.5763
17586TIP3   OH274172   5.036   2.123   0.152  0.3046  0.7390 -0.0852
17586TIP3    H174173   5.118   2.123   0.202 -0.2099  1.9192  0.8256
17586TIP3    H274174   5.062   2.106   0.062  1.2349 -1.7621  0.6013
17587TIP3   OH274175   1.852   1.982  10.053 -0.0398 -0.0241  0.3683
17587TIP3    H174176   1.814   1.921  10.116  0.4329  0.2545  0.9466
17587TIP3    H274177   1.944   1.955  10.046  0.7783  1.9152  2.3507
17588TIP3   OH274178   5.694   6.564   1.020 -0.0811 -0.1497 -0.2441
17588TIP3    H174179   5.720   6.476   1.047 -1.6703 -0.8011 -0.7278
17588TIP3    H274180   5.726   6.571   0.930 -0.7209 -0.5732 -0.5073
17589TIP3   OH274181   3.368   4.483  10.477  0.2403  0.2586 -0.1195
17589TIP3    H174182   3.413   4.552  10.525  0.6622  1.2558 -1.8468
17589TIP3    H274183   3.281   4.519  10.459 -0.5320 -0.7845  1.2987
17590TIP3   OH274184   2.099   5.937  17.109 -0.0007  0.2863 -0.1049
17590TIP3    H174185   2.082   5.992  17.185 -0.6095 -0.3693  0.2508
17590TIP3    H274186   2.020   5.944  17.056  0.0893  0.0934 -0.2677
17591TIP3   OH274187   3.667   2.538  11.405  0.2628  0.1722  0.3381
17591TIP3    H174188   3.603   2.599  11.441 -0.0921 -0.4253  0.7184
17591TIP3    H274189   3.743   2.593  11.385  0.0280  0.7048  0.8858
17592TIP3   OH274190   6.182   0.576  14.085  0.0034 -0.0020 -0.2619
17592TIP3    H174191   6.273   0.585  14.055  0.8598  0.4922  2.2534
17592TIP3    H274192   6.187   0.588  14.180 -2.6540 -0.4267 -0.0041
17593TIP3   OH274193   1.613   2.089   1.988 -0.1330  0.2961 -0.9099
17593TIP3    H174194   1.576   2.176   1.998 -0.8902 -0.0259 -0.8394
17593TIP3    H274195   1.631   2.081   1.894  1.4514  1.1142 -0.7152
17594TIP3   OH274196   1.612   2.205  17.405  0.3757 -0.0446  0.1658
17594TIP3    H174197   1.677   2.141  17.435  0.1562  0.2811  1.3791
17594TIP3    H274198   1.529   2.156  17.404  0.3652 -0.0267  0.1647
17595TIP3   OH274199   5.892   5.420   0.607  0.1584 -0.2101  0.7165
17595TIP3    H174200   5.836   5.349   0.575 -0.1384 -0.1003  0.9843
17595TIP3    H274201   5.972   5.413   0.554  0.1676 -0.7936  0.7921
17596TIP3   OH274202   5.510   3.322  14.658  0.4057  0.2599  0.1885
17596TIP3    H174203   5.469   3.393  14.608 -1.8437 -1.2246 -0.2510
17596TIP3    H274204   5.550   3.266  14.591  0.7798  0.2879  0.3884
17597TIP3   OH274205   6.190   0.170   4.106 -0.0843 -0.1694 -0.2841
17597TIP3    H174206   6.195   0.253   4.058 -1.0260  0.2514  0.3083
17597TIP3    H274207   6.242   0.109   4.055 -0.1140  0.5634 -1.2095
17598TIP3   OH274208   5.646   4.330   3.277 -0.1922 -0.5339  0.6528
17598TIP3    H174209   5.569   4.298   3.323  0.3895  0.4626  2.4337
17598TIP3    H274210   5.617   4.411   3.234 -0.8683 -1.7333 -1.2399
17599TIP3   OH274211   3.649   4.225   3.483  0.1638 -0.3431 -0.1797
17599TIP3    H174212   3.627   4.137   3.515  1.5283 -1.3024 -1.7031
17599TIP3    H274213   3.626   4.283   3.556 -0.2846 -2.0065  1.0848
17600TIP3   OH274214   4.908   5.473  17.425 -0.8676  0.1767  0.3626
17600TIP3    H174215   4.978   5.415  17.394 -1.2100 -1.2125  2.0456
17600TIP3    H274216   4.909   5.546  17.363 -0.2597 -1.4870 -1.7367
17601TIP3   OH274217   0.331   6.392   2.055 -0.1160  0.6494  0.2805
17601TIP3    H174218   0.400   6.338   2.094  1.8638  1.5784 -1.7058
17601TIP3    H274219   0.287   6.432   2.130  1.1185 -0.4244  1.6412
17602TIP3   OH274220   5.173   3.097  14.615  0.9748  0.1068  0.3410
17602TIP3    H174221   5.173   3.178  14.666 -2.1164  0.3827  0.1088
17602TIP3    H274222   5.110   3.114  14.544  0.4262 -2.3843  0.1490
17603TIP3   OH274223   4.260   2.955  16.267  0.7908  0.0069 -0.2452
17603TIP3    H174224   4.275   2.966  16.361 -0.9967 -0.7628  0.1667
17603TIP3    H274225   4.223   3.039  16.238 -0.9311 -0.5448  0.2673
17604TIP3   OH274226   1.186   0.885   3.204  0.2415  0.1931  0.1152
17604TIP3    H174227   1.214   0.827   3.275  0.1050  0.0729  0.0714
17604TIP3    H274228   1.267   0.916   3.164  0.3113 -0.4604 -0.2609
17605TIP3   OH274229   3.012   4.810   0.196  0.4569  0.2346  0.3014
17605TIP3    H174230   3.054   4.729   0.226 -2.8087 -0.7770  2.7312
17605TIP3    H274231   2.938   4.780   0.143  1.2183  1.8349 -1.7610
17606TIP3   OH274232   2.351   6.122   2.987 -0.4146  0.1319 -0.4617
17606TIP3    H174233   2.379   6.214   2.997  2.5271 -0.8441  1.6447
17606TIP3    H274234   2.411   6.073   3.043 -1.7881 -3.1410 -1.6495
17607TIP3   OH274235   4.457   1.883  16.905 -0.5418 -0.1097 -0.4049
17607TIP3    H174236   4.487   1.884  16.814  0.7191 -1.0875 -0.0308
17607TIP3    H274237   4.519   1.940  16.951  0.5760 -1.8113  0.3020
17608TIP3   OH274238   5.029   4.239  13.477 -0.9410  0.1543 -0.4504
17608TIP3    H174239   4.982   4.276  13.552 -0.5507 -0.3767  0.0734
17608TIP3    H274240   5.005   4.146  13.477  0.4493 -0.2459  0.1350
17609TIP3   OH274241   0.595   4.576   5.062  0.3366 -0.7368  0.2054
17609TIP3    H174242   0.590   4.648   5.125 -1.0240 -0.1388 -0.5316
17609TIP3    H274243   0.675   4.529   5.085  1.3296  1.0725  0.6548
17610TIP3   OH274244   2.340   3.607   1.100 -0.2598 -0.1110  0.1929
17610TIP3    H174245   2.414   3.547   1.090 -0.5787 -0.2795 -1.4241
17610TIP3    H274246   2.342   3.633   1.193 -0.0828 -2.5499  0.9348
17611TIP3   OH274247   5.174   2.099   2.917  0.2685 -0.6076 -0.5630
17611TIP3    H174248   5.191   2.030   2.854  0.6548  0.0389 -1.1785
17611TIP3    H274249   5.082   2.089   2.940 -0.2901  0.0427 -2.3517
17612TIP3   OH274250   3.501   3.197  13.088  0.0076  0.5148  0.1223
17612TIP3    H174251   3.504   3.280  13.041 -0.0420  0.2625 -0.3384
17612TIP3    H274252   3.424   3.152  13.053 -0.4950  0.6541  1.0317
17613TIP3   OH274253   0.799   1.987  11.408 -0.7198  0.1047  0.2820
17613TIP3    H174254   0.705   1.990  11.428 -1.0691 -1.9331 -0.7820
17613TIP3    H274255   0.823   1.895  11.420  1.0927  0.5378  0.2477
17614TIP3   OH274256   2.040   5.633  15.036 -0.2796 -0.2440  0.3427
17614TIP3    H174257   1.976   5.698  15.006  0.0700 -1.1922 -2.8407
17614TIP3    H274258   1.989   5.573  15.090 -1.6677  0.1435 -0.4798
17615TIP3   OH274259   5.752   4.340  14.611  0.0135  0.1606  0.2865
17615TIP3    H174260   5.767   4.302  14.525 -0.7002 -0.1908  0.3121
17615TIP3    H274261   5.657   4.348  14.618  0.0728  0.3834  0.9586
17616TIP3   OH274262   5.117   6.622  13.311  0.1540  0.2672 -0.5477
17616TIP3    H174263   5.062   6.657  13.381 -1.0556  1.2905 -1.9273
17616TIP3    H274264   5.206   6.645  13.336 -0.2442  0.4478  0.7352
17617TIP3   OH274265   2.216   4.919   3.623 -0.0362  0.1382  0.6329
17617TIP3    H174266   2.239   4.826   3.611 -0.1904  0.1613  0.1021
17617TIP3    H274267   2.165   4.921   3.704  0.2546 -0.1910  0.8276
17618TIP3   OH274268   2.734   5.118  12.612 -0.2595 -0.3552 -0.1372
17618TIP3    H174269   2.753   5.062  12.687 -1.4190 -1.9389 -0.9730
17618TIP3    H274270   2.797   5.091  12.546  0.5013  0.7698  0.0920
17619TIP3   OH274271   3.955   5.410   4.926 -0.1245 -0.4338  0.2780
17619TIP3    H174272   3.999   5.480   4.976 -0.8296 -0.2132  0.5974
17619TIP3    H274273   4.022   5.342   4.918  0.6013  0.2989 -0.0998
17620TIP3   OH274274   2.312   3.238  13.273 -0.6730 -0.0571  0.0753
17620TIP3    H174275   2.284   3.310  13.329  0.6648  1.2973 -0.8975
17620TIP3    H274276   2.394   3.208  13.312 -0.7755 -0.4605 -0.0183
17621TIP3   OH274277   1.179   3.173  12.834 -0.0870 -0.5182 -0.1057
17621TIP3    H174278   1.087   3.171  12.808  0.3567 -0.3925 -1.8199
17621TIP3    H274279   1.183   3.238  12.905 -1.0213  0.9686 -1.3543
17622TIP3   OH274280   1.634   2.507  15.789 -0.1859  0.2794  0.0858
17622TIP3    H174281   1.557   2.540  15.836 -0.6157  1.2317 -1.2299
17622TIP3    H274282   1.670   2.439  15.846 -1.5573  0.3552  1.0824
17623TIP3   OH274283   0.080   1.405   5.829  0.3824 -0.7311  0.1700
17623TIP3    H174284   0.143   1.426   5.898  0.7743  0.5448 -0.5264
17623TIP3    H274285   0.122   1.437   5.749 -0.2915 -1.6989 -0.5825
17624TIP3   OH274286   2.323   0.851   1.863 -0.4727  0.8052 -0.1142
17624TIP3    H174287   2.397   0.878   1.917 -0.6182 -0.0598  0.5287
17624TIP3    H274288   2.359   0.845   1.775  0.6184 -0.9891  0.3888
17625TIP3   OH274289   4.133   3.219   5.757  0.2660  0.4383 -0.1610
17625TIP3    H174290   4.099   3.242   5.844 -2.2578 -0.6169 -0.7734
17625TIP3    H274291   4.087   3.276   5.697 -2.4254 -2.5753 -1.2450
17626TIP3   OH274292   0.703   5.717  11.180  0.7093 -0.1167  0.4368
17626TIP3    H174293   0.638   5.656  11.145 -1.3143  0.6255  2.6020
17626TIP3    H274294   0.710   5.786  11.114 -1.0856  0.0006  0.3271
17627TIP3   OH274295   0.350   0.283  10.920 -0.7891  0.0907  0.4951
17627TIP3    H174296   0.426   0.226  10.935  1.8777  3.4275  1.0592
17627TIP3    H274297   0.323   0.310  11.008 -2.7590 -1.0221  0.2996
17628TIP3   OH274298   2.477   6.063  16.892  0.0520 -0.0513  0.4044
17628TIP3    H174299   2.396   6.012  16.884  0.0998  0.0159 -0.8253
17628TIP3    H274300   2.458   6.145  16.845  0.2974  0.6696  1.5305
17629TIP3   OH274301   6.461   1.807   4.567  0.4172  0.4607  0.2205
17629TIP3    H174302   6.416   1.727   4.594 -1.0504  0.9966 -0.5273
17629TIP3    H274303   6.455   1.808   4.472  1.6624  0.7710  0.1319
17630TIP3   OH274304   5.484   2.025   0.564 -0.5155 -0.4748 -0.1486
17630TIP3    H174305   5.460   1.967   0.492 -2.8815 -0.7855  0.7931
17630TIP3    H274306   5.478   2.113   0.527  1.8316 -0.6775 -1.2277
17631TIP3   OH274307   4.388   5.011  14.007 -0.1944 -0.3807  0.4634
17631TIP3    H174308   4.352   5.068  14.075  2.4810  1.9340  0.1075
17631TIP3    H274309   4.427   4.937  14.055  2.8158  1.8539  1.7482
17632TIP3   OH274310   3.142   4.048  10.348  0.3957  0.8272  0.2588
17632TIP3    H174311   3.162   4.072  10.439 -0.2990  1.8772  0.1566
17632TIP3    H274312   3.103   3.961  10.354  1.1856  0.4994  0.8635
17633TIP3   OH274313   0.102   3.283  15.815 -0.2473 -0.4680  0.2392
17633TIP3    H174314   0.056   3.224  15.874  0.3105  0.8588  2.1370
17633TIP3    H274315   0.188   3.295  15.857 -0.7374  2.5209  0.6318
17634TIP3   OH274316   4.651   4.303   1.729 -0.0774  0.2453 -0.1107
17634TIP3    H174317   4.632   4.244   1.656 -0.5636  0.1639  0.0821
17634TIP3    H274318   4.681   4.245   1.799  5.6343  0.5820 -1.7861
17635TIP3   OH274319   4.424   3.507  13.449 -0.0307  0.4729 -0.1904
17635TIP3    H174320   4.494   3.571  13.460  0.2340  0.1219  0.2354
17635TIP3    H274321   4.394   3.518  13.359 -0.2768  1.4745  0.0044
17636TIP3   OH274322   2.124   3.058   3.141  0.3924  0.3717  0.1437
17636TIP3    H174323   2.139   3.137   3.089  1.2578  0.2727  0.2277
17636TIP3    H274324   2.059   3.085   3.207 -0.8615  0.4372 -1.0860
17637TIP3   OH274325   5.047   1.090   1.943  0.4991  0.8364 -0.1155
17637TIP3    H174326   4.966   1.087   1.994  1.0703  1.2035  0.8379
17637TIP3    H274327   5.071   1.183   1.942 -1.0178  1.3555 -3.5660
17638TIP3   OH274328   5.384   5.679  14.207 -0.1959  0.2891  0.4725
17638TIP3    H174329   5.371   5.673  14.302  1.9481  1.6584  0.9182
17638TIP3    H274330   5.372   5.589  14.176 -1.6255 -0.0637  1.9206
17639TIP3   OH274331   3.456   1.076   4.947  0.3547  0.5569  0.2722
17639TIP3    H174332   3.540   1.122   4.949 -0.0854  1.3606  0.6299
17639TIP3    H274333   3.429   1.077   4.856  1.3125 -0.8126 -0.0714
17640TIP3   OH274334   1.793   6.229  11.900  0.1261 -0.7557 -0.2362
17640TIP3    H174335   1.730   6.223  11.971  0.0254 -0.0842 -0.2653
17640TIP3    H274336   1.851   6.153  11.913 -0.0091 -0.7494  0.4426
17641TIP3   OH274337   2.923   4.852   3.114  0.0066 -0.0661 -0.2018
17641TIP3    H174338   2.829   4.859   3.128 -0.2456  0.3509 -1.9007
17641TIP3    H274339   2.937   4.762   3.085  0.3229 -0.4898  1.1896
17642TIP3   OH274340   4.338   3.026   3.902  0.3768  0.4197 -0.1073
17642TIP3    H174341   4.299   2.968   3.836  0.0659  0.9511 -0.3978
17642TIP3    H274342   4.407   3.072   3.855 -1.1271  2.2732 -0.6440
17643TIP3   OH274343   1.436   4.104   1.842  0.3237  0.4829  0.7155
17643TIP3    H174344   1.354   4.115   1.890  0.1509 -0.6633  0.7077
17643TIP3    H274345   1.478   4.028   1.882  0.8599  0.3854  0.0022
17644TIP3   OH274346   6.247   3.696   4.650  0.2821  0.4701 -0.2295
17644TIP3    H174347   6.245   3.600   4.653  2.3151  0.4079  1.2910
17644TIP3    H274348   6.206   3.724   4.732  1.0525  0.8524  0.0299
17645TIP3   OH274349   4.371   1.920  13.578  0.0374 -0.8711  0.0770
17645TIP3    H174350   4.450   1.899  13.629  0.3931  1.1062  0.4077
17645TIP3    H274351   4.301   1.922  13.643  0.2781  0.4357  0.3182
17646TIP3   OH274352   1.431   2.128  16.519 -1.0135  0.3633 -0.9670
17646TIP3    H174353   1.495   2.141  16.589  1.0946 -1.2448 -2.4497
17646TIP3    H274354   1.421   2.215  16.479 -2.5917  1.4101  1.4501
17647TIP3   OH274355   6.739   1.549   2.629 -0.1604  0.3182  0.0808
17647TIP3    H174356   6.647   1.555   2.604  0.0369 -1.3615 -1.2374
17647TIP3    H274357   6.753   1.456   2.646  1.0001  0.7194  1.5729
17648TIP3   OH274358   5.906   1.188   3.449  0.7860 -1.1040 -0.1133
17648TIP3    H174359   5.894   1.231   3.534  2.5989 -2.6604  1.0306
17648TIP3    H274360   5.825   1.206   3.401 -0.2058  0.0380  1.8497
17649TIP3   OH274361   2.392   3.090  16.401  0.7026  0.7923 -0.4419
17649TIP3    H174362   2.405   3.019  16.338  1.0891  0.5768 -0.1285
17649TIP3    H274363   2.297   3.097  16.410  0.6547 -0.2328  0.1186
17650TIP3   OH274364   1.117   3.017   3.767  0.3582 -0.4075  0.6772
17650TIP3    H174365   1.117   2.932   3.723  0.2315 -0.7800  1.3718
17650TIP3    H274366   1.109   2.995   3.860  1.1127  0.3324  0.9280
17651TIP3   OH274367   2.059   5.958  16.728  0.2268 -0.3979  0.5825
17651TIP3    H174368   2.028   5.868  16.720 -2.0814  0.2797  1.1174
17651TIP3    H274369   1.988   6.004  16.774  1.1239  1.7863 -0.0680
17652TIP3   OH274370   5.667   3.514  17.410  0.0144  0.0935  0.1998
17652TIP3    H174371   5.653   3.472  17.495 -1.1017  1.1384  0.5622
17652TIP3    H274372   5.666   3.442  17.347  1.0830 -0.7226  1.0734
17653TIP3   OH274373   3.633   0.688  10.447 -0.1116  0.0686 -0.5133
17653TIP3    H174374   3.682   0.756  10.401 -2.0672  0.2826 -2.4711
17653TIP3    H274375   3.619   0.620  10.382 -1.8406 -0.2443  0.1266
17654TIP3   OH274376   0.980   1.824  16.473 -0.3075 -0.2680  0.3174
17654TIP3    H174377   1.042   1.756  16.445  0.8416  1.2375 -0.9174
17654TIP3    H274378   0.983   1.821  16.568  0.9499 -0.8705  0.2831
17655TIP3   OH274379   2.057   4.906  16.591  0.4540 -0.7407  0.1315
17655TIP3    H174380   2.086   4.989  16.553  3.0029 -0.8211  1.6431
17655TIP3    H274381   2.012   4.931  16.672 -2.0045 -0.7420 -1.1361
17656TIP3   OH274382   1.239   1.494   0.009 -0.0643  0.2782  0.1759
17656TIP3    H174383   1.223   1.539   0.093 -0.4124 -0.0961  0.3143
17656TIP3    H274384   1.166   1.433   0.001  0.9146 -0.9687  0.4725
17657TIP3   OH274385   6.230   6.438   4.719 -0.4899 -0.3007  0.0394
17657TIP3    H174386   6.291   6.442   4.792 -1.3859  2.0628  0.7610
17657TIP3    H274387   6.285   6.449   4.641  0.2822 -1.0730  0.4662
17658TIP3   OH274388   1.231   4.565  17.307 -0.5623  0.2044  0.1204
17658TIP3    H174389   1.153   4.558  17.252 -1.2897 -0.1906  1.1654
17658TIP3    H274390   1.304   4.567  17.245 -1.4151  1.0208 -0.8928
17659TIP3   OH274391   5.178   0.181   4.870 -0.5703 -0.2428 -0.0617
17659TIP3    H174392   5.119   0.194   4.944  0.2784 -0.3521  0.6416
17659TIP3    H274393   5.203   0.269   4.843  0.4270 -0.2237  0.8588
17660TIP3   OH274394   5.712   2.298  12.722 -0.4802  0.2095  0.1890
17660TIP3    H174395   5.737   2.206  12.727 -0.4652  0.0303 -2.1528
17660TIP3    H274396   5.682   2.310  12.632 -1.2228  2.3229  0.6624
17661TIP3   OH274397   0.201   0.709   1.481 -0.0780  0.0736 -0.0837
17661TIP3    H174398   0.260   0.659   1.537 -1.4561 -0.3392  1.0748
17661TIP3    H274399   0.169   0.780   1.536 -0.2111  0.6464 -0.8718
17662TIP3   OH274400   1.881   4.220   0.305  0.1394 -0.3370 -0.1880
17662TIP3    H174401   1.823   4.207   0.229 -1.0446 -3.5833  1.0783
17662TIP3    H274402   1.857   4.307   0.338  0.2548  0.9222 -3.0739
17663TIP3   OH274403   4.852   3.990  14.372 -0.2089  1.0595  0.2029
17663TIP3    H174404   4.852   3.947  14.287 -0.4298 -0.9057  1.1410
17663TIP3    H274405   4.760   3.987  14.400  0.3408 -1.9810  2.1704
17664TIP3   OH274406   6.293   4.795   3.777  0.3043  0.1553  0.1724
17664TIP3    H174407   6.288   4.779   3.682 -2.6653 -1.0573  0.4376
17664TIP3    H274408   6.252   4.718   3.816 -3.0263  2.7269  2.1964
17665TIP3   OH274409   3.575   5.301   0.672  0.2393  0.4562 -0.4052
17665TIP3    H174410   3.644   5.237   0.692  0.6864 -0.0400 -3.1648
17665TIP3    H274411   3.500   5.271   0.723  1.1737 -0.8023  0.3020
17666TIP3   OH274412   6.393   6.735   4.180 -0.5921  0.4238 -0.2349
17666TIP3    H174413   6.458   6.799   4.149 -0.0213 -0.1325 -0.2064
17666TIP3    H274414   6.410   6.728   4.274 -0.5029  0.0615 -0.2773
17667TIP3   OH274415   0.153   0.501   1.795 -0.1560  0.1938 -0.4595
17667TIP3    H174416   0.116   0.581   1.833  1.7277  0.8664  0.0465
17667TIP3    H274417   0.145   0.435   1.864 -0.2030  0.3843 -0.2821
17668TIP3   OH274418   2.514   5.288  13.113 -0.1708  0.0588 -0.0200
17668TIP3    H174419   2.504   5.194  13.096  2.0388 -0.0677 -1.0604
17668TIP3    H274420   2.573   5.293  13.189 -0.7679  0.6169  0.4168
17669TIP3   OH274421   5.978   3.301  11.384  0.5167 -0.0713  0.2166
17669TIP3    H174422   5.917   3.283  11.313  2.1019 -2.5454 -0.6304
17669TIP3    H274423   5.923   3.306  11.462 -0.7978 -2.4191 -0.4752
17670TIP3   OH274424   2.851   2.802   6.317 -0.0325 -0.5691  0.1615
17670TIP3    H174425   2.810   2.827   6.399  2.1574  0.3131  1.0618
17670TIP3    H274426   2.811   2.859   6.251  0.4977  1.0322  1.1825
17671TIP3   OH274427   1.526   2.610  13.648 -0.5188 -0.0704 -0.7827
17671TIP3    H174428   1.539   2.703  13.663 -0.8441 -0.2464  0.8106
17671TIP3    H274429   1.607   2.580  13.607  0.0803  0.6920 -0.1858
17672TIP3   OH274430   1.655   5.271   3.608 -0.0062  0.5066 -0.1853
17672TIP3    H174431   1.587   5.330   3.574  0.1391 -0.0334 -1.4695
17672TIP3    H274432   1.736   5.321   3.602  0.0665  0.3045 -0.9622
17673TIP3   OH274433   4.789   1.212  14.352 -0.2011  0.5548  0.6013
17673TIP3    H174434   4.800   1.121  14.327  0.1928  0.5388  0.8336
17673TIP3    H274435   4.748   1.208  14.439  0.0947  0.5968  0.7430
17674TIP3   OH274436   5.757   6.212  15.563 -0.5518 -0.4175  0.3102
17674TIP3    H174437   5.804   6.189  15.644  1.2139 -0.9287 -0.8194
17674TIP3    H274438   5.708   6.134  15.541  0.2466 -0.8492  0.0312
17675TIP3   OH274439   6.645   5.512  16.997 -0.2814 -0.2735  0.5625
17675TIP3    H174440   6.610   5.441  17.050 -1.6977 -0.1187 -0.0994
17675TIP3    H274441   6.626   5.486  16.907 -1.1194  1.0635  0.3218
17676TIP3   OH274442   3.190   5.200   4.063  0.1619  0.3635 -0.7708
17676TIP3    H174443   3.165   5.216   4.154 -0.9789 -1.8951 -0.6216
17676TIP3    H274444   3.276   5.157   4.069 -0.6998 -1.4419 -0.5718
17677TIP3   OH274445   1.232   5.897  13.461 -0.0923 -0.4905 -0.0327
17677TIP3    H174446   1.197   5.813  13.490  2.0284 -0.8133  1.9006
17677TIP3    H274447   1.324   5.879  13.440  0.3097  1.2495  0.0515
17678TIP3   OH274448   5.565   6.048   1.859  0.4024  0.3355 -0.2030
17678TIP3    H174449   5.477   6.052   1.823  0.1782  3.4370  0.4485
17678TIP3    H274450   5.611   5.987   1.802 -2.0451 -1.1688 -0.7141
17679TIP3   OH274451   0.426   6.644  15.812  0.0486  0.4187 -0.2363
17679TIP3    H174452   0.342   6.684  15.792  0.2279  1.5807  1.1350
17679TIP3    H274453   0.472   6.710  15.866  0.8661 -1.1243  1.0408
17680TIP3   OH274454   4.316   4.708   0.153 -0.1147 -0.5814 -0.1543
17680TIP3    H174455   4.254   4.636   0.140 -0.1610 -0.8406  1.2765
17680TIP3    H274456   4.357   4.688   0.237  0.2472  0.7934  0.0076
17681TIP3   OH274457   2.775   0.897   2.725 -0.0610  0.0733 -0.1736
17681TIP3    H174458   2.757   0.958   2.796 -0.1585  0.1076 -0.2279
17681TIP3    H274459   2.756   0.811   2.762  0.4531  0.0376  0.0295
17682TIP3   OH274460   5.814   0.972  14.710  0.1021  0.1241 -0.4439
17682TIP3    H174461   5.725   0.942  14.728  0.8270 -0.6713  2.1696
17682TIP3    H274462   5.858   0.895  14.674  0.6623 -0.6623  1.7554
17683TIP3   OH274463   6.317   2.438   0.605 -0.6213  0.5227 -0.3009
17683TIP3    H174464   6.337   2.476   0.520 -0.1262 -1.3815 -1.1019
17683TIP3    H274465   6.249   2.494   0.642 -1.8578  0.6279 -2.5692
17684TIP3   OH274466   4.942   2.725  13.748  0.0090  0.4829  0.2410
17684TIP3    H174467   4.857   2.685  13.728  0.1343  0.4133 -0.1601
17684TIP3    H274468   4.941   2.808  13.700  0.5879  0.0007 -0.6196
17685TIP3   OH274469   5.652   1.500   2.986  0.0177  0.1677 -0.5611
17685TIP3    H174470   5.628   1.431   2.924  1.2487 -0.0242 -0.8339
17685TIP3    H274471   5.583   1.566   2.974 -0.4667 -0.4313 -1.2126
17686TIP3   OH274472   5.065   0.845  13.185  0.3495  0.3278  0.2132
17686TIP3    H174473   5.030   0.769  13.232  3.0138 -0.0002  1.8733
17686TIP3    H274474   5.114   0.807  13.112  0.6208  0.5166  0.2953
17687TIP3   OH274475   5.793   6.130  10.981 -0.3564 -0.1838 -0.2420
17687TIP3    H174476   5.772   6.112  11.073 -2.9757  0.1092 -0.7057
17687TIP3    H274477   5.887   6.147  10.981 -0.4324  0.8433  2.5671
17688TIP3   OH274478   4.133   1.883  14.886 -0.0709  0.1512  1.1279
17688TIP3    H174479   4.045   1.919  14.879  0.0022 -0.0295 -3.5071
17688TIP3    H274480   4.143   1.829  14.808  3.4532 -1.5802  2.5733
17689TIP3   OH274481   0.117   1.545   4.242 -0.2037  0.3313 -0.0470
17689TIP3    H174482   0.081   1.492   4.313  1.6864 -2.0599 -0.7258
17689TIP3    H274483   0.094   1.498   4.162  1.0254  0.8149 -0.7264
17690TIP3   OH274484   3.061   0.548   5.308  0.1954  0.4440  0.4216
17690TIP3    H174485   3.057   0.599   5.389 -0.8604  0.2449  0.5003
17690TIP3    H274486   2.973   0.552   5.272  0.4409 -0.1913 -0.2789
17691TIP3   OH274487   6.175   6.503  13.208  0.1389 -0.8102 -0.0674
17691TIP3    H174488   6.179   6.596  13.228  0.4190 -1.2181  2.0581
17691TIP3    H274489   6.267   6.477  13.200  0.0364 -0.5375 -2.8445
17692TIP3   OH274490   2.103   4.082   5.377 -0.6173 -0.3557  0.7720
17692TIP3    H174491   2.173   4.039   5.426  0.6435  0.8922  0.1462
17692TIP3    H274492   2.147   4.153   5.329 -1.7288 -1.4373 -2.1097
17693TIP3   OH274493   2.369   5.745  12.914 -0.2648  0.1337 -0.0628
17693TIP3    H174494   2.377   5.738  12.819 -0.1980  0.9126 -0.1248
17693TIP3    H274495   2.276   5.733  12.932 -0.4563  1.1197 -0.3465
17694TIP3   OH274496   0.115   6.085   1.931 -0.4991 -1.1098  0.3488
17694TIP3    H174497   0.120   6.094   2.026  0.2505 -0.8723  0.2923
17694TIP3    H274498   0.136   6.172   1.898 -0.2607 -1.3190 -0.0473
17695TIP3   OH274499   0.364   2.445   3.674 -0.7830  0.1249  0.0872
17695TIP3    H174500   0.456   2.440   3.647 -0.4422  1.2097  0.9857
17695TIP3    H274501   0.316   2.469   3.594  0.1220  2.7151  0.2571
17696TIP3   OH274502   0.344   6.313   4.749 -0.4398  0.2494  0.2411
17696TIP3    H174503   0.250   6.305   4.734 -0.4179  0.6599 -0.1159
17696TIP3    H274504   0.373   6.223   4.768 -0.5707 -0.1947 -1.5430
17697TIP3   OH274505   3.479   3.693  13.515  0.6151 -0.5022 -0.1640
17697TIP3    H174506   3.512   3.614  13.557 -1.6358 -1.7804 -0.6455
17697TIP3    H274507   3.505   3.764  13.574 -1.4416 -2.0730  2.9451
17698TIP3   OH274508   5.522   6.142   0.516  0.0329  0.1360 -0.0398
17698TIP3    H174509   5.511   6.199   0.440  1.4428  1.2644  0.5351
17698TIP3    H274510   5.433   6.123   0.546 -0.5042  1.9600 -0.3440
17699TIP3   OH274511   2.449   6.459   5.609  0.3075  0.1267  0.1232
17699TIP3    H174512   2.539   6.448   5.637  0.3900  1.0215  0.2403
17699TIP3    H274513   2.411   6.372   5.615  0.6183  0.0893  1.9469
17700TIP3   OH274514   4.736   1.785   3.551  0.4459 -0.0981 -0.3922
17700TIP3    H174515   4.723   1.875   3.582  0.9458 -0.4642  0.9541
17700TIP3    H274516   4.687   1.781   3.470 -1.7360  0.6422  0.8099
17701TIP3   OH274517   5.280   6.439  15.118  0.1575 -0.2083 -0.1832
17701TIP3    H174518   5.345   6.461  15.185  0.0706  0.9788 -0.4544
17701TIP3    H274519   5.289   6.345  15.104  0.3288 -0.4382  1.3295
17702TIP3   OH274520   6.714   3.909  13.959 -0.1254 -0.1623 -0.2014
17702TIP3    H174521   6.620   3.919  13.973 -0.1989 -0.9757 -0.0754
17702TIP3    H274522   6.737   3.829  14.006  1.1334  1.3776  1.9579
17703TIP3   OH274523   2.711   4.281   5.340 -0.6626  0.4695 -0.0654
17703TIP3    H174524   2.660   4.224   5.397 -1.0518  1.7398  0.9030
17703TIP3    H274525   2.741   4.224   5.269 -0.2592 -1.1390  1.3271
17704TIP3   OH274526   0.286   0.630  16.865  0.2866  0.4281 -0.5216
17704TIP3    H174527   0.228   0.585  16.803 -0.7426  0.5522  0.3222
17704TIP3    H274528   0.269   0.723  16.851 -0.9997  0.4447  0.8601
17705TIP3   OH274529   5.871   1.161   6.043 -0.2756 -0.4027  0.5143
17705TIP3    H174530   5.814   1.134   6.115 -1.0903 -1.7037 -0.5681
17705TIP3    H274531   5.934   1.090   6.035  2.0556  1.3279  2.1519
17706TIP3   OH274532   1.376   1.943  16.172  0.0238  0.0491 -0.7442
17706TIP3    H174533   1.436   1.999  16.221 -0.8635  0.1674  0.2578
17706TIP3    H274534   1.384   1.971  16.081  0.4219  1.0376 -0.4151
17707TIP3   OH274535   0.456   1.093  14.738  0.5107  0.0763  0.4586
17707TIP3    H174536   0.443   1.188  14.742 -0.3421 -0.0862  2.1918
17707TIP3    H274537   0.386   1.062  14.680  0.3385  0.4226  0.4797
17708TIP3   OH274538   1.567   6.130   4.745  0.1513 -0.4780  0.0786
17708TIP3    H174539   1.493   6.174   4.787 -0.5513 -1.0947 -0.4835
17708TIP3    H274540   1.590   6.188   4.672  0.4452 -0.1195  0.4514
17709TIP3   OH274541   2.797   4.534  11.235 -0.1328  0.2949 -0.0577
17709TIP3    H174542   2.786   4.535  11.140  1.3886  0.0494 -0.2612
17709TIP3    H274543   2.787   4.442  11.259 -1.1562  0.4436  0.1163
17710TIP3   OH274544   1.583   4.744  16.908  0.1359  0.2031  0.7148
17710TIP3    H174545   1.655   4.746  16.845 -0.0617 -0.0605  0.4794
17710TIP3    H274546   1.626   4.745  16.993  0.4933 -1.5075  0.5950
17711TIP3   OH274547   1.759   1.839  16.002  0.2303  0.4088  0.1613
17711TIP3    H174548   1.757   1.899  16.077  0.5915  0.7818 -0.1240
17711TIP3    H274549   1.686   1.779  16.019  1.1950 -0.4388  1.5668
17712TIP3   OH274550   1.871   3.302   0.438  0.1815  0.1944  0.0989
17712TIP3    H174551   1.883   3.339   0.525 -0.6055 -0.1234  0.3546
17712TIP3    H274552   1.777   3.309   0.421  0.4927  1.6372 -1.3682
17713TIP3   OH274553   0.816   6.673  16.277  0.2075  0.6731  0.4003
17713TIP3    H174554   0.906   6.677  16.310  0.4382 -2.2190  0.3911
17713TIP3    H274555   0.780   6.593  16.315 -1.7108  0.6990 -1.1761
17714TIP3   OH274556   0.423   3.253   4.788  0.1056  0.0565 -0.0902
17714TIP3    H174557   0.487   3.206   4.842 -0.3142 -0.5705 -0.1279
17714TIP3    H274558   0.338   3.229   4.826 -0.1672 -0.0501 -0.7637
17715TIP3   OH274559   6.539   6.519   3.229  0.5804  0.4510  0.2524
17715TIP3    H174560   6.613   6.482   3.277  1.5257 -1.3629 -2.3812
17715TIP3    H274561   6.479   6.444   3.218  0.2655  0.8817 -1.0968
17716TIP3   OH274562   4.063   3.389   3.618 -0.4890  0.8753 -0.0019
17716TIP3    H174563   4.058   3.299   3.586 -0.5769  0.8742  0.0146
17716TIP3    H274564   4.131   3.386   3.686 -0.1793  0.9141 -0.3097
17717TIP3   OH274565   1.079   5.348  11.816  0.1629 -0.2907  0.0235
17717TIP3    H174566   1.140   5.351  11.890 -0.0106  1.1460  0.1429
17717TIP3    H274567   1.096   5.429  11.769 -3.1312  1.3037  1.2954
17718TIP3   OH274568   5.567   2.655   3.478  0.5216 -0.3561 -0.4190
17718TIP3    H174569   5.482   2.692   3.501  1.7668  2.5665 -0.1355
17718TIP3    H274570   5.568   2.655   3.382  0.3403 -0.0201 -0.4228
17719TIP3   OH274571   6.194   6.361  17.385  0.0370 -0.4200  0.2002
17719TIP3    H174572   6.155   6.275  17.370 -0.8742 -0.0546  0.3922
17719TIP3    H274573   6.119   6.420  17.393  0.6556  0.6137 -1.2479
17720TIP3   OH274574   4.099   6.575  11.648 -0.1839  0.0303 -0.3876
17720TIP3    H174575   4.178   6.521  11.646 -0.0306  0.1595  1.2256
17720TIP3    H274576   4.028   6.514  11.668 -0.3496  0.0896 -0.7709
17721TIP3   OH274577   6.521   4.913  16.786 -0.2335 -0.3588 -0.8964
17721TIP3    H174578   6.519   4.860  16.706 -2.6321 -0.8103 -0.6095
17721TIP3    H274579   6.453   4.979  16.774  0.0783  0.2259  0.3439
17722TIP3   OH274580   3.463   2.796  14.563  0.1482 -0.3521 -0.3119
17722TIP3    H174581   3.482   2.712  14.606  0.2806 -0.4837 -0.6229
17722TIP3    H274582   3.529   2.856  14.597  0.5857 -0.5883 -0.7257
17723TIP3   OH274583   2.412   0.709  11.297 -0.3252  0.3272 -0.0659
17723TIP3    H174584   2.450   0.629  11.332 -0.1544 -0.8530 -2.7430
17723TIP3    H274585   2.323   0.711  11.334 -0.9248 -2.0126 -1.1877
17724TIP3   OH274586   3.788   1.960  10.620  0.1909  0.1816 -0.1456
17724TIP3    H174587   3.751   1.876  10.649  1.3591 -0.3997 -0.2761
17724TIP3    H274588   3.742   1.979  10.538 -0.6752  0.0923  0.3136
17725TIP3   OH274589   2.018   5.650  15.886 -0.0663 -0.8157 -0.2805
17725TIP3    H174590   1.946   5.604  15.844 -1.1274 -0.0170  0.5727
17725TIP3    H274591   1.998   5.645  15.980 -0.3905  1.5210 -0.1476
17726TIP3   OH274592   5.547   5.149   2.801 -1.0051  0.0037 -0.0341
17726TIP3    H174593   5.511   5.227   2.843 -2.9649 -0.5304 -0.5998
17726TIP3    H274594   5.602   5.182   2.730  1.1367  0.8853  1.9148
17727TIP3   OH274595   3.677   1.035  17.424 -0.0935  0.6054  0.1018
17727TIP3    H174596   3.697   1.128  17.415  3.5451  0.0987  1.2010
17727TIP3    H274597   3.645   1.009  17.337  0.2307  2.5872 -0.6696
17728TIP3   OH274598   2.925   2.967  13.818 -0.2371 -0.3733 -0.2999
17728TIP3    H174599   2.953   3.034  13.880  0.9465 -0.0927 -1.0966
17728TIP3    H274600   2.902   2.892  13.873 -0.2676  0.2259  0.5310
17729TIP3   OH274601   5.185   4.054  11.720  0.0675 -0.4600  0.4677
17729TIP3    H174602   5.105   4.107  11.728  0.6182  0.4326  0.1625
17729TIP3    H274603   5.174   3.985  11.785 -0.3220  0.4663  1.4038
17730TIP3   OH274604   1.142   4.678  16.758 -0.6415 -0.4479 -0.5371
17730TIP3    H174605   1.187   4.705  16.678  0.7898 -1.2374 -0.0337
17730TIP3    H274606   1.051   4.700  16.743 -0.2897  0.0387 -2.1147
17731TIP3   OH274607   2.534   0.366   0.947  0.0990  0.8010 -0.3430
17731TIP3    H174608   2.582   0.287   0.922 -0.5901  0.8024 -1.7555
17731TIP3    H274609   2.548   0.374   1.042  3.1213  0.9723 -0.7130
17732TIP3   OH274610   3.962   0.807   1.543 -0.5557 -0.8376 -0.1200
17732TIP3    H174611   3.950   0.726   1.592 -0.7471 -0.0249  1.2294
17732TIP3    H274612   4.056   0.817   1.535 -0.4950 -0.4749  0.9747
17733TIP3   OH274613   4.323   4.418   0.453 -0.1329  0.2313  0.1443
17733TIP3    H174614   4.232   4.442   0.435 -0.8215 -1.0529  1.7257
17733TIP3    H274615   4.357   4.387   0.368 -0.8513  1.5922 -0.6670
17734TIP3   OH274616   1.976   0.247   0.506  0.3023  0.0159 -0.2241
17734TIP3    H174617   2.039   0.224   0.573  0.5970  0.0678 -0.4794
17734TIP3    H274618   1.906   0.183   0.515 -0.4355  0.9749  1.1687
17735TIP3   OH274619   0.268   5.371  14.879 -0.0165  0.0883 -0.0264
17735TIP3    H174620   0.240   5.411  14.962  1.9317  0.0141  0.7182
17735TIP3    H274621   0.349   5.325  14.901 -0.3806 -1.3948 -1.6247
17736TIP3   OH274622   2.902   0.462   5.082  0.5097  0.0342  0.1402
17736TIP3    H174623   2.835   0.441   5.147 -0.4453  0.8335 -0.5639
17736TIP3    H274624   2.859   0.520   5.020  2.0759  1.2057  0.0765
17737TIP3   OH274625   4.751   2.589   5.545 -0.6138 -0.6812 -0.5333
17737TIP3    H174626   4.761   2.607   5.451 -1.3052  3.0811 -0.0594
17737TIP3    H274627   4.819   2.641   5.586 -0.4470 -2.1179  1.1255
17738TIP3   OH274628   3.649   5.061  12.638  0.1216  0.1469 -0.1873
17738TIP3    H174629   3.728   5.109  12.614  0.5013  0.3264  1.3203
17738TIP3    H274630   3.647   5.065  12.734 -0.6581 -1.5574 -0.1074
17739TIP3   OH274631   5.079   4.384   4.751 -0.2556  0.6573  0.0116
17739TIP3    H174632   5.086   4.326   4.827 -1.8404  0.9680  0.4291
17739TIP3    H274633   5.164   4.428   4.747  0.6234 -0.9528  0.2726
17740TIP3   OH274634   6.493   6.546   0.610  0.0330  0.0251 -0.3270
17740TIP3    H174635   6.564   6.594   0.653  1.1654 -1.1050 -0.8901
17740TIP3    H274636   6.512   6.454   0.629 -2.5234 -0.2509  1.4032
17741TIP3   OH274637   6.450   4.100  14.295 -0.8139 -0.4471 -0.0694
17741TIP3    H174638   6.440   4.191  14.321 -3.0691 -0.0464 -2.0080
17741TIP3    H274639   6.451   4.051  14.377  0.4088  1.2955  0.9978
17742TIP3   OH274640   3.492   0.132  12.317 -0.7425 -0.4600  0.3992
17742TIP3    H174641   3.473   0.147  12.410 -1.9190 -0.3536  0.1567
17742TIP3    H274642   3.578   0.091  12.317  0.9610  2.7651  1.3406
17743TIP3   OH274643   2.564   5.541  12.993 -0.3658 -0.0614  0.3396
17743TIP3    H174644   2.510   5.474  13.035 -0.6863  0.4413  0.7333
17743TIP3    H274645   2.501   5.606  12.961 -0.0685 -0.0227 -0.1854
17744TIP3   OH274646   1.616   1.081   3.935 -0.1488  0.1022 -0.0287
17744TIP3    H174647   1.528   1.074   3.972  0.2832 -0.2694  0.9546
17744TIP3    H274648   1.639   0.992   3.909  0.6211 -0.1440  1.3788
17745TIP3   OH274649   0.518   1.776   1.422  0.1082  0.2214  0.1196
17745TIP3    H174650   0.569   1.792   1.501 -0.7817  0.5454  0.6459
17745TIP3    H274651   0.575   1.724   1.366  1.1203  0.8302  0.5589
17746TIP3   OH274652   6.431   6.079  16.699  0.4949  0.2455  0.4505
17746TIP3    H174653   6.404   6.043  16.783 -0.8531 -1.3196 -0.5774
17746TIP3    H274654   6.359   6.057  16.640  1.7545  0.6046 -1.2964
17747TIP3   OH274655   2.899   4.665   5.335 -0.4454  0.6424  0.1030
17747TIP3    H174656   2.908   4.598   5.404  0.1331  0.9421  0.3260
17747TIP3    H274657   2.988   4.678   5.303 -0.4262  1.8813  0.6151
17748TIP3   OH274658   4.222   6.166   5.390  0.2553  0.1865  0.4624
17748TIP3    H174659   4.161   6.223   5.436  0.9187 -0.1148  1.7426
17748TIP3    H274660   4.170   6.088   5.369 -0.9594  1.5635 -2.2070
17749TIP3   OH274661   3.117   2.402   1.313 -0.7050  0.5043 -0.0733
17749TIP3    H174662   3.212   2.411   1.323 -0.7554  1.2883 -0.2108
17749TIP3    H274663   3.104   2.316   1.273  0.0279  0.9242 -1.2563
17750TIP3   OH274664   4.797   3.092   4.336  0.5725  0.3298  0.8993
17750TIP3    H174665   4.744   3.119   4.261  0.8775  1.7791  1.1774
17750TIP3    H274666   4.747   3.123   4.412  1.4455  1.0704  1.1853
17751TIP3   OH274667   4.542   4.577  13.077  0.0993  0.3926 -0.1580
17751TIP3    H174668   4.601   4.515  13.033  0.2313 -0.7473  1.5315
17751TIP3    H274669   4.457   4.533  13.075  1.1417 -3.1693  6.3952
17752TIP3   OH274670   0.018   3.880   4.642 -0.0261 -0.0556  0.4129
17752TIP3    H174671   0.063   3.858   4.560 -1.3927  0.9013 -0.6422
17752TIP3    H274672  -0.062   3.828   4.640 -0.1733  0.1375  1.0440
17753TIP3   OH274673   0.257   3.732   2.298  0.0998  0.2879  0.6274
17753TIP3    H174674   0.311   3.717   2.220  0.5137  2.1105  0.4974
17753TIP3    H274675   0.319   3.734   2.370  0.2923  2.3918  0.4791
17754TIP3   OH274676   4.486   2.439  13.983  0.0128 -0.6736  0.1034
17754TIP3    H174677   4.469   2.388  14.063  1.1336 -0.6842  0.3432
17754TIP3    H274678   4.566   2.401  13.947  1.5774  1.6641  0.9236
17755TIP3   OH274679   2.134   2.824   1.749  0.2688 -0.3089  0.7047
17755TIP3    H174680   2.111   2.845   1.658 -1.3181 -3.0406  0.3379
17755TIP3    H274681   2.222   2.861   1.761 -0.4373  2.2117 -1.0990
17756TIP3   OH274682   2.949   5.838   1.856  0.2513  0.3903 -0.2334
17756TIP3    H174683   3.036   5.798   1.861  0.3392  0.6621  0.4758
17756TIP3    H274684   2.927   5.860   1.946 -0.9553 -0.5083 -0.2730
17757TIP3   OH274685   3.513   0.532  12.563  0.3552 -0.0049  0.0084
17757TIP3    H174686   3.529   0.444  12.597  1.2232  0.4517  0.8190
17757TIP3    H274687   3.574   0.541  12.490  0.8300  0.2102  0.4299
17758TIP3   OH274688   5.119   6.130  13.520  0.1039 -0.4573 -0.0677
17758TIP3    H174689   5.170   6.098  13.595  1.3434  1.1083 -0.1879
17758TIP3    H274690   5.173   6.108  13.444  0.6088  1.1518 -0.2063
17759TIP3   OH274691   2.031   4.954   1.073  0.6951  0.0388 -0.3904
17759TIP3    H174692   2.061   4.887   1.013 -0.3702  0.4784 -1.4685
17759TIP3    H274693   1.939   4.969   1.048  0.9882  2.0889 -0.3920
17760TIP3   OH274694   1.605   4.033  10.901 -0.2370  0.2698  0.1376
17760TIP3    H174695   1.681   4.088  10.920 -0.5254  0.9611 -0.6775
17760TIP3    H274696   1.543   4.052  10.972 -0.4283  1.1864 -0.2581
17761TIP3   OH274697   5.940   0.296   6.223  0.1729  0.0216 -0.3018
17761TIP3    H174698   5.964   0.204   6.211  0.5741 -0.3668  2.6736
17761TIP3    H274699   6.022   0.339   6.249  0.1098  1.4026 -2.1391
17762TIP3   OH274700   2.786   3.641  16.930 -0.7249 -0.2437 -0.3131
17762TIP3    H174701   2.753   3.588  16.857  1.0933 -1.7433 -0.1043
17762TIP3    H274702   2.735   3.611  17.005  0.9396 -2.5063  0.0002
17763TIP3   OH274703   2.659   6.168   4.709 -0.0018  0.1705 -0.1466
17763TIP3    H174704   2.732   6.209   4.756 -0.1435 -0.1950  0.3979
17763TIP3    H274705   2.581   6.197   4.755 -0.0514 -1.6937  1.0501
17764TIP3   OH274706   4.276   5.201  13.125 -0.7643 -0.2952  0.1195
17764TIP3    H174707   4.336   5.188  13.198 -0.7042 -0.6072  0.0148
17764TIP3    H274708   4.260   5.113  13.092 -1.6707 -0.2700  0.4612
17765TIP3   OH274709   2.951   5.946  11.412  0.2616  0.1426 -0.8841
17765TIP3    H174710   2.893   6.022  11.403  0.8708  0.6404 -0.7624
17765TIP3    H274711   2.895   5.875  11.439 -0.4360  0.3976 -1.6113
17766TIP3   OH274712   2.637   2.266   4.417 -0.1706  0.1308  0.2470
17766TIP3    H174713   2.639   2.182   4.464 -0.2958 -1.1998 -2.0078
17766TIP3    H274714   2.544   2.285   4.406 -0.1410  0.5309  0.6395
17767TIP3   OH274715   1.697   6.271  16.133 -0.5145 -0.2730 -0.4422
17767TIP3    H174716   1.727   6.273  16.224 -1.0142 -0.0273 -0.2792
17767TIP3    H274717   1.604   6.293  16.137 -0.2624  0.9824 -1.1314
17768TIP3   OH274718   0.381   2.564  11.220 -0.2335  0.1441  0.5584
17768TIP3    H174719   0.382   2.629  11.150  0.6244 -0.1622  0.2786
17768TIP3    H274720   0.330   2.491  11.183 -0.8600  0.4857  0.7296
17769TIP3   OH274721   5.326   4.376  17.028 -0.0241 -0.0819  0.0813
17769TIP3    H174722   5.294   4.463  17.007  1.5247  0.4361 -0.2365
17769TIP3    H274723   5.292   4.320  16.958  0.2995  0.5700 -0.6117
17770TIP3   OH274724   1.691   0.055  10.881  0.2617 -0.4175 -0.1396
17770TIP3    H174725   1.705  -0.021  10.937  3.5799 -0.8463 -1.2997
17770TIP3    H274726   1.711   0.130  10.938  0.2824 -0.6443  0.1534
17771TIP3   OH274727   2.509   4.205   0.389 -0.1106 -0.3764 -0.7517
17771TIP3    H174728   2.431   4.188   0.442  1.2999 -1.7529  1.0189
17771TIP3    H274729   2.539   4.118   0.363  1.6300  0.0055 -0.1450
17772TIP3   OH274730   3.605   6.742   6.112 -0.0048 -0.4447  0.4654
17772TIP3    H174731   3.684   6.766   6.160 -0.1886  2.5601 -0.4952
17772TIP3    H274732   3.534   6.753   6.176  0.1192 -0.6416  0.6373
17773TIP3   OH274733   1.640   3.487  13.508 -0.5301 -0.1342  1.0461
17773TIP3    H174734   1.643   3.415  13.571  1.8594  0.5960  1.8604
17773TIP3    H274735   1.600   3.560  13.556  1.6653  0.5499  1.9667
17774TIP3   OH274736   5.841   4.454  16.227  0.1837  0.4113  0.3290
17774TIP3    H174737   5.893   4.436  16.304  1.0073 -1.9041 -0.6864
17774TIP3    H274738   5.888   4.524  16.181  1.7208 -0.7343  0.0960
17775TIP3   OH274739   1.090   5.393  15.569  0.1044 -0.3687 -0.4745
17775TIP3    H174740   1.029   5.344  15.515  0.9828 -1.5364 -0.4377
17775TIP3    H274741   1.123   5.330  15.633 -1.3758  1.0944  1.9057
17776TIP3   OH274742   2.344   3.832  17.299 -0.1989 -0.1100  0.0905
17776TIP3    H174743   2.270   3.844  17.239  0.0077  0.1903 -0.1106
17776TIP3    H274744   2.400   3.768  17.255 -0.2574 -0.2129  0.1657
17777TIP3   OH274745   1.921   5.907   5.511  0.3864  0.0544 -0.1878
17777TIP3    H174746   1.922   5.916   5.416 -0.3882 -0.4497 -0.2513
17777TIP3    H274747   1.875   5.824   5.527 -0.2414  0.5494  0.6437
17778TIP3   OH274748   6.709   3.181   1.055  0.2509 -0.3879  0.2538
17778TIP3    H174749   6.782   3.196   0.995  0.3243 -0.2246  0.3837
17778TIP3    H274750   6.677   3.093   1.032 -2.2049  1.0743 -2.6313
17779TIP3   OH274751   1.680   4.643   1.512 -0.3207  0.2530 -0.1499
17779TIP3    H174752   1.767   4.602   1.508 -1.4058 -2.0772 -1.4641
17779TIP3    H274753   1.664   4.673   1.423 -1.4911 -0.8216 -0.3269
17780TIP3   OH274754   6.241   3.166   2.832 -1.0104 -0.7342  0.1045
17780TIP3    H174755   6.271   3.237   2.776 -0.2418 -0.6574  0.5986
17780TIP3    H274756   6.313   3.152   2.893 -0.9080 -2.3105 -0.3283
17781TIP3   OH274757   1.263   1.668   3.853 -0.4463  0.2816  0.0853
17781TIP3    H174758   1.329   1.692   3.917 -1.3269  1.6705  0.5080
17781TIP3    H274759   1.307   1.603   3.797  0.5390 -0.5002  1.6751
17782TIP3   OH274760   6.075   4.575  15.830 -0.2682  0.1818 -0.1098
17782TIP3    H174761   6.109   4.493  15.792  1.0317  1.1054 -1.0205
17782TIP3    H274762   6.049   4.627  15.754  1.7065  1.7893  0.2279
17783TIP3   OH274763   2.598   6.544  11.398 -0.1125 -0.2980 -0.0291
17783TIP3    H174764   2.629   6.453  11.398 -0.5460 -0.4535  0.8291
17783TIP3    H274765   2.534   6.548  11.327  1.5220 -0.0780 -1.5597
17784TIP3   OH274766   2.619   1.601  11.062  0.4840 -1.0673 -0.0186
17784TIP3    H174767   2.607   1.621  10.969 -0.9371  1.1547  0.5399
17784TIP3    H274768   2.536   1.563  11.089  0.3347 -0.3197  0.6191
17785TIP3   OH274769   4.900   3.661   0.855  0.0812  0.1403 -0.1481
17785TIP3    H174770   4.952   3.733   0.821  1.3486 -1.2517 -1.3178
17785TIP3    H274771   4.810   3.682   0.832  0.4520  1.2530 -0.6044
17786TIP3   OH274772   0.499   3.416  13.016  0.6701  0.0378  0.4091
17786TIP3    H174773   0.477   3.491  13.071 -1.1896 -0.5300  0.5408
17786TIP3    H274774   0.445   3.344  13.051  3.5338 -1.8600  1.3211
17787TIP3   OH274775   6.168   1.305   2.129  0.0621  0.2532 -0.1641
17787TIP3    H174776   6.238   1.251   2.091  1.3205  2.0685 -0.5624
17787TIP3    H274777   6.090   1.281   2.079  0.6133 -1.0272 -0.4559
17788TIP3   OH274778   2.527   2.602  16.846 -0.4236 -0.0301  0.1745
17788TIP3    H174779   2.513   2.551  16.767 -0.8698 -0.8214  0.7492
17788TIP3    H274780   2.441   2.607  16.888 -0.2346  0.5440  0.5108
17789TIP3   OH274781   2.746   4.134  14.541 -0.4281  0.0991  0.2303
17789TIP3    H174782   2.711   4.222  14.525 -0.6171  0.1247  0.7549
17789TIP3    H274783   2.683   4.075  14.501 -0.7335  0.1732  0.5967
17790TIP3   OH274784   1.114   6.508   3.035  0.0841  0.3051  0.4077
17790TIP3    H174785   1.105   6.535   2.944  0.3573  1.8795  0.8139
17790TIP3    H274786   1.034   6.538   3.078  0.2551  0.1935  0.8147
17791TIP3   OH274787   5.415   3.351  12.900  0.7237 -0.2922 -0.0652
17791TIP3    H174788   5.378   3.339  12.988 -0.6567 -1.2961 -0.7554
17791TIP3    H274789   5.499   3.393  12.916  0.8120 -1.0624  1.7916
17792TIP3   OH274790   4.032   2.385   2.350 -0.6835  0.3703  0.3593
17792TIP3    H174791   4.065   2.387   2.440 -0.3745 -1.5542  0.3355
17792TIP3    H274792   3.991   2.299   2.341 -2.1221  1.1411 -0.8766
17793TIP3   OH274793   5.496   4.541  12.611 -0.0898  0.7783 -0.6926
17793TIP3    H174794   5.434   4.476  12.579 -0.4308  0.2688  0.9104
17793TIP3    H274795   5.520   4.591  12.533 -0.9576 -0.3028 -1.7007
17794TIP3   OH274796   1.708   0.598  14.895 -0.1686  0.1927 -0.2923
17794TIP3    H174797   1.679   0.588  14.804  0.3190 -0.5759 -0.3649
17794TIP3    H274798   1.642   0.656  14.934 -0.7874 -0.0563 -0.9407
17795TIP3   OH274799   2.781   5.976   5.432 -0.9671  0.5870 -0.0508
17795TIP3    H174800   2.763   6.069   5.446  0.9661  0.7353  2.3191
17795TIP3    H274801   2.729   5.931   5.498 -1.4998 -0.0027 -0.8514
17796TIP3   OH274802   3.635   4.577   5.316  0.0747 -0.5125 -0.3597
17796TIP3    H174803   3.622   4.660   5.270  0.3732 -0.0807  0.3099
17796TIP3    H274804   3.701   4.597   5.382  1.7897 -1.8472 -1.6060
17797TIP3   OH274805   5.450   1.512   2.733 -0.2812  0.0062 -0.0502
17797TIP3    H174806   5.511   1.439   2.734 -0.4668 -0.1485  0.3001
17797TIP3    H274807   5.367   1.474   2.765 -0.4861  0.2720 -0.2634
17798TIP3   OH274808   2.082   2.967  12.090  0.2386  0.0203 -0.3679
17798TIP3    H174809   2.103   3.060  12.099  1.5632 -0.2927 -0.0268
17798TIP3    H274810   1.998   2.957  12.134 -0.7969  1.3621 -1.9020
17799TIP3   OH274811   3.369   2.536   3.209 -0.0949 -0.1341 -0.9935
17799TIP3    H174812   3.367   2.613   3.266 -1.8201 -1.8606  1.4918
17799TIP3    H274813   3.461   2.512   3.204  0.2925  1.1423 -0.4717
17800TIP3   OH274814   5.472   4.925   0.191  0.2616  0.8119  0.2778
17800TIP3    H174815   5.488   5.008   0.147  0.5716  1.1401  0.9884
17800TIP3    H274816   5.493   4.858   0.126 -0.0673  1.2887 -0.3189
17801TIP3   OH274817   1.405   1.964   6.084  0.1128  0.5483  0.3342
17801TIP3    H174818   1.482   1.923   6.046  0.4614  1.5884 -0.1390
17801TIP3    H274819   1.440   2.032   6.142 -0.4133  1.2732 -0.1624
17802TIP3   OH274820   5.133   4.602   2.446 -0.3984 -0.1593 -0.2129
17802TIP3    H174821   5.038   4.601   2.452 -0.5990 -0.1828 -2.5259
17802TIP3    H274822   5.154   4.685   2.403  0.5307 -0.5920 -0.6201
17803TIP3   OH274823   0.868   2.829   4.209  0.6937 -0.1262 -0.5234
17803TIP3    H174824   0.818   2.909   4.192  0.8555 -0.2698 -1.7082
17803TIP3    H274825   0.868   2.822   4.305  0.7966  1.3629 -0.3909
17804TIP3   OH274826   4.844   0.370  15.548 -1.0798 -0.1976  0.0757
17804TIP3    H174827   4.934   0.339  15.542 -0.8022  0.2308  1.5750
17804TIP3    H274828   4.836   0.434  15.477  0.9405  2.4190  2.0297
17805TIP3   OH274829   1.940   4.456   5.403 -0.7163  0.2828  0.2421
17805TIP3    H174830   2.020   4.413   5.373 -0.1583  1.6614 -0.3543
17805TIP3    H274831   1.869   4.398   5.375  0.0308 -0.5303  0.0067
17806TIP3   OH274832   4.993   5.463  11.542 -0.5720 -0.2405 -0.6298
17806TIP3    H174833   4.932   5.516  11.594 -0.1316  1.7479 -2.0209
17806TIP3    H274834   5.064   5.443  11.602 -0.7184  0.8357 -0.0789
17807TIP3   OH274835   2.076   5.037  12.585 -0.3502  0.3285  0.3252
17807TIP3    H174836   2.136   5.044  12.511 -0.5097  0.4381  0.2067
17807TIP3    H274837   2.131   5.057  12.661 -0.2919  0.6804  0.1921
17808TIP3   OH274838   3.347   0.968  11.641 -0.1772 -0.0762 -0.2253
17808TIP3    H174839   3.301   0.961  11.557 -0.6966 -0.4265  0.0840
17808TIP3    H274840   3.282   1.005  11.701  0.1854  0.1539  0.0329
17809TIP3   OH274841   0.591   5.702  11.954 -0.2104  0.6686 -0.1572
17809TIP3    H174842   0.594   5.754  12.035  1.1695  1.5172 -0.7301
17809TIP3    H274843   0.674   5.653  11.954 -0.1542  0.7599 -1.1143
17810TIP3   OH274844   2.882   1.611   1.380  0.0978  0.1940  0.0516
17810TIP3    H174845   2.940   1.599   1.455 -0.0875  0.3704  0.2257
17810TIP3    H274846   2.930   1.575   1.306  0.4865  0.4571  0.1719
17811TIP3   OH274847   0.008   1.607   0.457  0.4744 -0.6053  0.2186
17811TIP3    H174848  -0.016   1.676   0.519  0.8056 -0.8359  0.6057
17811TIP3    H274849   0.103   1.598   0.466  1.2802  2.0862 -3.1242
17812TIP3   OH274850   6.407   3.312   4.654 -0.4162 -0.1083 -0.1822
17812TIP3    H174851   6.320   3.293   4.621 -0.5901 -0.2365  0.3415
17812TIP3    H274852   6.394   3.332   4.747 -0.0052  0.7680 -0.3030
17813TIP3   OH274853   3.219   3.559   2.366  0.2097 -0.5662 -0.1155
17813TIP3    H174854   3.287   3.492   2.374  0.3973 -0.2408  1.1308
17813TIP3    H274855   3.158   3.541   2.437 -0.5755 -0.3450 -0.7146
17814TIP3   OH274856   2.584   5.148  12.349 -0.3844 -0.0974  0.4354
17814TIP3    H174857   2.565   5.151  12.443  1.2645  1.0444  0.7720
17814TIP3    H274858   2.657   5.086  12.342 -0.2761  0.0814 -0.0391
17815TIP3   OH274859   4.168   1.964   1.147  0.4420  0.0693  0.5582
17815TIP3    H174860   4.258   1.931   1.141  0.5249 -0.1388  2.4544
17815TIP3    H274861   4.124   1.903   1.205 -0.7671  0.5492  0.1802
17816TIP3   OH274862   5.656   4.735  14.708 -0.0842 -0.1181  0.4347
17816TIP3    H174863   5.737   4.784  14.691  0.7279 -0.6452  2.4422
17816TIP3    H274864   5.682   4.670  14.773 -2.5602  1.0705  2.7898
17817TIP3   OH274865   5.031   2.544  16.242  0.1622 -0.0205  0.5578
17817TIP3    H174866   5.063   2.634  16.235 -1.5955  0.7482  1.7123
17817TIP3    H274867   4.975   2.532  16.165  1.4222 -0.6288 -0.3062
17818TIP3   OH274868   6.106   4.675   2.924  0.1554 -0.0663  0.0103
17818TIP3    H174869   6.164   4.750   2.942  0.8803 -0.5327 -0.3730
17818TIP3    H274870   6.134   4.608   2.985 -0.3816 -0.0991  0.2305
17819TIP3   OH274871   5.196   2.292  14.974  0.3435 -0.2347  0.6631
17819TIP3    H174872   5.110   2.321  15.004 -0.1810  0.0848 -1.0259
17819TIP3    H274873   5.255   2.364  14.996 -0.0978  0.1704  0.5366
17820TIP3   OH274874   3.590   1.757   3.887  0.0332  0.2216  0.3435
17820TIP3    H174875   3.505   1.799   3.900 -0.7912 -0.8422 -1.2706
17820TIP3    H274876   3.610   1.771   3.794  0.1418 -2.1180 -0.0583
17821TIP3   OH274877   2.665   3.578  13.658  0.1990  0.0381  0.3552
17821TIP3    H174878   2.590   3.636  13.669 -0.5013 -0.9078  0.6449
17821TIP3    H274879   2.688   3.552  13.747  2.4675  2.2502  0.5358
17822TIP3   OH274880   6.576   3.907   2.444 -0.6075  0.1243 -0.5532
17822TIP3    H174881   6.563   3.812   2.453 -1.3002  0.2856  0.2111
17822TIP3    H274882   6.629   3.931   2.520 -0.4571  0.3553 -0.7302
17823TIP3   OH274883   4.524   2.749  13.106  0.1921  0.0081  0.2981
17823TIP3    H174884   4.558   2.660  13.120  0.6081  0.2816  1.1143
17823TIP3    H274885   4.453   2.758  13.169 -0.1276  0.1178 -0.0729
17824TIP3   OH274886   4.014   5.107  13.950  0.4154 -0.0804 -0.2858
17824TIP3    H174887   4.002   5.014  13.933  0.9080 -0.4852  1.3507
17824TIP3    H274888   4.050   5.142  13.868  1.9659 -1.7061 -0.3700
17825TIP3   OH274889   1.539   2.165   1.433 -0.4868 -0.2831  0.4228
17825TIP3    H174890   1.633   2.149   1.421 -0.4623 -0.0950  0.3541
17825TIP3    H274891   1.520   2.239   1.376 -1.4660 -2.5832 -2.4694
17826TIP3   OH274892   0.294   2.193   1.319 -0.3848  0.1594 -0.1714
17826TIP3    H174893   0.344   2.124   1.275 -0.2855 -0.7719  1.3520
17826TIP3    H274894   0.207   2.190   1.278  0.3885  1.0142 -2.0262
17827TIP3   OH274895   1.973   6.514  16.880 -0.6985  0.1116  0.0321
17827TIP3    H174896   1.928   6.562  16.811 -1.2643  0.0112  0.3216
17827TIP3    H274897   1.914   6.520  16.955  1.1529  2.7367  1.4512
17828TIP3   OH274898   1.204   2.765   3.259 -0.1781  0.3703 -0.0819
17828TIP3    H174899   1.186   2.794   3.349  0.3274 -0.5224  0.3190
17828TIP3    H274900   1.118   2.767   3.216 -0.0250  3.5065 -0.4339
17829TIP3   OH274901   3.169   5.406   2.485 -0.0525  0.6435  0.2449
17829TIP3    H174902   3.230   5.359   2.429  0.1242  2.4666 -1.1642
17829TIP3    H274903   3.083   5.387   2.448 -0.0080  1.1451 -0.1238
17830TIP3   OH274904   1.735   3.287  16.429  0.2953  0.1327 -0.3367
17830TIP3    H174905   1.683   3.227  16.376  0.4394  1.4671 -2.0569
17830TIP3    H274906   1.676   3.360  16.447  1.2369  1.2110 -1.4845
17831TIP3   OH274907   4.601   5.499   4.975  0.3632 -0.0319 -0.2033
17831TIP3    H174908   4.592   5.405   4.961 -0.8247 -0.0420  0.4296
17831TIP3    H274909   4.693   5.518   4.958  0.4214 -1.1434 -1.2536
17832TIP3   OH274910   4.773   3.678   2.719  0.0076 -0.0167 -0.2316
17832TIP3    H174911   4.805   3.592   2.745  1.3933  0.1529 -1.2670
17832TIP3    H274912   4.790   3.734   2.795  0.3026 -0.3777 -0.0284
17833TIP3   OH274913   6.022   0.262  16.522 -1.0381 -0.0245  0.3935
17833TIP3    H174914   6.105   0.286  16.480 -0.1026 -0.0571  2.1468
17833TIP3    H274915   5.955   0.303  16.467  0.2875  3.1256  0.9033
17834TIP3   OH274916   0.876   4.704   2.440 -0.1095 -0.0258  0.1023
17834TIP3    H174917   0.781   4.694   2.431 -0.1777  0.0899  0.6326
17834TIP3    H274918   0.888   4.740   2.528  0.3175  1.5560 -0.5697
17835TIP3   OH274919   0.417   1.605   3.685 -0.5423  0.3686 -0.5995
17835TIP3    H174920   0.449   1.606   3.595  0.8180 -1.2403 -0.1935
17835TIP3    H274921   0.497   1.608   3.739 -1.3079  0.8233  0.5449
17836TIP3   OH274922   0.566   2.948  15.712 -0.4004  0.4836  0.0023
17836TIP3    H174923   0.627   2.929  15.641 -1.0111 -0.1611 -0.3631
17836TIP3    H274924   0.602   2.900  15.787 -1.6770 -1.8879 -0.7953
17837TIP3   OH274925   2.605   5.915   1.682  0.1870  0.3278 -0.0126
17837TIP3    H174926   2.685   5.868   1.708  0.9793  0.4653 -2.0062
17837TIP3    H274927   2.622   6.006   1.704  0.2503  0.2354  0.3195
17838TIP3   OH274928   2.999   2.765   5.073  0.0805 -0.1909  0.1852
17838TIP3    H174929   2.989   2.709   5.150  0.6459  1.2028  1.3051
17838TIP3    H274930   3.089   2.750   5.044  0.5599  0.8560  1.0876
17839TIP3   OH274931   6.647   5.632  16.571  0.1390  0.2024  0.5900
17839TIP3    H174932   6.721   5.596  16.523  1.6985  3.2354  0.4616
17839TIP3    H274933   6.620   5.562  16.630  2.2382 -1.4649 -0.2968
17840TIP3   OH274934   0.307   0.582   4.520  0.4283 -0.0484  0.4547
17840TIP3    H174935   0.218   0.616   4.532  0.7647  1.0933 -0.1410
17840TIP3    H274936   0.340   0.573   4.610  0.8301  2.6917  0.6830
17841TIP3   OH274937   6.259   3.913   0.535  0.0757 -0.0210  0.0082
17841TIP3    H174938   6.266   3.986   0.595  2.7546  0.1168 -0.3192
17841TIP3    H274939   6.281   3.836   0.588  1.5143 -0.0096 -0.5191
17842TIP3   OH274940   0.445   4.068  13.073  0.1672 -0.0044  0.2295
17842TIP3    H174941   0.481   4.147  13.113  0.8885 -0.7982  1.2150
17842TIP3    H274942   0.403   4.099  12.993 -1.8253  1.7359  1.8237
17843TIP3   OH274943   3.841   6.705  17.254 -0.0731  0.0056  0.0988
17843TIP3    H174944   3.769   6.668  17.305 -0.1314  1.8536  1.4523
17843TIP3    H274945   3.820   6.798  17.248  0.6652  0.0751 -2.1432
17844TIP3   OH274946   3.675   2.364   0.234  0.0003 -0.0143 -0.1131
17844TIP3    H174947   3.703   2.336   0.147 -1.2438 -0.7630 -0.3023
17844TIP3    H274948   3.745   2.422   0.265 -0.0124  1.1269 -2.0380
17845TIP3   OH274949   1.386   6.032  12.712  0.4241 -0.4861  0.9009
17845TIP3    H174950   1.462   6.090  12.723 -1.1660  1.9812 -0.2925
17845TIP3    H274951   1.314   6.080  12.753 -0.9192 -1.8030  0.1527
17846TIP3   OH274952   5.422   1.898  13.977  0.1486 -0.1515 -0.0286
17846TIP3    H174953   5.516   1.881  13.967  1.3777  3.3227  3.3564
17846TIP3    H274954   5.401   1.962  13.909 -0.3232 -2.0005 -1.7576
17847TIP3   OH274955   3.403   4.287   1.776 -0.5517 -0.0430  0.0091
17847TIP3    H174956   3.475   4.225   1.766 -0.1281  0.4154  0.1542
17847TIP3    H274957   3.332   4.236   1.814 -0.1027 -0.3663  0.4188
17848TIP3   OH274958   6.120   2.599   0.733  0.0038 -0.1813  0.1143
17848TIP3    H174959   6.063   2.523   0.723  0.7578 -0.4671 -2.9919
17848TIP3    H274960   6.071   2.672   0.697  0.8674 -0.1003 -0.9746
17849TIP3   OH274961   6.152   6.111   6.184 -0.1368  0.1622  0.0668
17849TIP3    H174962   6.239   6.129   6.219  0.8585 -2.0496 -1.0618
17849TIP3    H274963   6.128   6.192   6.138  0.9437  1.1021  1.1009
17850TIP3   OH274964   2.593   5.735   4.071 -0.0286 -0.5239 -0.7441
17850TIP3    H174965   2.633   5.792   4.137 -0.8075 -0.0302 -0.6889
17850TIP3    H274966   2.633   5.762   3.989 -0.3708  0.1024 -0.7144
17851TIP3   OH274967   3.039   5.488  13.060  0.0965 -0.0071 -0.6559
17851TIP3    H174968   2.976   5.541  13.010 -0.8512 -0.9041 -0.4500
17851TIP3    H274969   3.073   5.425  12.997 -0.6584 -0.7556 -0.3406
17852TIP3   OH274970   2.543   1.896   1.994 -0.0212  0.1672  0.0479
17852TIP3    H174971   2.498   1.924   2.074  2.1317  0.6492  1.1579
17852TIP3    H274972   2.547   1.975   1.941  0.6762  0.4824  0.5470
17853TIP3   OH274973   1.373   0.277  16.811 -0.4475  0.4265 -0.4918
17853TIP3    H174974   1.288   0.272  16.768 -1.7775 -0.9860  2.0554
17853TIP3    H274975   1.410   0.189  16.802  1.2084  1.2369 -2.2863
17854TIP3   OH274976   1.710   5.804  13.778  0.2849  0.3845 -0.1065
17854TIP3    H174977   1.740   5.761  13.858  0.1101  3.6156  1.8886
17854TIP3    H274978   1.789   5.843  13.740  0.1703 -0.0725 -0.8409
17855TIP3   OH274979   0.340   5.687  11.348  0.2673 -0.3993 -0.4356
17855TIP3    H174980   0.257   5.640  11.352  0.4969 -0.8559 -0.8517
17855TIP3    H274981   0.400   5.625  11.306  0.2852  0.7010 -2.1252
17856TIP3   OH274982   1.013   2.678  14.748 -0.0615  0.4420 -0.5761
17856TIP3    H174983   1.035   2.611  14.813  2.1244  1.5153 -0.1373
17856TIP3    H274984   1.075   2.664  14.677 -0.1499  1.4678 -0.8709
17857TIP3   OH274985   1.573   3.326   1.021  0.4215 -0.3893  0.6310
17857TIP3    H174986   1.478   3.332   1.030  0.5056 -0.0978  1.3900
17857TIP3    H274987   1.588   3.325   0.926 -0.2822  0.5888  0.4952
17858TIP3   OH274988   3.816   0.225   5.620 -0.1443 -0.3628  0.1493
17858TIP3    H174989   3.731   0.245   5.659  0.0268  1.0773 -0.1400
17858TIP3    H274990   3.869   0.191   5.693 -0.5253  0.1192  0.6547
17859TIP3   OH274991   6.475   5.954   2.580 -0.1987 -0.0878 -0.1266
17859TIP3    H174992   6.447   5.969   2.671 -0.0887  2.7646 -0.4506
17859TIP3    H274993   6.394   5.957   2.529 -0.0523  0.8598 -0.3311
17860TIP3   OH274994   5.674   1.146  11.501 -0.3426 -0.2160  0.0249
17860TIP3    H174995   5.603   1.197  11.540 -1.1930 -1.6991  0.4949
17860TIP3    H274996   5.674   1.171  11.409  0.5818  2.0765  0.5634
17861TIP3   OH274997   4.774   2.466  17.404  0.3831 -0.0942  0.0971
17861TIP3    H174998   4.753   2.552  17.367 -0.0222  0.5271  1.6981
17861TIP3    H274999   4.829   2.425  17.337  0.2665  1.2450 -0.8792
17862TIP3   OH275000   4.810   2.898   4.679 -0.5423 -0.1921  0.0709
17862TIP3    H175001   4.901   2.906   4.649 -0.6402 -1.6797 -0.6811
17862TIP3    H275002   4.816   2.841   4.755 -0.9122 -0.7828 -0.3413
17863TIP3   OH275003   5.142   2.955   3.338 -0.3897 -0.3934 -0.4837
17863TIP3    H175004   5.070   2.896   3.357 -1.6597  1.1128 -0.3969
17863TIP3    H275005   5.114   3.039   3.375  1.9958 -0.0579  0.7441
17864TIP3   OH275006   3.664   3.698  15.963 -0.6040 -0.1953 -0.1053
17864TIP3    H175007   3.748   3.679  15.919 -0.7255  0.0930 -0.4680
17864TIP3    H275008   3.630   3.775  15.917 -0.8771 -0.0671  0.3081
17865TIP3   OH275009   5.167   1.209   4.179  0.0335  0.2302  0.5256
17865TIP3    H175010   5.256   1.240   4.163 -0.6578  1.5766 -0.9365
17865TIP3    H275011   5.167   1.185   4.272  1.8082  0.5180  0.6466
17866TIP3   OH275012   6.534   0.227   3.526  0.2876 -0.1587  0.6325
17866TIP3    H175013   6.512   0.159   3.462  0.0739 -0.8912  1.4534
17866TIP3    H275014   6.624   0.207   3.553  0.0334 -0.4627  1.2802
17867TIP3   OH275015   6.218   4.403   5.452  0.1463  0.1082 -0.5230
17867TIP3    H175016   6.183   4.322   5.414  0.3196 -0.8434  1.2580
17867TIP3    H275017   6.281   4.434   5.387 -0.3329 -0.8642 -1.4939
17868TIP3   OH275018   5.947   1.772  11.528 -0.8196  0.1148  0.3697
17868TIP3    H175019   5.908   1.849  11.568 -0.8068 -0.5987  1.8177
17868TIP3    H275020   6.029   1.758  11.576  0.9601  1.1439 -2.1167
17869TIP3   OH275021   4.334   4.222  16.571  0.1063  0.3982 -0.6822
17869TIP3    H175022   4.274   4.281  16.525 -1.1376 -1.0667 -1.0365
17869TIP3    H275023   4.377   4.173  16.501  0.3368  0.1575 -0.3724
17870TIP3   OH275024   4.596   0.374  12.996  0.3277  0.6068 -0.2135
17870TIP3    H175025   4.670   0.392  13.054  0.3281 -0.7132  0.2225
17870TIP3    H275026   4.597   0.447  12.934  1.1239  1.3548  0.6437
17871TIP3   OH275027   3.395   1.212  15.490  0.2815 -0.0796  0.2565
17871TIP3    H175028   3.464   1.146  15.479 -0.3903 -1.1890  2.1421
17871TIP3    H275029   3.335   1.196  15.418 -0.0010 -1.7812  0.8115
17872TIP3   OH275030   2.095   6.195  11.743 -0.1274 -0.3785 -0.7940
17872TIP3    H175031   2.157   6.168  11.675 -0.2586  0.6611 -1.3395
17872TIP3    H275032   2.026   6.129  11.740  0.6395 -1.2026 -0.6012
17873TIP3   OH275033   6.716   2.277  12.134  0.1709  0.0706  0.1654
17873TIP3    H175034   6.746   2.329  12.208  1.3932 -0.3383 -0.0281
17873TIP3    H275035   6.697   2.191  12.171  0.7139 -0.1134  0.0230
17874TIP3   OH275036   4.219   5.863   4.164  0.2474 -0.1150 -0.4128
17874TIP3    H175037   4.164   5.832   4.237  0.5921  0.6038  0.1679
17874TIP3    H275038   4.307   5.867   4.201  0.5646 -0.5147 -1.1146
17875TIP3   OH275039   1.787   2.225   2.634 -0.1426  0.3907  0.0074
17875TIP3    H175040   1.693   2.230   2.653 -0.4397 -2.2957 -0.2641
17875TIP3    H275041   1.791   2.200   2.542  0.8805  1.1898 -0.1723
17876TIP3   OH275042   4.452   1.651  10.975 -0.5424 -0.3231 -0.1839
17876TIP3    H175043   4.531   1.646  11.029 -1.0432  1.1540  0.7187
17876TIP3    H275044   4.381   1.622  11.032 -0.7133 -1.4777 -0.9409
17877TIP3   OH275045   0.059   6.323   3.118  0.1254  1.0439 -0.4999
17877TIP3    H175046  -0.000   6.291   3.050  0.1645  0.5154 -0.2907
17877TIP3    H275047   0.066   6.417   3.102  1.5225  0.6816 -2.3177
17878TIP3   OH275048   1.163   6.645   0.387 -0.0478 -0.5699  0.0923
17878TIP3    H175049   1.250   6.656   0.349 -0.5124 -1.1870 -1.2066
17878TIP3    H275050   1.164   6.557   0.424  0.3426 -0.0381  1.4180
17879TIP3   OH275051   1.937   4.030  13.411  0.9222 -0.0211  0.5917
17879TIP3    H175052   1.903   3.989  13.332 -0.4253  1.7078  0.2140
17879TIP3    H275053   2.032   4.033  13.398  0.6163  1.8796 -1.8471
17880TIP3   OH275054   6.359   4.785  12.515  1.0016 -0.2840 -0.0016
17880TIP3    H175055   6.324   4.858  12.566  1.3414 -0.4358  0.4645
17880TIP3    H275056   6.433   4.822  12.467  2.6056 -0.7759  1.9536
17881TIP3   OH275057   2.915   4.858  13.799  0.2463 -0.6859  0.1988
17881TIP3    H175058   2.935   4.853  13.705 -2.7497 -0.9823 -0.5005
17881TIP3    H275059   2.968   4.932  13.830  0.1234  0.4419 -2.0649
17882TIP3   OH275060   4.229   4.172  15.247  0.0153 -0.3011 -0.4364
17882TIP3    H175061   4.242   4.078  15.259  0.4590 -0.4463 -1.9072
17882TIP3    H275062   4.318   4.208  15.246 -0.1817  0.2676  1.0081
17883TIP3   OH275063   4.711   2.920   0.704  0.2228  0.0676  0.3343
17883TIP3    H175064   4.791   2.971   0.690 -0.7629  1.5077 -0.4060
17883TIP3    H275065   4.663   2.928   0.621  0.0264 -2.1570  0.1741
17884TIP3   OH275066   5.144   0.111  13.822  0.1115 -0.1324 -0.4006
17884TIP3    H175067   5.131   0.192  13.871 -0.1943  0.3273 -1.2333
17884TIP3    H275068   5.196   0.136  13.746  2.8285 -1.2882  0.9175
17885TIP3   OH275069   0.814   6.284   5.165 -0.5519 -0.2543  0.4296
17885TIP3    H175070   0.859   6.229   5.101 -2.0488  0.0402 -0.9462
17885TIP3    H275071   0.722   6.261   5.155 -0.9301  0.6438  1.6802
17886TIP3   OH275072   3.040   1.792  10.945 -0.2110 -0.6552  0.2242
17886TIP3    H175073   2.969   1.856  10.934  0.2162 -0.0119  1.1099
17886TIP3    H275074   3.037   1.740  10.866 -1.4559 -0.4078  0.0825
17887TIP3   OH275075   5.362   5.172  10.742 -0.1426  0.5409  0.5247
17887TIP3    H175076   5.325   5.254  10.776  0.0276  1.2436 -0.8861
17887TIP3    H275077   5.451   5.169  10.777  0.4096  1.8115 -0.6741
17888TIP3   OH275078   2.624   1.965   0.898 -0.1241  0.0960  0.2517
17888TIP3    H175079   2.630   2.004   0.986 -0.6314  0.1301  0.2752
17888TIP3    H275080   2.708   1.985   0.857  0.2660 -0.2362  0.8602
17889TIP3   OH275081   3.930   4.932   2.709  0.1554  0.1383 -0.1113
17889TIP3    H175082   3.980   4.994   2.657 -0.8302  0.0348 -1.2229
17889TIP3    H275083   3.848   4.977   2.728 -0.1323 -0.4154 -0.0148
17890TIP3   OH275084   3.381   4.887   2.565 -0.0651 -0.3724 -0.0818
17890TIP3    H175085   3.289   4.866   2.578  0.2959 -1.3083  1.2143
17890TIP3    H275086   3.419   4.884   2.653  1.2926 -0.4503 -0.6411
17891TIP3   OH275087   1.875   0.209  11.110  0.3303 -0.1411  0.1644
17891TIP3    H175088   1.836   0.278  11.164  0.2136  0.6197 -0.8732
17891TIP3    H275089   1.934   0.255  11.051 -0.2720 -0.8372 -1.0145
17892TIP3   OH275090   6.081   0.107   0.925  0.1975 -0.0015  0.1615
17892TIP3    H175091   6.136   0.184   0.935  0.6790 -0.4060  0.6609
17892TIP3    H275092   6.069   0.098   0.830  0.4413  0.4662  0.0853
17893TIP3   OH275093   5.885   3.188  12.325  0.2846 -0.1558 -0.2984
17893TIP3    H175094   5.945   3.197  12.399 -1.5317 -0.5858  1.2835
17893TIP3    H275095   5.923   3.118  12.272  3.2375  2.1311 -1.5095
17894TIP3   OH275096   1.114   5.307  16.675 -0.2462  0.1689 -0.2332
17894TIP3    H175097   1.099   5.213  16.677  0.6615  0.0074 -0.3714
17894TIP3    H275098   1.041   5.342  16.625 -1.2180 -0.3236  0.8143
17895TIP3   OH275099   3.093   1.156  12.794  0.6740  0.1850 -0.1365
17895TIP3    H175100   3.084   1.061  12.785  0.6082 -0.0818  2.1631
17895TIP3    H275101   3.080   1.173  12.887  1.0360  2.4335 -0.4288
17896TIP3   OH275102   6.622   4.271  14.968  0.4919 -0.1057  0.0903
17896TIP3    H175103   6.651   4.198  15.022  2.1596 -0.0206 -0.6371
17896TIP3    H275104   6.606   4.342  15.030 -0.0028 -0.7174  0.6789
17897TIP3   OH275105   3.090   2.307   5.758 -0.0401  0.3669  0.5093
17897TIP3    H175106   3.009   2.356   5.747 -2.1279 -2.6382  1.0540
17897TIP3    H275107   3.084   2.235   5.695  3.1524  1.0336 -0.7530
17898TIP3   OH275108   4.966   4.609   4.972 -0.0761  0.2546  0.2780
17898TIP3    H175109   4.876   4.602   5.003  0.0273  0.7826  0.7157
17898TIP3    H275110   5.019   4.614   5.052  0.4358 -1.0438  0.0412
17899TIP3   OH275111   4.882   4.422  13.970  0.1928 -0.2515 -0.5404
17899TIP3    H175112   4.953   4.401  14.029 -0.2918 -0.6251 -0.0819
17899TIP3    H275113   4.802   4.406  14.021 -0.2220 -0.0565 -1.1126
17900TIP3   OH275114   2.560   2.034   3.830  0.2338 -0.1978  0.2068
17900TIP3    H175115   2.563   2.124   3.862  1.0425  0.0635 -0.5723
17900TIP3    H275116   2.545   2.042   3.736 -2.3874 -0.9627  0.4798
17901TIP3   OH275117   1.121   4.513  17.013 -0.1433 -0.2334 -0.5094
17901TIP3    H175118   1.191   4.449  17.003  0.7822  0.8342 -1.2045
17901TIP3    H275119   1.112   4.553  16.927 -0.4688  0.7878 -0.0254
17902TIP3   OH275120   2.138   3.178   0.890  0.2080  0.0217 -0.0338
17902TIP3    H175121   2.170   3.088   0.895 -1.5725 -0.6133  0.8691
17902TIP3    H275122   2.074   3.185   0.961  0.6037  2.1443  0.1733
17903TIP3   OH275123   6.522   2.828  13.532 -0.0007 -0.0524  0.1661
17903TIP3    H175124   6.584   2.879  13.584 -0.6138 -2.4418  3.6273
17903TIP3    H275125   6.566   2.744  13.518 -1.6444 -1.1257  1.0660
17904TIP3   OH275126   3.461   2.902  13.605 -0.6165 -0.6704  0.3879
17904TIP3    H175127   3.457   2.924  13.698 -0.6312 -0.7413  0.4042
17904TIP3    H275128   3.459   2.806  13.603  1.5989 -0.7804  0.4366
17905TIP3   OH275129   4.799   5.560  10.950 -0.6634 -0.8514  0.2267
17905TIP3    H175130   4.813   5.472  10.914  0.7107 -0.0084 -1.4816
17905TIP3    H275131   4.760   5.610  10.878 -1.7442 -0.1373  1.2780
17906TIP3   OH275132   1.846   0.560  14.449  0.2905  0.3716 -0.5888
17906TIP3    H175133   1.911   0.569  14.518 -0.5729  2.9393 -0.0278
17906TIP3    H275134   1.769   0.524  14.493  0.9691 -1.8459 -1.0871
17907TIP3   OH275135   2.513   2.397   0.951  0.5364  0.0717 -0.0544
17907TIP3    H175136   2.572   2.427   1.020  1.1105 -1.1895  0.0336
17907TIP3    H275137   2.469   2.321   0.988  0.0472  0.0265 -0.7046
17908TIP3   OH275138   0.663   6.170  16.862  0.0992  0.1382  0.0305
17908TIP3    H175139   0.660   6.081  16.829  1.2646  0.2224 -0.3575
17908TIP3    H275140   0.692   6.222  16.787  1.1322  0.5791  0.7092
17909TIP3   OH275141   5.929   6.026   1.748 -0.1458 -0.0863 -0.1108
17909TIP3    H175142   5.858   5.968   1.724  0.4421  0.1208 -2.5689
17909TIP3    H275143   5.992   5.970   1.795 -0.9458 -0.7190  0.2194
17910TIP3   OH275144   5.281   4.300  13.715  0.3242  0.2138  0.2189
17910TIP3    H175145   5.228   4.377  13.693  0.6416 -0.1279 -1.9944
17910TIP3    H275146   5.222   4.226  13.700  0.9300 -0.0913 -0.7345
17911TIP3   OH275147   6.562   0.352  11.597  0.0347  0.0386 -0.1338
17911TIP3    H175148   6.496   0.415  11.571  0.9651  0.0291 -2.9385
17911TIP3    H275149   6.521   0.267  11.582 -0.0991  0.0079  0.4022
17912TIP3   OH275150   2.216   5.590   1.005  0.4782 -0.2278 -0.4500
17912TIP3    H175151   2.234   5.625   0.918 -2.9586  3.6486  0.0865
17912TIP3    H275152   2.131   5.548   0.998 -0.9503  2.0952  1.2554
17913TIP3   OH275153   0.977   1.319   1.779 -0.4846  0.1374  0.5874
17913TIP3    H175154   1.008   1.383   1.715  1.3285  0.1553  1.4203
17913TIP3    H275155   0.927   1.370   1.842 -1.3635  0.2821 -0.1989
17914TIP3   OH275156   0.808   3.399   4.217 -0.1887  0.2592 -0.6535
17914TIP3    H175157   0.723   3.378   4.178 -0.7265 -0.5837  0.9040
17914TIP3    H275158   0.872   3.366   4.154 -1.0121 -0.7029 -1.0143
17915TIP3   OH275159   0.312   3.938  14.071 -0.1873 -0.0703  0.2497
17915TIP3    H175160   0.349   4.013  14.025  0.6125  0.7201  2.0677
17915TIP3    H275161   0.384   3.907  14.126 -1.3322 -0.4014  1.6065
17916TIP3   OH275162   2.212   2.148   0.001 -0.1339 -0.2075  0.0333
17916TIP3    H175163   2.200   2.159   0.095  1.2781  0.0335  0.2034
17916TIP3    H275164   2.301   2.180  -0.016 -0.1015 -0.9130 -1.2578
17917TIP3   OH275165   0.564   5.275  13.250  1.0806  0.4360 -0.0551
17917TIP3    H175166   0.597   5.260  13.162  0.9181  2.3578 -0.4961
17917TIP3    H275167   0.642   5.288  13.304  1.1592  2.3472 -0.5693
17918TIP3   OH275168   6.710   2.364   5.186 -0.1698 -0.5185  0.4148
17918TIP3    H175169   6.619   2.392   5.172 -0.2319 -0.6496  0.5494
17918TIP3    H275170   6.703   2.271   5.207  0.0081 -0.5600  0.2906
17919TIP3   OH275171   2.813   1.752  17.017 -0.0048 -0.4283 -0.5909
17919TIP3    H175172   2.801   1.747  16.922  1.4705  0.0676 -0.8371
17919TIP3    H275173   2.907   1.739  17.029  0.0137  0.7473  0.7024
17920TIP3   OH275174   6.453   0.548  12.057  0.2314 -0.1944 -0.0520
17920TIP3    H175175   6.401   0.532  11.979  0.6779 -1.0929 -0.1725
17920TIP3    H275176   6.528   0.490  12.049 -0.4506 -1.4243  1.7360
17921TIP3   OH275177   6.341   5.588  17.242 -0.1754 -0.2260 -0.2820
17921TIP3    H175178   6.348   5.668  17.293  0.9387 -0.5764  0.1379
17921TIP3    H275179   6.247   5.574  17.232 -0.3942  1.4177 -0.8332
17922TIP3   OH275180   4.623   3.016  16.522  0.6547  1.1217 -0.1781
17922TIP3    H175181   4.705   3.043  16.565  1.1769  1.0245 -1.0878
17922TIP3    H275182   4.608   2.927  16.552  1.9489  0.4194 -1.5099
17923TIP3   OH275183   4.336   0.575  15.747 -0.1990  0.2072 -0.0786
17923TIP3    H175184   4.322   0.670  15.741  2.2720  0.6439 -0.0854
17923TIP3    H275185   4.343   0.557  15.841  0.9212  0.3521 -0.1156
17924TIP3   OH275186   6.630   6.452   2.686 -0.0790  0.2456 -0.1343
17924TIP3    H175187   6.612   6.522   2.749 -0.3815 -0.3120  0.4047
17924TIP3    H275188   6.709   6.482   2.640 -1.1635  1.7521 -1.1252
17925TIP3   OH275189   1.488   4.392   4.785 -1.1753 -0.2056 -0.2652
17925TIP3    H175190   1.560   4.333   4.808 -2.0812 -0.8864  0.9087
17925TIP3    H275191   1.514   4.429   4.701 -0.8034 -2.6459 -1.3004
17926TIP3   OH275192   1.533   0.240  10.762 -0.1785 -0.9062 -0.1522
17926TIP3    H175193   1.579   0.304  10.816  0.5313 -0.1004 -1.6460
17926TIP3    H275194   1.580   0.158  10.778 -0.4181 -0.8410  0.9549
17927TIP3   OH275195   3.386   3.328   4.461 -0.3258  0.2150 -0.3757
17927TIP3    H175196   3.333   3.252   4.484 -0.0103  0.6514  2.0966
17927TIP3    H275197   3.477   3.298   4.466 -0.2225  0.5452 -0.1877
17928TIP3   OH275198   1.142   3.927  15.365  0.0933 -0.3712  0.1926
17928TIP3    H175199   1.139   3.998  15.302  0.8019 -0.6484 -0.1656
17928TIP3    H275200   1.179   3.853  15.316 -0.3747 -0.9054  0.6319
17929TIP3   OH275201   1.746   2.588   5.349  0.2876  0.0838 -0.2233
17929TIP3    H175202   1.718   2.534   5.276  0.2867  0.1185 -0.2485
17929TIP3    H275203   1.761   2.526   5.420 -3.1069  0.3023  0.8708
17930TIP3   OH275204   0.671   5.023   4.106 -0.6143 -0.2624 -0.3185
17930TIP3    H175205   0.649   5.060   4.192 -1.6164  1.8414 -1.4006
17930TIP3    H275206   0.766   5.036   4.099 -0.8542  1.8911 -0.4793
17931TIP3   OH275207   1.604   5.598  11.051  0.0530 -0.2408  0.0784
17931TIP3    H175208   1.549   5.543  11.107 -0.8353  0.5415  0.0177
17931TIP3    H275209   1.688   5.554  11.048 -0.1573 -0.7679  1.3122
17932TIP3   OH275210   2.063   2.432   4.313 -0.4288 -0.2612 -0.3981
17932TIP3    H175211   2.066   2.336   4.318 -0.6914 -0.2238  0.6634
17932TIP3    H275212   2.147   2.456   4.273  0.8632 -0.8130  1.7860
17933TIP3   OH275213   2.738   6.743   1.752 -0.0994 -0.4056  0.1351
17933TIP3    H175214   2.688   6.792   1.816 -1.1422 -1.4428  0.1528
17933TIP3    H275215   2.707   6.653   1.761  0.4298 -0.7470 -1.1489
17934TIP3   OH275216   5.864   5.983  12.621  0.0043  0.1296 -0.4009
17934TIP3    H175217   5.934   5.926  12.656 -0.6541  0.5780  1.8457
17934TIP3    H275218   5.906   6.068  12.609  0.2543 -0.0438 -0.7838
17935TIP3   OH275219   4.440   3.230  11.072 -0.7266 -0.0228 -0.9068
17935TIP3    H175220   4.402   3.303  11.022  0.3541 -0.0065 -1.7405
17935TIP3    H275221   4.459   3.163  11.006 -0.7838 -0.6681 -0.2820
17936TIP3   OH275222   6.157   0.642  17.074  0.3418  0.1268 -0.1313
17936TIP3    H175223   6.118   0.578  17.015  1.5819  0.1880 -1.0674
17936TIP3    H275224   6.238   0.669  17.030 -0.5131  2.9427 -0.1978
17937TIP3   OH275225   6.107   4.630  11.223 -0.3797 -0.3043  0.2059
17937TIP3    H175226   6.024   4.669  11.196 -1.6907 -1.0906  2.8205
17937TIP3    H275227   6.094   4.607  11.315  2.5679 -0.9537  0.5475
17938TIP3   OH275228   5.181   1.043   3.309 -0.0449 -0.2125  0.3074
17938TIP3    H175229   5.163   0.954   3.277  1.1658 -0.5347  0.4686
17938TIP3    H275230   5.098   1.073   3.345  0.1618 -2.4782  3.0342
17939TIP3   OH275231   3.674   3.087  16.711 -0.0895  0.1754 -0.0461
17939TIP3    H175232   3.736   3.156  16.734 -0.0508 -0.0470  0.5317
17939TIP3    H275233   3.714   3.043  16.636 -0.2176  0.9136 -0.5572
17940TIP3   OH275234   0.754   3.640   1.772  0.0603  0.0765 -0.6216
17940TIP3    H175235   0.688   3.698   1.810  0.8345  0.6758 -0.1472
17940TIP3    H275236   0.754   3.563   1.829 -0.9685 -0.4069 -1.2512
17941TIP3   OH275237   4.823   5.070   3.028  0.0578 -0.2024  0.3781
17941TIP3    H175238   4.878   4.994   3.047 -1.5573 -2.0227 -1.6761
17941TIP3    H275239   4.743   5.033   2.989 -1.0317  2.5218 -0.2095
17942TIP3   OH275240   4.942   4.764   1.508  0.1522  0.7802  0.2042
17942TIP3    H175241   4.924   4.712   1.586 -0.2587 -0.0655 -0.4413
17942TIP3    H275242   4.958   4.852   1.542  0.4628  0.3333  1.2824
17943TIP3   OH275243   3.064   2.996  15.140 -0.1456  0.2593  0.0030
17943TIP3    H175244   3.151   2.989  15.180  0.0075  0.7341 -0.2413
17943TIP3    H275245   3.005   2.959  15.206  0.2411 -0.0967  0.1573
17944TIP3   OH275246   2.590   2.999   5.546  0.3739  0.4406  0.2468
17944TIP3    H175247   2.639   2.966   5.470  1.2075 -0.4119  1.1402
17944TIP3    H275248   2.507   3.030   5.508 -0.2202 -2.1124 -0.7486
17945TIP3   OH275249   5.255   0.110   0.132  0.1807 -0.2040  0.3649
17945TIP3    H175250   5.297   0.157   0.205  1.0155  1.5086 -1.1475
17945TIP3    H275251   5.218   0.179   0.077 -0.6146 -1.4678 -0.7485
17946TIP3   OH275252   1.038   5.898   5.160 -0.4365  0.1844 -0.0332
17946TIP3    H175253   1.096   5.961   5.202  0.8875 -0.3480 -0.9813
17946TIP3    H275254   1.042   5.921   5.067 -0.7327 -0.6681 -0.2628
17947TIP3   OH275255   4.647   3.453  16.034 -0.0374 -0.0156  0.1550
17947TIP3    H175256   4.566   3.499  16.060 -0.8058  1.1253 -3.6376
17947TIP3    H275257   4.618   3.366  16.009 -0.2924  0.5861 -1.7941
17948TIP3   OH275258   3.073   6.064   5.289 -0.6818 -0.2011  0.2218
17948TIP3    H175259   3.117   6.049   5.373 -1.7747 -0.5958  0.7410
17948TIP3    H275260   3.110   5.998   5.231  1.2366  1.0720 -0.0786
17949TIP3   OH275261   5.164   6.553   2.244  0.1196  0.5021  0.2323
17949TIP3    H175262   5.250   6.571   2.205  0.2705  0.5785  0.5938
17949TIP3    H275263   5.146   6.631   2.296  0.5150 -0.1343  1.3611
17950TIP3   OH275264   4.050   4.628   6.154 -0.0938  0.2744 -0.0061
17950TIP3    H175265   3.979   4.600   6.096 -0.8576  0.6942  0.7081
17950TIP3    H275266   4.008   4.639   6.239  0.8615  0.4071  0.4559
17951TIP3   OH275267   5.728   6.128   1.521 -0.2002  0.6891  0.0461
17951TIP3    H175268   5.664   6.197   1.500  0.1269  0.9547 -0.0885
17951TIP3    H275269   5.810   6.175   1.534 -0.0998  0.3812  0.5433
17952TIP3   OH275270   3.033   1.309   2.715 -0.4869  0.1103 -0.5063
17952TIP3    H175271   3.094   1.371   2.677  0.0485  1.0744  1.7708
17952TIP3    H275272   2.951   1.324   2.668  0.0351  1.4816 -1.0126
17953TIP3   OH275273   4.427   6.423   2.691 -0.1774 -0.4947  0.0516
17953TIP3    H175274   4.381   6.456   2.613 -1.2797 -1.7778  0.1272
17953TIP3    H275275   4.385   6.339   2.710  0.7534 -0.6744  1.4474
17954TIP3   OH275276   4.220   5.835  17.343  0.0316 -0.2256 -0.1847
17954TIP3    H175277   4.135   5.866  17.310  1.0601  0.7624 -2.0899
17954TIP3    H275278   4.250   5.905  17.401 -0.3281 -0.4749  0.3140
17955TIP3   OH275279   1.121   2.562  11.083 -0.1216  0.1142 -0.2649
17955TIP3    H175280   1.133   2.469  11.068  2.1666  0.2158  0.5552
17955TIP3    H275281   1.075   2.567  11.167  0.4667 -0.2907  0.0885
17956TIP3   OH275282   0.034   0.474   1.515  0.1586 -0.1324  0.0374
17956TIP3    H175283   0.090   0.446   1.587  0.0409  1.0163  0.5971
17956TIP3    H275284   0.071   0.557   1.486  0.9536 -1.1520 -2.0891
17957TIP3   OH275285   4.711   2.337  15.142  0.2365  0.1499 -0.4721
17957TIP3    H175286   4.802   2.327  15.116  1.6400  1.5843  3.2617
17957TIP3    H275287   4.671   2.252  15.121  3.4390 -1.9850  1.2372
17958TIP3   OH275288   1.816   6.345   2.414 -0.2488  0.0649 -0.2390
17958TIP3    H175289   1.728   6.327   2.381  0.1420 -0.3188 -1.1436
17958TIP3    H275290   1.804   6.365   2.506 -1.0969 -1.8713  0.1379
17959TIP3   OH275291   3.783   5.753   5.749  0.5585  0.0257  0.7408
17959TIP3    H175292   3.769   5.848   5.753 -0.7649 -0.1120  0.0880
17959TIP3    H275293   3.786   5.725   5.841  0.6723  0.6609  0.9339
17960TIP3   OH275294   6.592   1.097  11.360 -0.4617 -0.2644 -0.3927
17960TIP3    H175295   6.537   1.045  11.301 -1.2382 -0.7740  0.7447
17960TIP3    H275296   6.566   1.069  11.447  1.3362 -0.2042  0.1973
17961TIP3   OH275297   4.221   1.429  11.110  0.3576 -0.2896  0.0976
17961TIP3    H175298   4.289   1.374  11.071  2.2169 -0.4801  3.2220
17961TIP3    H275299   4.147   1.424  11.050  1.3164 -4.2271 -1.0045
17962TIP3   OH275300   3.211   0.061  16.506  0.5097 -0.1844 -0.3100
17962TIP3    H175301   3.252   0.017  16.431 -0.6997 -0.5748 -0.7505
17962TIP3    H275302   3.174   0.141  16.468 -0.1587 -0.4131 -0.1429
17963TIP3   OH275303   6.208   2.647   5.531 -0.4645 -0.0387  0.2071
17963TIP3    H175304   6.166   2.612   5.610  1.4682 -0.6832  1.0068
17963TIP3    H275305   6.212   2.741   5.545 -0.4874 -0.1100  0.7066
17964TIP3   OH275306   2.563   0.305  12.170 -0.1769  0.7736  0.1408
17964TIP3    H175307   2.559   0.239  12.101 -1.1185  0.0180  0.8906
17964TIP3    H275308   2.537   0.258  12.249 -0.3169  1.9205  0.7889
17965TIP3   OH275309   5.444   1.997   5.907  0.3748  0.2304 -0.5827
17965TIP3    H175310   5.488   1.913   5.916 -0.4091 -0.0722  0.5516
17965TIP3    H275311   5.352   1.975   5.890  0.5112  0.8568 -2.4258
17966TIP3   OH275312   1.928   4.603  15.729  0.6774 -0.0370 -0.1214
17966TIP3    H175313   1.943   4.680  15.674  1.1039 -0.2454 -0.3037
17966TIP3    H275314   1.986   4.617  15.805 -0.6187  0.7228  0.7633
17967TIP3   OH275315   6.420   6.478   4.496 -0.3895 -0.0717 -0.5181
17967TIP3    H175316   6.384   6.459   4.409  0.1320 -0.0443 -0.7489
17967TIP3    H275317   6.462   6.563   4.487 -1.0303  0.3062 -0.0123
17968TIP3   OH275318   0.294   4.897   2.763 -0.4801  0.2941  0.4886
17968TIP3    H175319   0.278   4.818   2.816  3.2316  0.0167  1.4929
17968TIP3    H275320   0.259   4.969   2.815 -0.0129 -0.3285  1.6998
17969TIP3   OH275321   1.320   3.617   0.152 -0.2620  0.0605 -0.9178
17969TIP3    H175322   1.322   3.582   0.063  0.3733 -2.5405  0.0227
17969TIP3    H275323   1.232   3.599   0.183  0.6517 -3.0204  0.3027
17970TIP3   OH275324   1.214   1.980   0.248 -0.1802 -0.6449 -0.0378
17970TIP3    H175325   1.160   2.036   0.193 -0.7448 -2.1604 -1.1003
17970TIP3    H275326   1.151   1.930   0.300  0.3047 -0.3644  0.8341
17971TIP3   OH275327   3.641   4.980  13.199  0.3708  0.1834  0.1197
17971TIP3    H175328   3.674   5.065  13.228  1.7056 -0.0018 -0.7452
17971TIP3    H275329   3.641   4.926  13.278 -0.9805  1.1113  0.7787
17972TIP3   OH275330   3.781   3.529  14.217 -0.6623  0.0768  0.1367
17972TIP3    H175331   3.830   3.515  14.298  0.3407  1.5976 -0.1519
17972TIP3    H275332   3.761   3.623  14.218 -2.2770 -0.2352 -0.4988
17973TIP3   OH275333   4.791   5.994   0.045 -0.2580 -0.4538 -0.0186
17973TIP3    H175334   4.852   5.978   0.116 -0.7338 -1.5102  0.1807
17973TIP3    H275335   4.732   5.918   0.046  0.0519 -0.7788 -1.8714
17974TIP3   OH275336   0.926   0.705   3.343 -0.0312 -0.1732 -0.1392
17974TIP3    H175337   0.959   0.654   3.269 -1.4991  0.2449 -1.1213
17974TIP3    H275338   0.874   0.775   3.304  0.7390  1.2251  1.2409
17975TIP3   OH275339   3.801   2.737   5.326 -0.1759  0.4408 -0.1458
17975TIP3    H175340   3.788   2.832   5.327  1.6808  0.7290  1.2849
17975TIP3    H275341   3.812   2.714   5.418  1.6689 -0.7883 -0.6335
17976TIP3   OH275342   1.960   3.615   4.027  0.1707 -0.4001 -0.4801
17976TIP3    H175343   1.993   3.536   3.985  1.2371  0.6978 -1.7781
17976TIP3    H275344   2.023   3.633   4.096  1.2888  0.6222 -1.7264
17977TIP3   OH275345   0.596   0.429  10.852 -0.5202 -0.0215 -0.0356
17977TIP3    H175346   0.646   0.396  10.927  0.4916 -1.8228 -1.4275
17977TIP3    H275347   0.644   0.506  10.823  0.6975 -0.9300 -0.5003
17978TIP3   OH275348   6.544   6.511  13.473 -0.1923 -0.0910  0.4851
17978TIP3    H175349   6.595   6.564  13.534 -0.5190 -1.0742  1.6457
17978TIP3    H275350   6.517   6.573  13.405  1.1552  0.7880  0.7034
17979TIP3   OH275351   3.971   0.970   5.087 -0.5259  0.3762  0.0790
17979TIP3    H175352   3.982   1.006   5.175 -2.1579  0.8787  0.1107
17979TIP3    H275353   3.990   1.043   5.029  0.7558 -0.0100 -0.0267
17980TIP3   OH275354   6.408   6.737   1.963 -0.6952  0.0516  0.5141
17980TIP3    H175355   6.367   6.659   2.001 -1.2753 -0.3719 -0.8969
17980TIP3    H275356   6.501   6.724   1.977 -0.6625 -1.6172 -0.9264
17981TIP3   OH275357   2.712   6.444  14.701  0.4829  0.4158  0.0474
17981TIP3    H175358   2.688   6.378  14.766 -1.9422  0.1908 -0.9826
17981TIP3    H275359   2.779   6.401  14.647 -0.5117 -0.9648 -0.1478
17982TIP3   OH275360   6.248   0.229   2.950  0.6283 -0.6965 -0.1081
17982TIP3    H175361   6.302   0.170   2.899 -1.0881 -1.4107 -1.1725
17982TIP3    H275362   6.238   0.185   3.035 -0.2529 -1.7518 -0.7335
17983TIP3   OH275363   3.831   2.852   0.618  0.0751 -0.2286 -0.0080
17983TIP3    H175364   3.809   2.805   0.538 -1.9662  0.1287  0.2954
17983TIP3    H275365   3.874   2.786   0.673 -0.1824 -0.9767 -0.6794
17984TIP3   OH275366   4.130   3.993  12.955  0.4079  0.0927 -0.5879
17984TIP3    H175367   4.079   3.971  13.033  1.8857 -0.8891  0.1510
17984TIP3    H275368   4.073   4.051  12.905 -1.1374 -0.3738  0.5367
17985TIP3   OH275369   2.041   0.144   2.418 -0.6597  0.4752 -0.2330
17985TIP3    H175370   1.957   0.103   2.437 -0.0435  0.1753  2.1922
17985TIP3    H275371   2.092   0.076   2.375 -1.2507  0.3124 -0.7051
17986TIP3   OH275372   4.189   1.122   4.212  0.0106  0.0741  0.2046
17986TIP3    H175373   4.096   1.100   4.205 -0.4777  0.2547  4.1040
17986TIP3    H275374   4.191   1.217   4.214  0.1122  0.0561  1.3592
17987TIP3   OH275375   4.158   1.164   1.146 -0.3570 -0.2198  0.2774
17987TIP3    H175376   4.249   1.161   1.176 -0.4749  1.2518  0.8746
17987TIP3    H275377   4.109   1.114   1.212  0.0214 -1.1545 -0.1318
17988TIP3   OH275378   4.643   4.164   2.305  0.0396  0.2232  0.2559
17988TIP3    H175379   4.571   4.120   2.351  0.2912 -0.8428 -0.3299
17988TIP3    H275380   4.714   4.167   2.368  0.5124 -1.5828 -0.1378
17989TIP3   OH275381   5.606   6.589   3.636 -0.3682  0.7655 -0.1947
17989TIP3    H175382   5.665   6.514   3.638 -0.1720  0.8818 -1.0728
17989TIP3    H275383   5.522   6.555   3.666 -0.2802  0.1867 -0.5791
17990TIP3   OH275384   5.983   0.745  14.701 -0.2838  0.4580  0.2332
17990TIP3    H175385   6.041   0.758  14.776 -0.1095 -0.2758  0.2387
17990TIP3    H275386   5.911   0.692  14.735 -1.7722  2.5973  0.5961
17991TIP3   OH275387   2.027   3.718  15.823 -0.2678  0.5595  0.0559
17991TIP3    H175388   2.072   3.770  15.756 -1.2632  0.2537 -0.8879
17991TIP3    H275389   2.023   3.629  15.786 -1.3501  0.5155  0.2383
17992TIP3   OH275390   4.941   3.662  12.812  0.8259 -0.2374  0.1908
17992TIP3    H175391   4.860   3.632  12.770 -0.4273  0.4161  1.9889
17992TIP3    H275392   4.966   3.590  12.870  1.2404 -0.2247  0.0303
17993TIP3   OH275393   3.793   3.688   2.852  0.0482  0.1921  0.2082
17993TIP3    H175394   3.759   3.622   2.792 -2.2936  0.1519  1.4767
17993TIP3    H275395   3.748   3.769   2.827  2.0720  1.1493 -0.6127
17994TIP3   OH275396   5.315   6.061  17.290  0.4208  0.3023 -0.0470
17994TIP3    H175397   5.332   6.155  17.301 -0.0069  0.2004  1.7237
17994TIP3    H275398   5.241   6.044  17.348 -1.3221 -0.6184 -2.3579
17995TIP3   OH275399   2.811   3.642   0.288  0.0955 -0.2368 -0.5682
17995TIP3    H175400   2.886   3.643   0.228 -0.4504 -0.9450 -1.2888
17995TIP3    H275401   2.850   3.648   0.375  1.0381 -1.1813 -0.8911
17996TIP3   OH275402   0.632   2.892  16.347  0.0307  0.5043  0.0238
17996TIP3    H175403   0.608   2.820  16.406 -1.3595 -0.9214 -2.1317
17996TIP3    H275404   0.548   2.933  16.323  0.3776  0.1705 -1.9451
17997TIP3   OH275405   0.997   2.497  11.311  0.0308 -0.2957 -0.0037
17997TIP3    H175406   0.996   2.402  11.307 -2.9000 -0.3213 -0.4976
17997TIP3    H275407   0.934   2.520  11.379 -1.7907  1.2580 -2.0575
17998TIP3   OH275408   0.983   0.181  11.604 -0.1449 -0.0603  0.7203
17998TIP3    H175409   1.050   0.129  11.648  1.9033  0.8703 -1.0972
17998TIP3    H275410   0.929   0.116  11.558  0.3206 -0.7508  1.1303
17999TIP3   OH275411   0.158   6.654   3.261  1.2859  0.1535  0.1402
17999TIP3    H175412   0.211   6.606   3.198  0.4005 -1.4618  0.5552
17999TIP3    H275413   0.114   6.586   3.312  0.7609  1.4208  1.4598
18000TIP3   OH275414   4.439   1.683   4.385 -0.2969 -0.6688 -0.1242
18000TIP3    H175415   4.440   1.704   4.292 -0.0106 -1.1367 -0.2336
18000TIP3    H275416   4.388   1.602   4.391  0.1771 -0.9677  0.0438
18001TIP3   OH275417   1.848   2.480   3.074  0.3041  0.5222 -0.0725
18001TIP3    H175418   1.804   2.402   3.108 -1.2198  0.7058 -1.4679
18001TIP3    H275419   1.833   2.547   3.140 -0.0459  0.1228  0.2571
18002TIP3   OH275420   1.394   4.937  13.674 -0.3974 -0.2914 -0.0613
18002TIP3    H175421   1.420   4.947  13.582 -1.3867 -0.4114 -0.3597
18002TIP3    H275422   1.389   5.027  13.707 -1.6141 -0.1463 -0.5828
18003TIP3   OH275423   2.389   6.309  13.107  1.1296 -0.4769  0.3448
18003TIP3    H175424   2.455   6.374  13.082  0.6159 -0.5596 -1.3544
18003TIP3    H275425   2.306   6.355  13.098  0.8324 -1.0082  0.3261
18004TIP3   OH275426   5.799   5.802  13.449  0.6304  0.2241  0.2855
18004TIP3    H175427   5.797   5.844  13.363  2.6259  1.8458  0.9561
18004TIP3    H275428   5.888   5.817  13.482 -0.4081  0.8385  3.1830
18005TIP3   OH275429   4.389   6.379  12.306  1.0441  0.4110 -0.0499
18005TIP3    H175430   4.468   6.366  12.254  1.2699  0.4031  0.2886
18005TIP3    H275431   4.391   6.472  12.330  0.3131  0.7023 -1.0546
18006TIP3   OH275432   0.853   4.181  12.910  0.7701  0.0225  0.9177
18006TIP3    H175433   0.889   4.117  12.972  0.5726 -1.6441 -0.6147
18006TIP3    H275434   0.927   4.203  12.854  0.3510 -0.3821  0.2051
18007TIP3   OH275435   6.229   6.545  12.884  0.3667 -0.4157  0.2097
18007TIP3    H175436   6.229   6.495  12.965 -0.6958 -0.5291  0.1516
18007TIP3    H275437   6.168   6.498  12.826  2.5306 -1.4459 -1.3760
18008TIP3   OH275438   4.498   1.713  10.085  0.5735 -0.2585  0.4225
18008TIP3    H175439   4.535   1.635  10.042 -0.7614 -1.5533  1.5290
18008TIP3    H275440   4.480   1.685  10.175 -0.1689  1.2614  0.7773
18009TIP3   OH275441   3.053   3.572  17.136  0.0283  0.5666 -0.6979
18009TIP3    H175442   3.020   3.515  17.066 -0.6779  1.0648 -0.7862
18009TIP3    H275443   3.035   3.524  17.217  1.3003 -0.2334 -0.8693
18010TIP3   OH275444   5.811   2.915   0.008  0.2041  0.2399 -0.2138
18010TIP3    H175445   5.878   2.974   0.044 -1.6001  1.1422  1.8828
18010TIP3    H275446   5.807   2.843   0.071  0.1469 -0.5261 -1.0701
18011TIP3   OH275447   0.048   6.127  11.229  0.4063  0.3934 -0.2543
18011TIP3    H175448   0.138   6.108  11.203  0.3045 -0.7839  0.2031
18011TIP3    H275449   0.031   6.068  11.303 -0.9660  0.1184 -0.7666
18012TIP3   OH275450   0.423   6.481   6.074 -0.2913  0.0263 -0.2685
18012TIP3    H175451   0.342   6.438   6.101 -0.1123  1.1590  2.3606
18012TIP3    H275452   0.490   6.443   6.130  0.4117  1.3632 -0.1714
18013TIP3   OH275453   2.619   2.988   2.844 -0.3633 -0.2954  0.1204
18013TIP3    H175454   2.591   2.897   2.833 -2.3347  0.1252  1.3675
18013TIP3    H275455   2.549   3.030   2.893  0.3792  1.9913 -0.6359
18014TIP3   OH275456   0.628   4.041  14.604 -0.1993  0.1260  0.2291
18014TIP3    H175457   0.712   4.011  14.638 -0.8772 -1.2458  0.7478
18014TIP3    H275458   0.634   4.137  14.606  0.1665  0.1314  3.3379
18015TIP3   OH275459   4.554   0.549  15.262  0.0555  0.1584 -0.0831
18015TIP3    H175460   4.559   0.567  15.356 -1.5664 -0.4669  0.1575
18015TIP3    H275461   4.605   0.620  15.222 -1.4748  2.0579  1.1296
18016TIP3   OH275462   2.756   1.595   0.543 -0.7172 -0.5435 -0.1855
18016TIP3    H175463   2.789   1.597   0.632 -0.3010 -2.3754 -0.2505
18016TIP3    H275464   2.819   1.541   0.495 -0.0397  1.7029 -2.0104
18017TIP3   OH275465   4.846   6.086   4.930 -0.4005  0.6976  0.4612
18017TIP3    H175466   4.756   6.054   4.933 -0.5342  1.0977  0.9239
18017TIP3    H275467   4.839   6.179   4.950  0.0062  0.9694 -0.6287
18018TIP3   OH275468   2.711   3.362  14.953 -0.3875  0.4729 -0.3219
18018TIP3    H175469   2.785   3.302  14.964 -0.9915 -0.5648 -1.5491
18018TIP3    H275470   2.642   3.326  15.008 -0.0727  1.3425  0.6847
18019TIP3   OH275471   0.128   0.541   5.101  0.7768  0.0341 -0.0612
18019TIP3    H175472   0.185   0.602   5.054 -0.0191  0.3347 -0.6559
18019TIP3    H275473   0.071   0.505   5.033 -1.3351  1.4902  0.8285
18020TIP3   OH275474   1.067   0.402   1.346  0.4959 -0.0638 -0.3202
18020TIP3    H175475   1.049   0.462   1.419 -0.6393  1.2647 -1.6230
18020TIP3    H275476   0.992   0.413   1.288  1.1197 -1.4920 -1.4328
18021TIP3   OH275477   3.525   6.154  16.406  0.3009  0.1856 -0.1435
18021TIP3    H175478   3.549   6.247  16.399 -1.4193  0.7423  0.7064
18021TIP3    H275479   3.468   6.151  16.483  1.1491 -1.7672  0.4520
18022TIP3   OH275480   1.734   3.565  14.436 -0.0166  0.3397  0.0541
18022TIP3    H175481   1.643   3.548  14.412 -0.0839 -0.0000  0.5259
18022TIP3    H275482   1.751   3.654  14.405 -1.3976  1.5501  2.4211
18023TIP3   OH275483   2.289   1.159  13.770 -0.2104 -0.3085  0.0688
18023TIP3    H175484   2.226   1.087  13.779 -1.4520  0.7871  0.4158
18023TIP3    H275485   2.294   1.198  13.857  1.4977 -0.7866  0.2193
18024TIP3   OH275486   1.574   5.303  13.179  0.1918  0.3393  0.4283
18024TIP3    H175487   1.602   5.393  13.200 -0.9117  0.1977  2.8033
18024TIP3    H275488   1.583   5.255  13.261 -0.4834 -1.4192 -0.4679
18025TIP3   OH275489   3.573   0.363  12.126 -0.0218 -0.2721 -0.6883
18025TIP3    H175490   3.545   0.372  12.035 -1.0983 -0.3926 -0.3848
18025TIP3    H275491   3.508   0.304  12.165 -1.3567  2.0981  0.8921
18026TIP3   OH275492   1.338   3.097   3.987 -0.3943  0.4249  0.3399
18026TIP3    H175493   1.338   3.036   3.914  0.7310  0.0708  0.6200
18026TIP3    H275494   1.352   3.043   4.065 -0.1083  0.9581  0.6691
18027TIP3   OH275495   5.708   6.170  17.017  0.5386 -0.9123 -0.4056
18027TIP3    H175496   5.655   6.123  16.953 -2.8550  2.5846 -0.5403
18027TIP3    H275497   5.738   6.103  17.078 -1.4054 -3.5440 -2.1387
18028TIP3   OH275498   6.411   2.828  11.100  0.1148  0.2346  0.1230
18028TIP3    H175499   6.408   2.748  11.153 -0.2664  0.0697 -0.1504
18028TIP3    H275500   6.481   2.811  11.036  0.3619  0.3109  0.3710
18029TIP3   OH275501   0.894   2.148   2.932 -0.4528  0.4030  0.3205
18029TIP3    H175502   0.832   2.219   2.913  0.5637  1.2245 -0.0186
18029TIP3    H275503   0.980   2.185   2.914  0.0541 -1.3324 -1.2611
18030TIP3   OH275504   4.569   3.030  12.484  0.2476 -0.3756  0.2900
18030TIP3    H175505   4.502   2.965  12.504  0.1870 -0.7125 -0.9258
18030TIP3    H275506   4.582   3.022  12.389 -0.6697  2.2539 -0.1312
18031TIP3   OH275507   0.394   0.376  16.694 -0.2606 -0.4733 -0.0852
18031TIP3    H175508   0.368   0.410  16.609 -1.9189  0.9716  0.9166
18031TIP3    H275509   0.489   0.368  16.690 -0.2871 -0.1998 -1.9527
18032TIP3   OH275510   3.902   2.180   0.372 -0.0741 -0.0324  0.6733
18032TIP3    H175511   3.922   2.115   0.440 -1.3247 -2.4140 -1.1114
18032TIP3    H275512   3.829   2.143   0.323 -0.8531  2.7610 -0.4979
18033TIP3   OH275513   0.840   5.597  13.691  0.1132  0.6031 -0.1129
18033TIP3    H175514   0.934   5.582  13.679  0.1743 -0.6655  1.5161
18033TIP3    H275515   0.808   5.623  13.605  1.6404 -0.7568 -1.1523
18034TIP3   OH275516   5.483   5.052   5.460 -0.2146 -0.0478  0.0502
18034TIP3    H175517   5.447   4.973   5.420  1.1541 -0.0600 -1.2210
18034TIP3    H275518   5.406   5.106   5.480 -1.0418 -0.8412 -0.9052
18035TIP3   OH275519   5.605   0.505   5.251 -0.1533 -0.0958  0.0589
18035TIP3    H175520   5.665   0.580   5.255 -0.9039  0.5063  0.3153
18035TIP3    H275521   5.572   0.495   5.340  0.0973 -0.8673  0.0688
18036TIP3   OH275522   5.110   0.605   5.656 -0.0888  0.0382 -0.5738
18036TIP3    H175523   5.041   0.577   5.596 -0.3025  1.9316 -1.2646
18036TIP3    H275524   5.094   0.698   5.669  0.5954 -0.0998  1.6193
18037TIP3   OH275525   0.147   2.347   0.444  0.3108  0.2391  0.3091
18037TIP3    H175526   0.159   2.273   0.384  0.4500 -1.3214  2.1666
18037TIP3    H275527   0.059   2.380   0.426 -0.0916 -0.9559  0.0457
18038TIP3   OH275528   1.813   5.772  17.299 -0.0152  0.3312  0.2285
18038TIP3    H175529   1.875   5.787  17.370 -1.2502 -0.3420  1.5037
18038TIP3    H275530   1.842   5.690  17.259  0.3452  0.4065  0.3317
18039TIP3   OH275531   0.632   4.603  14.191 -0.0616  0.5127  0.0396
18039TIP3    H175532   0.575   4.670  14.230 -0.9458  0.0565 -0.4250
18039TIP3    H275533   0.697   4.653  14.142  0.3522  1.0598  1.1116
18040TIP3   OH275534   3.722   1.319  14.932  0.0530 -0.1271  0.5177
18040TIP3    H175535   3.676   1.249  14.886  1.9662 -1.5513  0.6633
18040TIP3    H275536   3.778   1.359  14.866 -0.5333  0.8497  0.5920
18041TIP3   OH275537   5.388   4.284   4.652 -0.0650 -0.3330 -0.1738
18041TIP3    H175538   5.335   4.326   4.584 -1.0820  0.0154  0.8034
18041TIP3    H275539   5.410   4.354   4.713  0.6509 -0.6818 -0.0175
18042TIP3   OH275540   5.346   1.573   4.175  0.5067  0.3282 -0.2338
18042TIP3    H175541   5.262   1.593   4.134  0.9910  2.0854 -0.4643
18042TIP3    H275542   5.411   1.608   4.113  1.3303  0.7523  0.8387
18043TIP3   OH275543   1.867   1.145   1.327 -0.1106 -0.5155 -0.1113
18043TIP3    H175544   1.950   1.149   1.375 -0.6734  0.6415  0.8240
18043TIP3    H275545   1.829   1.232   1.338 -1.5590 -1.0920 -0.3265
18044TIP3   OH275546   0.399   1.074   4.638 -0.1742 -0.5576  0.0768
18044TIP3    H175547   0.315   1.030   4.625 -0.2010 -0.0174 -1.7814
18044TIP3    H275548   0.454   1.008   4.681 -1.5561 -0.8756  1.4369
18045TIP3   OH275549   0.833   3.597  16.956 -0.3149  0.1335 -1.0602
18045TIP3    H175550   0.806   3.624  16.868  0.5496  1.3365 -0.9824
18045TIP3    H275551   0.929   3.604  16.954 -0.0497 -2.4109 -0.8282
18046TIP3   OH275552   3.186   0.372   2.937 -0.4635 -0.4623  0.0242
18046TIP3    H175553   3.221   0.460   2.923 -0.9272 -0.1598  0.6693
18046TIP3    H275554   3.238   0.337   3.009  0.4054 -1.1240 -0.9056
18047TIP3   OH275555   2.279   1.712  12.230 -0.5300 -0.0867  0.5419
18047TIP3    H175556   2.228   1.654  12.287  0.1379 -1.0706  0.1620
18047TIP3    H275557   2.345   1.750  12.287 -0.6681 -0.0635  0.6886
18048TIP3   OH275558   0.056   5.396   0.772 -0.9253  0.3740  0.3240
18048TIP3    H175559   0.001   5.370   0.697 -1.7878  0.5195  0.8859
18048TIP3    H275560   0.139   5.351   0.758 -1.2562 -0.0147 -0.4490
18049TIP3   OH275561   2.424   5.725  14.971 -0.6824 -0.4410  0.1593
18049TIP3    H175562   2.397   5.693  14.885  1.4829 -0.4783 -0.5768
18049TIP3    H275563   2.345   5.719  15.025 -1.5436 -2.5465 -1.2108
18050TIP3   OH275564   2.365   0.434   5.887 -0.1418 -0.1044  0.5542
18050TIP3    H175565   2.311   0.458   5.811  0.1155 -1.7884 -0.2217
18050TIP3    H275566   2.368   0.338   5.884  3.0695 -0.1164  0.3989
18051TIP3   OH275567   6.663   3.767  12.606  0.4886 -0.0429 -0.7996
18051TIP3    H175568   6.734   3.724  12.559 -0.0850  0.0305 -1.7613
18051TIP3    H275569   6.596   3.784  12.539  0.7244  2.4125 -0.5114
18052TIP3   OH275570   1.428   6.291  13.106 -0.1622  0.2851  0.1283
18052TIP3    H175571   1.518   6.321  13.122 -0.2028  0.0746  0.7617
18052TIP3    H275572   1.407   6.237  13.181 -0.7617  0.1850 -0.1073
18053TIP3   OH275573   1.696   0.673   2.135  0.6334  0.2204 -0.2264
18053TIP3    H175574   1.647   0.591   2.125  1.0016 -0.3928  2.3669
18053TIP3    H275575   1.629   0.740   2.144  0.3210  0.3629 -2.7119
18054TIP3   OH275576   1.813   3.842   2.986 -0.6486  0.1338 -0.0426
18054TIP3    H175577   1.747   3.832   2.917 -0.6688 -0.5481  0.0643
18054TIP3    H275578   1.848   3.754   2.998  1.6104  0.7415 -1.4105
18055TIP3   OH275579   2.126   5.789   3.120  0.8701  0.2857  0.1206
18055TIP3    H175580   2.122   5.883   3.105  0.0902  0.2450  0.0406
18055TIP3    H275581   2.106   5.750   3.035 -1.7807  0.0553  0.7572
18056TIP3   OH275582   2.938   4.073   3.588  0.0888  0.1964  0.2546
18056TIP3    H175583   2.995   4.105   3.658  0.3119 -0.0551  0.1905
18056TIP3    H275584   2.955   4.132   3.515  0.9712 -0.4446 -0.0687
18057TIP3   OH275585   6.055   5.208   5.853 -0.0089  0.0884 -0.3501
18057TIP3    H175586   6.047   5.272   5.924 -0.0093  1.4996 -1.5612
18057TIP3    H275587   5.980   5.150   5.865 -0.1141  0.4183  0.6848
18058TIP3   OH275588   4.711   3.633   1.998  0.2098  0.2474  0.3336
18058TIP3    H175589   4.617   3.646   2.006 -0.0712 -1.1217 -0.3526
18058TIP3    H275590   4.750   3.698   2.056 -1.2097 -0.4450  2.1551
18059TIP3   OH275591   4.462   1.667  12.126 -0.1812  0.1751 -0.4413
18059TIP3    H175592   4.375   1.695  12.154  0.3671 -0.0071  1.5686
18059TIP3    H275593   4.462   1.572  12.138  0.6287  0.2921  0.6194
18060TIP3   OH275594   4.142   2.416   2.668  0.6285 -0.6803  0.2575
18060TIP3    H175595   4.154   2.461   2.752 -1.4368  1.1906 -0.3498
18060TIP3    H275596   4.230   2.389   2.643  2.0151  2.6660  0.9389
18061TIP3   OH275597   1.055   1.795  16.732 -0.2835  0.4044  0.3452
18061TIP3    H175598   1.000   1.717  16.742  0.0658  0.1874  0.5670
18061TIP3    H275599   1.144   1.764  16.747  0.2211  0.2195 -2.4483
18062TIP3   OH275600   0.974   1.476  12.115  0.2853  0.1384 -0.4288
18062TIP3    H175601   0.888   1.494  12.078 -0.3356 -0.0621  0.8404
18062TIP3    H275602   0.980   1.535  12.190  1.3707  0.3365 -0.6581
18063TIP3   OH275603   0.039   2.769   3.454 -0.2242  0.4507  0.6623
18063TIP3    H175604   0.126   2.762   3.416 -0.5198 -0.2954  0.0968
18063TIP3    H275605   0.027   2.863   3.469 -0.7731  1.0814 -2.7822
18064TIP3   OH275606   0.076   5.428  14.684  0.0611  0.2077 -0.6873
18064TIP3    H175607   0.158   5.439  14.734  1.6501  0.1283 -3.1072
18064TIP3    H275608   0.089   5.483  14.606 -0.2870 -3.1143 -3.2913
18065TIP3   OH275609   5.757   5.190  16.154  0.9795 -0.5246 -0.1957
18065TIP3    H175610   5.772   5.217  16.245  1.0738 -0.3988 -0.2484
18065TIP3    H275611   5.672   5.148  16.156  0.4795  0.4506 -0.2453
18066TIP3   OH275612   5.223   0.817   6.524  0.6902 -0.4156 -0.2653
18066TIP3    H175613   5.272   0.811   6.607  1.4529  0.9690 -0.5886
18066TIP3    H275614   5.168   0.894   6.535  0.3368 -0.5885 -0.8181
18067TIP3   OH275615   1.861   6.044  12.788 -0.4625  0.2155 -0.3184
18067TIP3    H175616   1.813   6.042  12.705  1.0985  0.1775 -1.2633
18067TIP3    H275617   1.908   5.960  12.790 -0.4917  0.2127  0.6149
18068TIP3   OH275618   2.434   5.120   3.508 -0.9336 -0.5851  0.2444
18068TIP3    H175619   2.383   5.071   3.573 -1.3338 -3.3409 -1.9652
18068TIP3    H275620   2.387   5.203   3.499 -0.2411  0.4149  4.1355
18069TIP3   OH275621   1.144   0.963  12.777  0.5984  0.0162  0.1495
18069TIP3    H175622   1.075   0.982  12.842  2.4661 -0.0481  2.2803
18069TIP3    H275623   1.220   1.012  12.809  1.7953 -0.5923 -1.6488
18070TIP3   OH275624   1.518   3.531  14.644 -0.2785 -0.2199  0.0375
18070TIP3    H175625   1.426   3.523  14.618 -0.5927  0.0927  0.9875
18070TIP3    H275626   1.514   3.571  14.731  0.8459  1.5153 -0.6748
18071TIP3   OH275627   3.450   1.277  13.510  0.0037 -0.2945 -0.2639
18071TIP3    H175628   3.420   1.318  13.429 -1.1804 -0.7225 -0.0572
18071TIP3    H275629   3.503   1.343  13.553 -0.1993  0.2911 -0.9038
18072TIP3   OH275630   4.317   4.440  15.769 -0.2406  0.0384 -0.3662
18072TIP3    H175631   4.232   4.415  15.733 -0.7249  2.0198 -0.6665
18072TIP3    H275632   4.314   4.410  15.860 -1.1175 -0.2239 -0.4739
18073TIP3   OH275633   3.709   5.545   3.183 -0.1090 -0.1606 -0.0973
18073TIP3    H175634   3.661   5.623   3.155 -1.3876 -1.0312 -0.4239
18073TIP3    H275635   3.647   5.499   3.240  1.0614 -0.3550  1.0465
18074TIP3   OH275636   2.955   2.870  15.928 -0.4951 -0.3745  0.1853
18074TIP3    H175637   2.925   2.951  15.970  0.1281 -0.0043 -0.0740
18074TIP3    H275638   2.978   2.812  16.000 -0.5495 -0.1683  0.3669
18075TIP3   OH275639   4.027   2.698  17.200 -0.0685 -0.3750 -0.1481
18075TIP3    H175640   3.939   2.663  17.215  0.3563 -1.2080  0.4908
18075TIP3    H275641   4.077   2.672  17.278 -0.0707  2.9421  1.1627
18076TIP3   OH275642   3.817   3.013   3.729 -0.0514 -0.2872 -0.3832
18076TIP3    H175643   3.748   3.048   3.673  0.0587  1.2900  0.4094
18076TIP3    H275644   3.788   3.032   3.818  1.3012  0.2257 -0.0295
18077TIP3   OH275645   5.167   2.869  13.876 -0.1363 -0.0361  0.2611
18077TIP3    H175646   5.073   2.852  13.881 -0.2095  0.3963  0.3586
18077TIP3    H275647   5.205   2.784  13.853 -0.2881 -0.9686  3.0392
18078TIP3   OH275648   1.020   4.011   0.979  0.1963  0.5084  0.2862
18078TIP3    H175649   1.016   4.105   0.959 -0.3549  0.6138  0.8443
18078TIP3    H275650   1.026   4.008   1.074 -0.3825 -0.0319  0.3121
18079TIP3   OH275651   6.558   4.200  15.376  0.2250  0.0742 -0.3881
18079TIP3    H175652   6.576   4.137  15.446  0.2507  0.8115  0.2720
18079TIP3    H275653   6.563   4.285  15.418  0.3002  0.5333 -1.3033
18080TIP3   OH275654   3.577   0.087   2.356 -0.2241  0.5940 -0.4028
18080TIP3    H175655   3.582  -0.008   2.363 -2.1962  0.4851  0.0447
18080TIP3    H275656   3.490   0.105   2.320 -0.4756  2.2801  0.9128
18081TIP3   OH275657   0.238   0.827   2.922 -0.0023 -0.2357 -0.6594
18081TIP3    H175658   0.221   0.770   2.998 -2.9510  0.4055 -0.7230
18081TIP3    H275659   0.210   0.775   2.847 -0.1887  0.3228 -0.9800
18082TIP3   OH275660   3.643   3.920  13.963 -0.0080 -0.8723 -0.4725
18082TIP3    H175661   3.589   3.996  13.984 -0.3996 -1.1560 -0.4405
18082TIP3    H275662   3.732   3.955  13.953 -0.0844 -0.5018  0.1341
18083TIP3   OH275663   1.426   5.079   6.390 -0.1855  0.6314  0.0552
18083TIP3    H175664   1.517   5.098   6.366 -0.1847  1.4996  0.7038
18083TIP3    H275665   1.423   4.983   6.396  0.6414  0.5817 -0.1487
18084TIP3   OH275666   5.501   2.950   0.595 -0.3675 -0.2659 -0.3917
18084TIP3    H175667   5.523   2.979   0.506 -1.0174 -2.6742 -1.4423
18084TIP3    H275668   5.538   2.862   0.601  0.2987  0.0989  2.0447
18085TIP3   OH275669   1.266   4.963   4.583  0.4656  0.0989  0.6829
18085TIP3    H175670   1.246   4.953   4.490  1.4198  2.0386  0.2240
18085TIP3    H275671   1.194   4.919   4.628 -0.6378  0.1542 -0.9549
18086TIP3   OH275672   4.765   6.052  14.345  0.1516 -0.0336 -0.3871
18086TIP3    H175673   4.700   5.987  14.371 -0.6904  0.8817 -0.1415
18086TIP3    H275674   4.802   6.018  14.263  0.8322 -1.5653  0.5211
18087TIP3   OH275675   4.478   2.381   3.335 -0.2713 -0.3245  0.3013
18087TIP3    H175676   4.469   2.448   3.402 -3.3550 -0.5015  0.2261
18087TIP3    H275677   4.524   2.424   3.263 -1.8860  1.6794  0.3810
18088TIP3   OH275678   3.452   4.657  14.969  0.2059  0.2644 -0.1507
18088TIP3    H175679   3.388   4.655  15.040 -0.1407  0.0888 -0.4658
18088TIP3    H275680   3.399   4.664  14.890  0.6222  1.9189 -0.3156
18089TIP3   OH275681   5.339   2.280   5.267 -0.0941 -0.0054  0.1479
18089TIP3    H175682   5.338   2.337   5.344 -0.3392 -0.5601  0.5631
18089TIP3    H275683   5.379   2.199   5.298 -1.1648 -0.6142 -0.0273
18090TIP3   OH275684   1.142   0.997  13.348  0.7344 -0.2589 -0.6162
18090TIP3    H175685   1.205   0.933  13.316  2.0079  1.1362 -1.0210
18090TIP3    H275686   1.162   1.005  13.442 -1.1481 -2.2952  0.0315
18091TIP3   OH275687   2.742   5.512  12.037  0.9383  0.4866 -0.1627
18091TIP3    H175688   2.712   5.562  12.113  1.3546  1.4086 -0.5910
18091TIP3    H275689   2.820   5.558  12.007 -0.4269  1.4774 -2.4589
18092TIP3   OH275690   3.370   4.659  12.006 -0.2180 -0.4573  0.1082
18092TIP3    H175691   3.330   4.733  12.052 -1.4183 -0.8728 -0.2173
18092TIP3    H275692   3.393   4.694  11.919  0.6637 -0.0700  0.4868
18093TIP3   OH275693   5.747   2.621  15.048  0.4230  0.2234 -0.4425
18093TIP3    H175694   5.764   2.693  15.109  1.7003  0.0605 -0.5888
18093TIP3    H275695   5.742   2.662  14.962  1.7536  0.0934 -0.6035
18094TIP3   OH275696   4.784   1.804  16.924 -0.4641  0.0725  0.7398
18094TIP3    H175697   4.802   1.758  17.006 -1.6694  0.0684  1.0216
18094TIP3    H275698   4.754   1.891  16.952 -0.6791  0.1408  0.2966
18095TIP3   OH275699   0.805   4.509  14.415  0.0425 -0.4746 -0.3323
18095TIP3    H175700   0.742   4.532  14.347  0.2454 -1.3446 -0.8322
18095TIP3    H275701   0.871   4.456  14.370  1.8153  1.3978 -0.1102
18096TIP3   OH275702   3.250   0.355  11.720  0.2064  0.1235  0.6850
18096TIP3    H175703   3.235   0.331  11.628 -2.3948  0.6141  0.8779
18096TIP3    H275704   3.344   0.367  11.727  0.8220 -2.6581 -1.2083
18097TIP3   OH275705   4.890   6.106  13.038  0.8514  0.2383  0.0655
18097TIP3    H175706   4.831   6.181  13.043 -0.1559 -0.5930  0.9171
18097TIP3    H275707   4.911   6.099  12.945  0.8759  1.4970 -0.0439
18098TIP3   OH275708   1.976   1.460  14.034  0.4502 -0.1951 -0.1311
18098TIP3    H175709   1.914   1.533  14.043 -0.1761 -0.8991  1.9901
18098TIP3    H275710   2.057   1.501  14.004  0.6007  1.7140  2.4737
18099TIP3   OH275711   2.667   4.790  15.040  0.2305  0.3747  0.1688
18099TIP3    H175712   2.758   4.818  15.028  0.0060  0.1798 -2.6609
18099TIP3    H275713   2.673   4.711  15.094  1.8041  0.1100 -0.3356
18100TIP3   OH275714   4.656   1.404  11.128  0.3649 -0.0290 -0.3472
18100TIP3    H175715   4.702   1.326  11.097  0.0253 -0.3944  0.0474
18100TIP3    H275716   4.715   1.476  11.109  0.1684 -0.2289 -1.8815
18101TIP3   OH275717   0.686   5.622   1.201  0.2095  0.1205 -0.2929
18101TIP3    H175718   0.647   5.534   1.205  0.7913 -0.1042  2.0210
18101TIP3    H275719   0.747   5.618   1.128  0.8223 -1.7084  0.2639
18102TIP3   OH275720   5.615   6.132  12.900 -0.0988 -0.1080  0.0482
18102TIP3    H175721   5.550   6.072  12.936 -0.2475  0.1076  0.1410
18102TIP3    H275722   5.573   6.218  12.903  0.5423  0.1813  0.9840
18103TIP3   OH275723   3.150   3.488   5.505  0.7903 -0.4835 -0.0821
18103TIP3    H175724   3.222   3.429   5.528 -1.2088 -2.7618  0.8022
18103TIP3    H275725   3.099   3.440   5.440 -0.5741  0.5373  0.1747
18104TIP3   OH275726   2.450   4.754  13.474 -0.1431  0.2198 -0.0508
18104TIP3    H175727   2.535   4.786  13.505 -0.7207  1.1651  0.6288
18104TIP3    H275728   2.449   4.661  13.498 -0.1775  0.6916  2.0052
18105TIP3   OH275729   2.655   4.144   5.621 -0.1466  0.1631  0.2911
18105TIP3    H175730   2.646   4.193   5.703  0.1031 -1.6962  1.4871
18105TIP3    H275731   2.749   4.126   5.614 -0.2986 -0.6391  0.1923
18106TIP3   OH275732   0.565   0.214   2.628 -0.0042  0.2214 -0.5214
18106TIP3    H175733   0.479   0.257   2.622  0.5482  1.4281 -0.1674
18106TIP3    H275734   0.557   0.154   2.702 -0.8742 -0.5063 -1.1806
18107TIP3   OH275735   5.560   0.319  16.537 -0.5795  0.0403 -0.4168
18107TIP3    H175736   5.558   0.330  16.632  0.8887 -1.6615 -0.1284
18107TIP3    H275737   5.505   0.243  16.521  1.3432 -1.4042 -0.5517
18108TIP3   OH275738   4.546   6.449  13.385  0.3008 -0.3905  0.6123
18108TIP3    H175739   4.630   6.489  13.408  0.4419 -0.4038  0.1179
18108TIP3    H275740   4.535   6.468  13.292  0.0540 -0.9357  0.5284
18109TIP3   OH275741   3.437   1.287   4.502  0.3753  0.0345 -0.0756
18109TIP3    H175742   3.512   1.331   4.543 -1.2169  1.4981  1.4545
18109TIP3    H275743   3.418   1.339   4.424 -0.6302  1.3274  0.9749
18110TIP3   OH275744   2.814   1.009  12.018  0.3213  0.4119  0.4232
18110TIP3    H175745   2.785   0.964  12.098 -1.1025  2.1185  0.9544
18110TIP3    H275746   2.737   1.059  11.991  0.1638 -1.3890 -3.0452
18111TIP3   OH275747   2.349   3.671  12.386 -0.1173 -0.1382  0.4160
18111TIP3    H175748   2.394   3.754  12.404 -1.0363  0.0947  1.7945
18111TIP3    H275749   2.397   3.634  12.313  1.8465  0.4551  1.3254
18112TIP3   OH275750   2.259   5.136   1.067  0.2870  0.0158  0.2574
18112TIP3    H175751   2.241   5.156   0.975  1.2062 -5.3783 -1.4317
18112TIP3    H275752   2.193   5.071   1.091  2.2333 -1.4541  2.0991
18113TIP3   OH275753   2.349   3.775  12.065  0.6128 -0.3622 -0.2422
18113TIP3    H175754   2.332   3.813  11.979  0.3051  0.2611  0.0862
18113TIP3    H275755   2.383   3.848  12.117 -0.9758 -0.2474  0.6942
18114TIP3   OH275756   1.572   4.723   4.476 -0.0242 -0.4590 -0.3945
18114TIP3    H175757   1.663   4.701   4.497  0.2704  1.7522  0.9228
18114TIP3    H275758   1.576   4.761   4.388  0.0428 -1.8455 -1.0159
18115TIP3   OH275759   2.973   3.752  15.629  0.1113  0.0818 -0.3333
18115TIP3    H175760   2.985   3.752  15.534 -5.3201  0.2609 -1.3239
18115TIP3    H275761   2.951   3.661  15.651 -0.9064  0.4635  0.3131
18116TIP3   OH275762   3.832   4.615   3.255  1.1686 -0.2126 -0.2712
18116TIP3    H175763   3.828   4.699   3.300  1.0024  0.5485 -1.6498
18116TIP3    H275764   3.920   4.581   3.274  0.9645 -0.1259  0.9331
18117TIP3   OH275765   4.479   3.839  11.653  0.0619  0.1239 -0.5332
18117TIP3    H175766   4.454   3.836  11.561 -2.6792  1.8265  0.0279
18117TIP3    H275767   4.442   3.921  11.685  1.9616  0.1716  1.8442
18118TIP3   OH275768   2.777   1.548  10.706 -0.6196  0.4678 -0.0762
18118TIP3    H175769   2.723   1.619  10.741 -2.6316 -1.6158  1.3352
18118TIP3    H275770   2.736   1.525  10.623 -0.3862  0.4859 -0.1978
18119TIP3   OH275771   4.365   2.008  16.077  0.1240 -0.4735  0.8477
18119TIP3    H175772   4.374   2.003  15.982 -0.5168 -1.6552  0.8244
18119TIP3    H275773   4.278   2.044  16.090 -0.2903 -1.4690  0.9560
18120TIP3   OH275774   3.106   5.731   3.988  0.0449 -0.3629  0.0820
18120TIP3    H175775   3.051   5.804   4.015  0.1327 -0.4517  0.5040
18120TIP3    H275776   3.098   5.667   4.059  0.7845 -0.3255  0.2096
18121TIP3   OH275777   1.098   3.779   5.215 -0.1995 -0.3223 -0.0563
18121TIP3    H175778   1.175   3.809   5.164 -0.8947 -1.2279 -1.7209
18121TIP3    H275779   1.036   3.750   5.148 -1.6226 -0.5073  1.3124
18122TIP3   OH275780   1.260   0.300   3.832  0.7841  0.6927 -0.2024
18122TIP3    H175781   1.335   0.314   3.890  0.0985 -0.0850  0.9126
18122TIP3    H275782   1.271   0.365   3.763  3.5680 -0.7024 -1.2139
18123TIP3   OH275783   6.364   0.846  14.155 -0.5694 -0.3734  0.4377
18123TIP3    H175784   6.432   0.910  14.133  0.4443 -1.0196  1.5685
18123TIP3    H275785   6.361   0.787  14.080  0.3141 -0.4853  0.4853
18124TIP3   OH275786   4.559   6.307  13.618  0.0692 -0.0998 -0.2047
18124TIP3    H175787   4.551   6.332  13.526 -2.9084 -1.3549 -0.4023
18124TIP3    H275788   4.634   6.247  13.620 -0.8181 -1.4075 -2.2133
18125TIP3   OH275789   3.190   1.495   5.465 -0.3172 -0.3457 -0.2413
18125TIP3    H175790   3.106   1.540   5.467 -0.5474 -0.7890  0.3793
18125TIP3    H275791   3.170   1.405   5.488  0.0692 -0.9230 -2.0222
18126TIP3   OH275792   2.502   2.622  14.463 -0.2154 -0.3014 -0.1443
18126TIP3    H175793   2.483   2.660  14.377  0.2836 -0.3054 -0.2584
18126TIP3    H275794   2.490   2.528  14.450  0.4533 -0.3635 -0.3782
18127TIP3   OH275795   1.749   5.943   2.267  0.8058  0.4281  0.1028
18127TIP3    H175796   1.699   5.964   2.188  1.3232  0.5046 -0.2092
18127TIP3    H275797   1.691   5.966   2.340 -0.8247 -2.2554 -0.2025
18128TIP3   OH275798   3.070   5.506  13.699  0.3579 -0.2951 -0.1036
18128TIP3    H175799   2.980   5.513  13.666  0.1702  0.7536  0.5848
18128TIP3    H275800   3.125   5.513  13.621 -0.1493 -0.9162 -0.5284
18129TIP3   OH275801   3.620   3.413   1.424 -0.3621  0.5270 -0.0824
18129TIP3    H175802   3.534   3.409   1.465  0.6910  1.1613  2.3902
18129TIP3    H275803   3.615   3.487   1.364 -1.8036 -0.0792 -0.7427
18130TIP3   OH275804   4.109   3.330  14.283 -0.0761  0.5001 -0.1089
18130TIP3    H175805   4.140   3.240  14.291  0.6242  0.8374  1.1119
18130TIP3    H275806   4.125   3.353  14.192  3.0164  0.5491  0.3437
18131TIP3   OH275807   4.601   6.382  17.369  0.2257 -0.7096 -0.6086
18131TIP3    H175808   4.505   6.391  17.365  0.2198 -0.8034 -0.6622
18131TIP3    H275809   4.627   6.358  17.280  0.1431 -2.2404 -0.2431
18132TIP3   OH275810   6.731   5.887   3.727 -0.1819 -0.6313  0.0110
18132TIP3    H175811   6.801   5.937   3.770 -1.2591  0.9323  0.0449
18132TIP3    H275812   6.708   5.940   3.651 -1.1887 -1.2197 -0.1093
18133TIP3   OH275813   4.584   6.496  14.014  0.2292 -0.7375 -0.2130
18133TIP3    H175814   4.643   6.481  14.088 -0.2469  1.1231  0.6019
18133TIP3    H275815   4.627   6.566  13.964 -0.6129 -0.3264 -0.3681
18134TIP3   OH275816   6.724   6.438   3.402  0.0966 -0.3326  0.0650
18134TIP3    H175817   6.793   6.373   3.417  2.4167  1.9183 -0.2578
18134TIP3    H275818   6.668   6.431   3.480 -0.7642 -3.7716 -0.6830
18135TIP3   OH275819   4.396   4.487  17.246  0.2376 -0.8123 -0.1005
18135TIP3    H175820   4.358   4.431  17.178  1.2039 -1.5461 -0.0498
18135TIP3    H275821   4.442   4.427  17.304  0.8281 -0.0225  0.2683
18136TIP3   OH275822   1.212   5.348   2.448 -0.3865 -0.0598  0.0783
18136TIP3    H175823   1.222   5.375   2.357  1.1350 -0.3742  0.1247
18136TIP3    H275824   1.171   5.261   2.442  0.4587 -0.4430 -0.3621
18137TIP3   OH275825   5.681   1.593   2.110  0.4876  0.2221 -0.3012
18137TIP3    H175826   5.754   1.643   2.073  0.1367  0.3307 -0.8618
18137TIP3    H275827   5.636   1.655   2.167  1.1751 -0.0158  0.5092
18138TIP3   OH275828   0.891   3.760   4.396 -0.2974  0.6705 -0.0702
18138TIP3    H175829   0.933   3.845   4.388  0.6960  0.3307  1.1656
18138TIP3    H275830   0.837   3.767   4.474 -0.0753  0.1145  0.1360
18139TIP3   OH275831   2.582   2.077  11.567  0.4100 -0.1190  0.3266
18139TIP3    H175832   2.504   2.123  11.596  1.6208  1.7983  0.7288
18139TIP3    H275833   2.584   1.998  11.620 -0.8819  0.1320  0.7823
18140TIP3   OH275834   4.594   1.783  13.702 -0.2519 -0.3845 -0.1631
18140TIP3    H175835   4.686   1.759  13.706  0.1115  0.1988 -2.9105
18140TIP3    H275836   4.547   1.701  13.688  0.2202 -0.4094 -1.8589
18141TIP3   OH275837   5.987   4.969  11.454  0.7657  0.6624 -0.2463
18141TIP3    H175838   5.919   4.913  11.490  2.7511 -0.9167  1.2511
18141TIP3    H275839   6.021   4.920  11.379  0.0043  1.6508 -1.2691
18142TIP3   OH275840   4.339   4.217   3.686  0.1415  0.3006  0.6917
18142TIP3    H175841   4.281   4.285   3.719 -2.7594 -0.5605 -2.1396
18142TIP3    H275842   4.282   4.141   3.674  1.8841 -0.7398 -1.9023
18143TIP3   OH275843   1.186   6.312  15.160  0.0760 -0.5533 -0.1512
18143TIP3    H175844   1.280   6.297  15.150  0.0975  0.4720 -1.7471
18143TIP3    H275845   1.146   6.227  15.142  0.7004 -1.1197  1.0461
18144TIP3   OH275846   5.368   2.699   4.606  0.3602 -0.0084 -0.0304
18144TIP3    H175847   5.285   2.730   4.570  0.4884  0.3599 -0.0110
18144TIP3    H275848   5.435   2.734   4.547  0.6344  1.3223  1.0279
18145TIP3   OH275849   1.856   0.633   0.869 -0.2679 -0.3009 -0.1606
18145TIP3    H175850   1.787   0.640   0.804  0.7756  2.9021 -1.0761
18145TIP3    H275851   1.931   0.597   0.820  0.5398  2.1769 -0.9078
18146TIP3   OH275852   2.457   0.539  12.529 -0.1053 -0.4198  0.2870
18146TIP3    H175853   2.440   0.479  12.601 -0.7402 -1.3280 -0.5848
18146TIP3    H275854   2.384   0.524  12.469  1.8952 -1.8357 -1.9490
18147TIP3   OH275855   1.378   1.633   2.898  0.7665 -0.2015  0.4035
18147TIP3    H175856   1.437   1.566   2.864 -0.3058 -0.2413 -1.5474
18147TIP3    H275857   1.346   1.597   2.981 -1.3158 -3.1925 -1.4695
18148TIP3   OH275858   3.258   1.642   0.020 -0.1757  0.1796  0.3861
18148TIP3    H175859   3.218   1.726  -0.001 -1.0162 -0.2820  0.0845
18148TIP3    H275860   3.352   1.657   0.014 -0.3347  0.7153 -1.1730
18149TIP3   OH275861   5.964   6.396  12.750 -0.1164 -0.6942  0.2049
18149TIP3    H175862   5.992   6.389  12.841  1.6718 -2.5078 -0.4131
18149TIP3    H275863   5.884   6.447  12.754  2.1009  3.0454  2.3460
18150TIP3   OH275864   3.297   1.024   0.834  0.4744  0.4218 -0.0086
18150TIP3    H175865   3.251   0.983   0.760  0.9413 -0.9388  0.4214
18150TIP3    H275866   3.327   0.950   0.887  1.3146  1.3443  0.8376
18151TIP3   OH275867   3.076   0.127  15.821 -0.5033  0.1535 -0.0308
18151TIP3    H175868   3.109   0.176  15.745 -0.6099 -0.1492 -0.2716
18151TIP3    H275869   3.149   0.072  15.848 -0.3722  0.4675  0.2618
18152TIP3   OH275870   6.301   1.996   0.374  0.1744  0.2215 -0.2876
18152TIP3    H175871   6.395   1.984   0.387 -0.1550 -0.8385  1.3999
18152TIP3    H275872   6.262   1.914   0.404 -1.4263  1.3731  0.9571
18153TIP3   OH275873   0.996   5.519  15.256  0.1158  0.6727 -0.1038
18153TIP3    H175874   0.945   5.457  15.309  0.4754  1.3965  1.1339
18153TIP3    H275875   0.946   5.600  15.261  1.4031  1.4187  1.2047
18154TIP3   OH275876   5.123   2.317  11.541  0.1034 -0.2463 -0.0523
18154TIP3    H175877   5.091   2.236  11.503 -0.0117 -0.3282  0.2142
18154TIP3    H275878   5.208   2.332  11.499  0.0866 -0.4610 -0.1621
18155TIP3   OH275879   3.356   0.480   1.913 -0.4004 -0.1095 -0.2703
18155TIP3    H175880   3.432   0.528   1.880 -0.0605 -0.6821 -0.3221
18155TIP3    H275881   3.392   0.419   1.977 -0.9278  0.2537  0.3908
18156TIP3   OH275882   0.431   1.746   1.938  0.7923 -0.6591  0.3839
18156TIP3    H175883   0.505   1.723   1.882 -0.1901 -2.1156 -0.3733
18156TIP3    H275884   0.387   1.817   1.890  1.3006 -0.2540  0.5069
18157TIP3   OH275885   2.575   2.817  14.666 -0.5604 -0.6332  0.8592
18157TIP3    H175886   2.565   2.752  14.596  1.0582  1.0674 -1.0756
18157TIP3    H275887   2.628   2.773  14.732 -0.3248 -1.6207  0.0402
18158TIP3   OH275888   6.311   2.297  15.543  0.1217  0.3798  0.0312
18158TIP3    H175889   6.222   2.269  15.566 -0.0722 -1.3096 -2.4096
18158TIP3    H275890   6.367   2.244  15.600 -0.3945  0.7990  0.9566
18159TIP3   OH275891   4.067   0.073   5.614  0.2563 -0.2059  0.1422
18159TIP3    H175892   4.157   0.077   5.581  0.2738 -0.7624  0.1152
18159TIP3    H275893   4.043   0.165   5.629  0.4273  0.0314 -0.9252
18160TIP3   OH275894   0.138   4.319   0.060 -0.0809 -0.3992  0.2505
18160TIP3    H175895   0.192   4.315   0.139 -0.9373  0.6939  0.9331
18160TIP3    H275896   0.200   4.336  -0.011  0.5031  0.8358  1.0154
18161TIP3   OH275897   3.374   5.886   5.268  1.3557  0.5486 -0.1974
18161TIP3    H175898   3.395   5.880   5.361  2.8104 -0.3879 -0.5399
18161TIP3    H275899   3.294   5.835   5.257  1.9754 -0.5699  0.3313
18162TIP3   OH275900   0.761   2.099   1.801 -0.0365  0.0781 -0.0889
18162TIP3    H175901   0.835   2.040   1.820 -0.0529 -0.8953 -2.5873
18162TIP3    H275902   0.779   2.177   1.853  1.5030 -1.0272  1.1672
18163TIP3   OH275903   1.596   1.502  12.310 -0.2357  0.2354  0.3892
18163TIP3    H175904   1.501   1.497  12.306 -0.2130 -1.2250  1.1297
18163TIP3    H275905   1.615   1.591  12.341 -1.4432 -0.1113  2.2750
18164TIP3   OH275906   4.859   0.911   2.412  0.2824  0.3149  0.2882
18164TIP3    H175907   4.904   0.874   2.488  1.7799  0.5038 -0.4642
18164TIP3    H275908   4.809   0.838   2.376  1.4112 -0.4133  0.1272
18165TIP3   OH275909   6.422   3.005  11.358  0.1057  0.0223 -0.6701
18165TIP3    H175910   6.487   2.963  11.415 -0.3391 -0.5446 -0.5753
18165TIP3    H275911   6.338   2.969  11.387 -0.2110  0.4249 -1.0806
18166TIP3   OH275912   5.935   4.102  13.467  0.3500 -0.1302 -0.4617
18166TIP3    H175913   5.953   4.012  13.494  2.7087  0.2906 -0.4450
18166TIP3    H275914   5.962   4.155  13.543  1.0637  0.6883 -1.2637
18167TIP3   OH275915   0.966   4.909   5.129 -0.3042  0.2597  0.3803
18167TIP3    H175916   1.006   4.955   5.203  0.8187 -0.2146  0.0946
18167TIP3    H275917   0.873   4.930   5.134 -0.0373  1.2917  1.1572
18168TIP3   OH275918   2.662   1.436  13.625  1.0550 -0.6447  0.6620
18168TIP3    H175919   2.573   1.465  13.643  1.2351  0.6457 -0.3217
18168TIP3    H275920   2.654   1.344  13.599 -0.0658 -0.3661 -0.0038
18169TIP3   OH275921   0.160   5.196   1.398 -0.1509 -0.2395 -0.5520
18169TIP3    H175922   0.223   5.211   1.469  0.2233  0.2225 -0.9693
18169TIP3    H275923   0.142   5.283   1.363 -0.6937 -0.4151 -0.7223
18170TIP3   OH275924   0.614   0.362   5.860  0.0833 -0.5985  0.0885
18170TIP3    H175925   0.601   0.361   5.765 -0.6825 -1.7431  0.1765
18170TIP3    H275926   0.538   0.315   5.895  0.9608 -1.2794  1.1746
18171TIP3   OH275927   5.019   4.979   3.662 -0.5665  0.2965  0.2237
18171TIP3    H175928   5.071   4.972   3.743 -1.7624  1.5117  1.1474
18171TIP3    H275929   5.076   4.945   3.594  0.9592  0.3940  1.3966
18172TIP3   OH275930   5.624   5.910  11.065  0.4033  0.0991 -0.1926
18172TIP3    H175931   5.657   5.974  11.128  0.3235 -2.5666  2.8540
18172TIP3    H275932   5.530   5.928  11.058  0.5461  0.8853 -0.1493
18173TIP3   OH275933   4.192   0.525   5.467  0.2140 -0.3133  0.0930
18173TIP3    H175934   4.234   0.452   5.512 -1.5277 -0.6719  1.1914
18173TIP3    H275935   4.100   0.518   5.489 -0.1707  1.5759 -0.6959
18174TIP3   OH275936   3.361   0.216   1.151 -0.1599  0.2083 -0.2161
18174TIP3    H175937   3.311   0.291   1.183 -1.6738 -0.7877 -0.1297
18174TIP3    H275938   3.307   0.140   1.173  0.9485 -0.8528 -1.0108
18175TIP3   OH275939   5.108   4.035   5.919 -0.1645  0.2447 -0.2980
18175TIP3    H175940   5.049   4.111   5.920  0.0524  0.4200 -0.5222
18175TIP3    H275941   5.050   3.959   5.929 -0.1935  0.5261  2.4171
18176TIP3   OH275942   1.520   0.110   2.629 -0.2972 -0.2901  0.5235
18176TIP3    H175943   1.494   0.080   2.542 -0.4625  0.8205  0.1667
18176TIP3    H275944   1.466   0.060   2.690 -0.8598 -0.4065 -0.0644
18177TIP3   OH275945   3.309   2.456   1.902  0.1901 -0.4007  0.0007
18177TIP3    H175946   3.297   2.501   1.985  0.1423  0.5442 -0.5055
18177TIP3    H275947   3.392   2.490   1.868 -0.3134  0.0122 -0.8322
18178TIP3   OH275948   4.644   4.864   0.870 -0.6084 -0.1959  0.1967
18178TIP3    H175949   4.627   4.909   0.953  0.3636 -1.8666  1.3465
18178TIP3    H275950   4.719   4.910   0.833 -0.4780 -0.0110  0.6774
18179TIP3   OH275951   5.629   5.601   0.986  0.4686 -0.1209 -0.0422
18179TIP3    H175952   5.562   5.548   0.943  1.1623 -0.8299 -0.2701
18179TIP3    H275953   5.704   5.543   0.995  1.3590  0.8945 -0.5590
18180TIP3   OH275954   5.281   4.314   0.830  0.1111  0.2966  0.1664
18180TIP3    H175955   5.327   4.231   0.818 -2.2318 -1.1341  0.4321
18180TIP3    H275956   5.194   4.289   0.863 -1.2503  2.7340 -1.2500
18181TIP3   OH275957   5.494   1.689  13.152 -0.1364  0.4701  0.2749
18181TIP3    H175958   5.513   1.724  13.239  2.8177 -1.3295  0.5034
18181TIP3    H275959   5.453   1.604  13.168 -0.1260  0.3887 -0.0991
18182TIP3   OH275960   0.361   1.320  12.364  0.0645 -0.6879  0.0347
18182TIP3    H175961   0.376   1.408  12.332  0.9519 -0.4823  0.9486
18182TIP3    H275962   0.274   1.324  12.405  0.2367 -0.1367  0.3658
18183TIP3   OH275963   1.180   6.294  14.846 -0.0435 -0.2018  0.0956
18183TIP3    H175964   1.137   6.348  14.913  0.8646 -0.4990  0.9269
18183TIP3    H275965   1.267   6.332  14.837 -0.2283 -0.0177 -1.1122
18184TIP3   OH275966   4.666   2.704  11.728  0.2336  0.5178  0.1811
18184TIP3    H175967   4.642   2.796  11.739 -1.0173  0.1057  1.1726
18184TIP3    H275968   4.587   2.662  11.695  1.4901  0.1713 -2.6296
18185TIP3   OH275969   4.483   1.149  14.772  0.3281  0.4519 -0.8558
18185TIP3    H175970   4.466   1.173  14.863  1.5136 -0.8050 -0.2721
18185TIP3    H275971   4.396   1.131  14.735 -0.2089  1.5337 -0.1540
18186TIP3   OH275972   2.901   1.659   2.704 -0.0553 -0.0805  1.0616
18186TIP3    H175973   2.837   1.611   2.652 -2.2436  1.8598  1.7709
18186TIP3    H275974   2.985   1.619   2.683 -1.0441 -0.5977 -2.5004
18187TIP3   OH275975   2.905   2.057   0.060  0.0760 -0.0506  0.5047
18187TIP3    H175976   2.970   2.127   0.052  1.9961 -1.6560  1.2053
18187TIP3    H275977   2.871   2.068   0.149  1.1327 -0.5735  1.0000
18188TIP3   OH275978   2.638   5.303   3.502 -0.4465  0.2203  0.1467
18188TIP3    H175979   2.559   5.355   3.514 -0.3313 -0.0809  2.6413
18188TIP3    H275980   2.608   5.212   3.507 -0.0795  0.0863 -0.0408
18189TIP3   OH275981   3.219   1.491   2.601  0.0750 -0.1849  0.0751
18189TIP3    H175982   3.242   1.574   2.643  0.4236  0.3005 -1.0403
18189TIP3    H275983   3.303   1.455   2.573 -0.2303  0.1142 -1.2974
18190TIP3   OH275984   6.219   5.955   2.427  0.5083  0.1526 -0.5837
18190TIP3    H175985   6.254   5.867   2.445 -0.4384 -0.7220 -2.6823
18190TIP3    H275986   6.127   5.940   2.406  0.4954  1.5654 -1.6475
18191TIP3   OH275987   2.189   2.727  15.570 -0.2454  0.4695 -0.4612
18191TIP3    H175988   2.271   2.696  15.531 -0.4590  0.9563 -1.3058
18191TIP3    H275989   2.128   2.733  15.497 -1.2747 -0.6199  0.2865
18192TIP3   OH275990   2.897   4.673   5.809 -0.5489  0.5487  0.2739
18192TIP3    H175991   2.953   4.596   5.797 -0.8139  0.1399  1.4809
18192TIP3    H275992   2.921   4.731   5.737 -0.4809 -0.7341 -0.7745
18193TIP3   OH275993   3.663   3.066   5.994  0.0690  0.4468  0.8771
18193TIP3    H175994   3.728   3.121   6.037 -0.1020 -0.4581  2.3587
18193TIP3    H275995   3.710   2.985   5.974  0.2823  1.0127 -1.1565
18194TIP3   OH275996   0.167   0.157  11.092  1.0742  0.6544  0.4949
18194TIP3    H175997   0.243   0.159  11.150  1.6745  1.6975 -0.2945
18194TIP3    H275998   0.201   0.186  11.007  0.2220 -0.8444 -0.3990
18195TIP3   OH275999   5.461   0.795  14.953 -0.5223  0.4308  0.1658
18195TIP3    H176000   5.365   0.788  14.958 -0.4348 -0.2250  1.2871
18195TIP3    H276001   5.478   0.829  14.865 -1.7233 -0.7543 -0.5676
18196TIP3   OH276002   0.377   2.967   4.821 -0.2205  0.0418 -0.6646
18196TIP3    H176003   0.366   2.959   4.726 -0.6605 -2.0615 -0.4753
18196TIP3    H276004   0.472   2.973   4.834 -0.1506  0.1492 -1.2207
18197TIP3   OH276005   5.404   5.896  14.763  0.6883 -0.3270 -0.4177
18197TIP3    H176006   5.426   5.964  14.699 -1.1033  2.2885  1.5322
18197TIP3    H276007   5.386   5.818  14.710  0.3965  1.3770 -3.0001
18198TIP3   OH276008   0.412   2.762   5.032 -0.4406 -0.2878  0.2928
18198TIP3    H176009   0.353   2.787   5.103 -1.0601 -0.0980 -0.2761
18198TIP3    H276010   0.380   2.811   4.956  0.2281 -0.4629 -0.1120
18199TIP3   OH276011   4.554   5.901  17.002  0.4338 -0.2731 -0.1982
18199TIP3    H176012   4.628   5.938  16.956 -0.0861  1.1584  0.0637
18199TIP3    H276013   4.528   5.825  16.950  0.8222  0.3973 -1.4062
18200TIP3   OH276014   5.319   4.163  11.214 -0.2870  0.8150 -0.3764
18200TIP3    H176015   5.281   4.143  11.300 -0.3815  1.2616 -0.3095
18200TIP3    H276016   5.355   4.080  11.184  0.8597  0.9069  0.6485
18201TIP3   OH276017   1.962   1.770   0.417  0.7816 -0.0832 -0.4941
18201TIP3    H176018   2.054   1.777   0.442 -0.0669 -0.1998  3.2139
18201TIP3    H276019   1.938   1.680   0.440 -0.6468  0.4389  0.1412
18202TIP3   OH276020   6.139   5.197  13.794 -0.4296 -0.0792  0.4410
18202TIP3    H176021   6.055   5.191  13.748 -0.7635  1.4598  0.7690
18202TIP3    H276022   6.165   5.289  13.784  1.1525 -0.5008  0.4689
18203TIP3   OH276023   3.941   3.039   1.719 -0.1388 -0.2920 -1.0254
18203TIP3    H176024   3.865   2.990   1.751  0.0589  0.1168  0.0810
18203TIP3    H276025   3.926   3.046   1.624 -1.2835 -0.5564 -0.8764
18204TIP3   OH276026   1.746   2.040  10.687 -0.1585 -0.0505  0.6477
18204TIP3    H176027   1.654   2.046  10.710  0.1382  0.6420  1.7083
18204TIP3    H276028   1.785   1.985  10.755  0.2332 -0.2241  0.2872
18205TIP3   OH276029   0.080   0.659   0.434 -0.1071 -0.3160 -0.0075
18205TIP3    H176030   0.062   0.744   0.475 -0.7290 -1.5248  2.3761
18205TIP3    H276031   0.173   0.662   0.412 -0.5392  1.7372 -1.9703
18206TIP3   OH276032   3.483   4.768  13.666 -0.4039  0.7038  0.1882
18206TIP3    H176033   3.483   4.678  13.699 -0.4239  0.2392 -1.0044
18206TIP3    H276034   3.418   4.814  13.719  0.8158  0.4876  1.9632
18207TIP3   OH276035   0.601   3.255  13.581  0.0776 -0.1283  0.3710
18207TIP3    H176036   0.635   3.181  13.531  0.5005 -0.2435  0.8230
18207TIP3    H276037   0.542   3.301  13.521  0.1154 -0.6110 -0.0313
18208TIP3   OH276038   4.753   6.148   2.319 -0.7012 -0.0166  0.1402
18208TIP3    H176039   4.845   6.131   2.298 -0.3703  0.2572  1.2893
18208TIP3    H276040   4.740   6.240   2.295 -0.6018  0.0211  0.2317
18209TIP3   OH276041   2.489   0.030  11.120  0.4458 -0.4321  0.7010
18209TIP3    H176042   2.444   0.113  11.137  0.9086 -0.1942  0.7886
18209TIP3    H276043   2.438  -0.035  11.169 -0.5157 -0.3711 -0.1787
18210TIP3   OH276044   1.899   3.639  15.552 -0.3065  0.3080  0.2074
18210TIP3    H176045   1.808   3.631  15.581 -0.6337 -0.7211 -0.9804
18210TIP3    H276046   1.944   3.565  15.593  0.0830  0.9882  1.0365
18211TIP3   OH276047   5.279   0.903   4.751 -0.3100 -0.3047 -0.4987
18211TIP3    H176048   5.370   0.877   4.768 -1.1928 -1.3483  3.9328
18211TIP3    H276049   5.274   0.994   4.780 -0.5875 -0.0472 -1.3253
18212TIP3   OH276050   1.437   0.304  13.220 -0.0098  0.5112  0.1082
18212TIP3    H176051   1.399   0.222  13.252 -1.0619  0.3589 -1.4167
18212TIP3    H276052   1.531   0.287  13.216 -0.2547 -0.8519 -0.7019
18213TIP3   OH276053   2.935   3.793   1.170  0.0982  0.4893 -0.2719
18213TIP3    H176054   2.957   3.885   1.154 -0.3347  0.2992 -2.1929
18213TIP3    H276055   2.848   3.796   1.210 -0.3772  0.9079 -1.2834
18214TIP3   OH276056   4.132   3.742   2.092 -0.7851  0.6263  0.0045
18214TIP3    H176057   4.179   3.806   2.145 -0.3470 -0.3954  0.9045
18214TIP3    H276058   4.171   3.658   2.117 -1.5646 -0.0202 -0.8943
18215TIP3   OH276059   5.953   5.644   3.687  0.2024 -0.1133  0.3807
18215TIP3    H176060   5.978   5.721   3.636 -0.0412 -0.5771 -0.4599
18215TIP3    H276061   6.034   5.612   3.726  0.3406  0.4266  0.5412
18216TIP3   OH276062   0.497   0.532  14.540  0.1143  0.0713 -0.6042
18216TIP3    H176063   0.413   0.572  14.565  0.6349  1.6375 -1.2672
18216TIP3    H276064   0.494   0.445  14.580 -2.7265 -0.7786 -2.3664
18217TIP3   OH276065   0.791   0.392   4.893  0.7694  0.5728  0.3900
18217TIP3    H176066   0.804   0.394   4.988  0.0268 -1.9211  0.6233
18217TIP3    H276067   0.737   0.470   4.875  0.1892  0.6289  2.1469
18218TIP3   OH276068   4.110   4.602   1.004  0.1256  0.3612 -0.0284
18218TIP3    H176069   4.195   4.562   1.024 -0.0686 -0.0866 -0.0999
18218TIP3    H276070   4.123   4.646   0.921  1.1085  2.6970  1.2570
18219TIP3   OH276071   1.069   4.078   1.236  0.0406 -0.3962  0.5036
18219TIP3    H176072   1.080   4.153   1.294 -1.1999 -0.8170  1.3468
18219TIP3    H276073   1.099   4.003   1.287  1.2602 -0.5014 -0.3258
18220TIP3   OH276074   6.100   5.658  12.015 -0.4712  0.4637  0.3783
18220TIP3    H176075   6.021   5.664  11.961 -0.2517 -0.3816 -0.0480
18220TIP3    H276076   6.147   5.582  11.981 -0.4923 -0.3008  2.0045
18221TIP3   OH276077   0.022   2.643   2.669  0.1264 -0.6548 -0.0851
18221TIP3    H176078  -0.062   2.601   2.688  0.2194 -1.5753 -1.6123
18221TIP3    H276079   0.015   2.671   2.578  1.6461 -1.1571 -0.3788
18222TIP3   OH276080   3.555   6.164  12.218  0.1865 -0.2768 -0.0617
18222TIP3    H176081   3.573   6.227  12.288  0.8818 -1.0772  0.5099
18222TIP3    H276082   3.619   6.094  12.232 -0.6730 -1.1985 -0.5675
18223TIP3   OH276083   4.465   2.922  15.027  0.5252 -0.2920 -0.0946
18223TIP3    H176084   4.485   2.857  14.959  0.2314  0.0845 -0.5448
18223TIP3    H276085   4.371   2.914  15.041  0.5123 -0.0648 -0.0520
18224TIP3   OH276086   6.510   0.471   5.827  0.6008 -0.5173 -0.3368
18224TIP3    H176087   6.472   0.441   5.909  1.0869 -1.3730 -0.4165
18224TIP3    H276088   6.552   0.554   5.849 -2.5834  1.3383 -0.5598
18225TIP3   OH276089   6.435   2.597   5.351 -0.0175 -0.1838  0.3832
18225TIP3    H176090   6.374   2.599   5.425  0.1106 -0.8073  0.5135
18225TIP3    H276091   6.483   2.679   5.357  0.2554 -0.3899  1.2258
18226TIP3   OH276092   0.903   2.457   4.476  0.2493 -0.4932 -0.0500
18226TIP3    H176093   0.938   2.440   4.389 -0.4827  0.1628 -0.4815
18226TIP3    H276094   0.906   2.372   4.520  0.2487 -0.9159 -0.8490
18227TIP3   OH276095   4.669   4.494   1.358 -0.0662  0.1494  0.0054
18227TIP3    H176096   4.730   4.420   1.365 -0.6925 -0.3534  0.3132
18227TIP3    H276097   4.664   4.529   1.447 -0.4874 -0.0400  0.0632
18228TIP3   OH276098   0.432   5.299  15.232 -0.3556 -0.3275  0.0724
18228TIP3    H176099   0.395   5.273  15.317 -0.0128  1.2569  0.7500
18228TIP3    H276100   0.364   5.355  15.193  0.3277  0.6625  0.2687
18229TIP3   OH276101   1.556   0.323   5.065  0.0662  0.1372 -0.9618
18229TIP3    H176102   1.603   0.406   5.079  0.7932 -0.3987 -0.0675
18229TIP3    H276103   1.500   0.315   5.142  0.4454 -0.4803 -0.7429
18230TIP3   OH276104   4.948   2.073  16.208 -0.2749  0.0111 -0.0389
18230TIP3    H176105   4.858   2.103  16.220 -0.6642 -0.3398 -1.8186
18230TIP3    H276106   4.958   2.063  16.113  1.4236 -0.6337  0.1670
18231TIP3   OH276107   0.406   3.346  16.195  0.3148  0.9966  0.2426
18231TIP3    H176108   0.384   3.284  16.125  1.1262  0.1484  0.7281
18231TIP3    H276109   0.332   3.407  16.196 -0.9307 -0.4552  0.3245
18232TIP3   OH276110   5.890   2.228   5.495 -0.1267  0.1184  0.1871
18232TIP3    H176111   5.948   2.169   5.543 -1.5066  0.6226  2.6239
18232TIP3    H276112   5.950   2.282   5.442  1.3121 -1.7655 -0.2290
18233TIP3   OH276113   0.094   2.797  14.940  0.7955 -0.5636  0.3127
18233TIP3    H176114   0.163   2.731  14.942 -0.5022 -1.9592  0.7701
18233TIP3    H276115   0.034   2.767  14.871 -0.1158 -0.1915  0.9185
18234TIP3   OH276116   5.346   0.843   4.493 -0.0774  0.1184  0.2515
18234TIP3    H176117   5.275   0.833   4.557 -1.7240 -0.0836 -1.5096
18234TIP3    H276118   5.397   0.917   4.525 -0.7795 -0.0422  1.8297
18235TIP3   OH276119   0.945   0.135  10.829 -0.4728 -0.8502  0.4610
18235TIP3    H176120   0.969   0.157  10.740 -1.9390 -0.0050  0.2303
18235TIP3    H276121   0.900   0.051  10.822 -1.8340 -0.1271  0.1618
18236TIP3   OH276122   5.433   6.074  16.487  0.1197 -0.4251  0.0961
18236TIP3    H176123   5.397   6.127  16.416 -0.4263 -0.4484  0.3485
18236TIP3    H276124   5.527   6.073  16.471 -0.0275 -0.7605 -0.8526
18237TIP3   OH276125   3.801   4.440   3.827  0.3029 -0.0514  0.0921
18237TIP3    H176126   3.829   4.349   3.817  0.9419  0.1720 -0.2110
18237TIP3    H276127   3.795   4.453   3.922  0.2181 -0.4060  0.1354
18238TIP3   OH276128   2.302   4.945  13.348  0.0373  0.4086 -0.4334
18238TIP3    H176129   2.328   5.028  13.387  1.4045  0.1406 -0.7127
18238TIP3    H276130   2.355   4.879  13.394 -0.1456 -0.1739 -1.0354
18239TIP3   OH276131   3.665   0.463  13.953  0.7365 -0.6035 -0.2066
18239TIP3    H176132   3.718   0.511  13.889 -0.8565 -0.7914 -1.7435
18239TIP3    H276133   3.660   0.374  13.919 -1.2986 -0.3810 -0.6424
18240TIP3   OH276134   0.089   3.127   0.466  0.1347 -0.2072 -0.2893
18240TIP3    H176135   0.097   3.221   0.486 -2.0104  0.2806 -1.4248
18240TIP3    H276136   0.000   3.118   0.432  1.0402 -2.2769 -2.3202
18241TIP3   OH276137   5.617   2.547  12.735  0.4729  0.1029 -0.5746
18241TIP3    H176138   5.526   2.518  12.722  0.3004 -0.2063  1.0901
18241TIP3    H276139   5.666   2.466  12.750  0.5677  0.4060  0.9146
18242TIP3   OH276140   2.713   2.769   0.158  0.7680  0.4674  0.3024
18242TIP3    H176141   2.703   2.756   0.063  0.6092 -0.8797  0.4767
18242TIP3    H276142   2.683   2.858   0.174  1.0281  0.7986 -0.9496
18243TIP3   OH276143   4.402   1.842  14.545 -0.5243  0.1878 -0.0602
18243TIP3    H176144   4.351   1.789  14.606  1.2659 -2.4629 -0.7167
18243TIP3    H276145   4.491   1.842  14.581  0.0100  0.7818 -1.3082
18244TIP3   OH276146   4.625   6.543   4.815  0.8452 -0.0682  0.1023
18244TIP3    H176147   4.531   6.530   4.824  0.9982 -1.3329  0.0895
18244TIP3    H276148   4.636   6.588   4.732  0.2614  0.0166  0.0679
18245TIP3   OH276149   4.781   6.154   4.598  0.1551  0.1292  0.4366
18245TIP3    H176150   4.790   6.079   4.658  1.2836  1.1561  1.6016
18245TIP3    H276151   4.777   6.230   4.655  0.4393  1.0867 -0.7801
18246TIP3   OH276152   5.975   5.169   4.907 -0.0509  0.1354  0.1977
18246TIP3    H176153   5.927   5.108   4.963 -0.5402  0.2987 -0.0381
18246TIP3    H276154   5.925   5.250   4.912 -0.0594  0.1723 -0.4162
18247TIP3   OH276155   2.649   4.072   1.187  0.0365 -0.0177 -0.2825
18247TIP3    H176156   2.677   4.028   1.107  0.0576  0.1161 -0.3483
18247TIP3    H276157   2.554   4.063   1.187 -0.0056  0.3998 -0.5662
18248TIP3   OH276158   1.680   2.208  17.089 -0.4091 -0.4591  0.6421
18248TIP3    H176159   1.594   2.234  17.120 -0.2185  1.8249 -0.5582
18248TIP3    H276160   1.738   2.279  17.117  0.2497  0.3250 -2.3452
18249TIP3   OH276161   2.185   6.702  10.239 -0.1656 -0.6196 -0.4296
18249TIP3    H176162   2.180   6.665  10.327  0.7641 -1.5290 -0.7331
18249TIP3    H276163   2.133   6.641  10.186  0.7794 -1.1170 -0.8091
18250TIP3   OH276164   1.826   5.146  12.560  0.4190 -0.1044  0.4337
18250TIP3    H176165   1.793   5.106  12.480  0.1067 -0.1408  0.5788
18250TIP3    H276166   1.916   5.113  12.568 -0.1288 -1.5446  1.0476
18251TIP3   OH276167   4.065   2.076  13.716 -0.2108 -0.1798  0.6595
18251TIP3    H176168   4.113   2.153  13.744  2.2981 -1.2949 -0.3068
18251TIP3    H276169   3.980   2.110  13.688  0.4060  2.0547  1.2949
18252TIP3   OH276170   1.129   1.477   5.760 -0.2303  0.2619 -0.0045
18252TIP3    H176171   1.189   1.544   5.793  1.8555 -1.3018 -0.4612
18252TIP3    H276172   1.130   1.409   5.827 -2.8905  0.8985  0.8034
18253TIP3   OH276173   0.773   6.079  12.558 -0.2461  0.5172 -0.1028
18253TIP3    H176174   0.736   6.155  12.514 -1.1304  0.4181  0.4275
18253TIP3    H276175   0.712   6.008  12.539  1.2910 -0.4501 -1.7660
18254TIP3   OH276176   6.090   2.225   5.949 -0.0980  0.6400  0.0867
18254TIP3    H176177   6.106   2.229   5.855  1.0740  0.5146  0.2635
18254TIP3    H276178   6.149   2.156   5.981 -1.2450 -0.0618  0.7734
18255TIP3   OH276179   5.234   3.670  17.226  0.1142 -0.1813  0.1351
18255TIP3    H176180   5.150   3.624  17.229 -0.2212  0.4810  2.3187
18255TIP3    H276181   5.245   3.694  17.134 -3.3870  1.9972  0.1181
18256TIP3   OH276182   6.561   1.728  12.306 -0.7089 -0.3675  0.7422
18256TIP3    H176183   6.476   1.772  12.296 -1.0108 -1.0419  0.2179
18256TIP3    H276184   6.605   1.742  12.222 -0.1855  0.2076  1.1083
18257TIP3   OH276185   5.378   2.645   0.078 -0.1526  0.1686  0.5532
18257TIP3    H176186   5.389   2.654   0.173 -0.3129 -1.0796  0.7066
18257TIP3    H276187   5.462   2.614   0.046 -0.5149 -0.8103  0.5031
18258TIP3   OH276188   5.636   3.714   2.774  0.2496  0.3644 -0.2910
18258TIP3    H176189   5.560   3.760   2.811 -0.9521 -1.3552 -0.4753
18258TIP3    H276190   5.695   3.783   2.746 -1.4816  1.7931 -0.5943
18259TIP3   OH276191   3.554   3.185   5.303  0.0096  0.3945  0.0056
18259TIP3    H176192   3.486   3.119   5.320  0.2034  0.6305  1.8357
18259TIP3    H276193   3.636   3.135   5.303 -0.0025  0.3548 -0.6537
18260TIP3   OH276194   1.429   4.250  13.666  0.3286  0.3227  0.3753
18260TIP3    H176195   1.510   4.232  13.618  1.0492 -0.2294  1.7355
18260TIP3    H276196   1.399   4.334  13.632  1.3806  0.4560 -0.2742
18261TIP3   OH276197   4.313   2.841   1.089  0.6795  0.1417 -0.0996
18261TIP3    H176198   4.289   2.764   1.141  1.6266  0.2319  0.5020
18261TIP3    H276199   4.408   2.835   1.079  0.4683 -0.2235 -2.4369
18262TIP3   OH276200   4.015   1.311   2.893 -0.0858  0.1936 -0.2127
18262TIP3    H176201   4.037   1.246   2.826 -1.7813 -0.7331  0.0480
18262TIP3    H276202   4.020   1.395   2.849 -0.3534 -0.3364 -1.2817
18263TIP3   OH276203   0.227   5.634  17.254  0.4861  0.3656 -0.6264
18263TIP3    H176204   0.235   5.657  17.162 -0.1319 -0.1289 -0.8053
18263TIP3    H276205   0.163   5.696  17.289  2.0694  1.7701 -0.0869
18264TIP3   OH276206   6.313   1.588  14.498 -1.1308 -0.7604 -0.4320
18264TIP3    H176207   6.281   1.638  14.423 -1.5544  1.8975  1.3759
18264TIP3    H276208   6.239   1.587  14.559  0.6183  1.5557  1.9598
18265TIP3   OH276209   4.824   4.762  17.026 -0.1354  0.0680 -0.2562
18265TIP3    H176210   4.752   4.708  16.992 -0.2330  1.5303 -2.6736
18265TIP3    H276211   4.792   4.794  17.110  0.1293 -3.8724  1.5410
18266TIP3   OH276212   4.655   4.387   6.228 -0.3018 -0.4722 -0.2556
18266TIP3    H176213   4.617   4.473   6.215 -1.2434 -0.9518 -0.8080
18266TIP3    H276214   4.731   4.402   6.284 -0.4795  0.6983 -0.3060
18267TIP3   OH276215   0.813   6.492  15.655  0.3057  0.2967  0.2726
18267TIP3    H176216   0.848   6.404  15.637  3.9344  1.5950  0.0195
18267TIP3    H276217   0.821   6.502  15.750  0.4475  0.5086  0.2404
18268TIP3   OH276218   5.812   2.298   6.326  1.1874  0.3770 -0.2298
18268TIP3    H176219   5.839   2.246   6.401 -0.2257  0.5868  0.4570
18268TIP3    H276220   5.882   2.362   6.313  1.6747  0.0106  0.5822
18269TIP3   OH276221   2.474   1.185   5.059  0.0025  0.0432 -0.0884
18269TIP3    H176222   2.433   1.102   5.032  0.2243 -1.0827  2.7429
18269TIP3    H276223   2.434   1.251   5.002  0.9714 -2.0906 -3.6079
18270TIP3   OH276224   4.324   1.156   3.549 -0.2908 -0.6685  0.1973
18270TIP3    H176225   4.346   1.064   3.566 -1.3720 -1.2939 -1.5098
18270TIP3    H276226   4.261   1.152   3.477 -0.3964  1.4248  0.1298
18271TIP3   OH276227   5.617   6.245  15.284  0.3968  0.3840  0.4157
18271TIP3    H176228   5.617   6.157  15.323 -0.8526  0.7981  1.3957
18271TIP3    H276229   5.657   6.232  15.198  0.1214 -1.1717  0.4803
18272TIP3   OH276230   6.378   4.446   5.239 -0.2275  0.1073 -0.0519
18272TIP3    H176231   6.374   4.519   5.178 -1.0511  0.0150 -0.1211
18272TIP3    H276232   6.469   4.415   5.234  0.0495  0.9314 -0.2355
18273TIP3   OH276233   0.538   0.105  10.967  0.1627 -0.5333  0.5683
18273TIP3    H176234   0.480   0.030  10.953 -1.4271  0.6872  0.3852
18273TIP3    H276235   0.595   0.106  10.891  0.2442 -1.5767  0.6007
18274TIP3   OH276236   6.420   4.426  16.582 -0.0749 -0.6629 -0.2006
18274TIP3    H176237   6.351   4.448  16.518 -0.0915 -0.3979 -0.0951
18274TIP3    H276238   6.482   4.373  16.532  0.4805  0.4532 -0.7621
18275TIP3   OH276239   4.290   0.253  16.999  0.2083  0.0683 -0.2153
18275TIP3    H176240   4.377   0.240  17.038  0.5107 -2.0068 -1.4449
18275TIP3    H276241   4.306   0.249  16.905 -0.8921  2.2290 -0.5475
18276TIP3   OH276242   6.487   2.688  14.283 -0.0412 -0.1701 -0.8108
18276TIP3    H176243   6.447   2.602  14.297 -0.9188  0.5799  1.7534
18276TIP3    H276244   6.417   2.741  14.244 -0.3673  0.0694  0.0668
18277TIP3   OH276245   2.099   3.640   0.119  0.2947 -0.0665 -0.2904
18277TIP3    H176246   2.128   3.549   0.108  1.1947  0.2182 -0.2926
18277TIP3    H276247   2.049   3.639   0.200 -0.7727 -0.8169 -0.9316
18278TIP3   OH276248   5.412   5.024  13.941  0.0807  0.0974 -0.0118
18278TIP3    H176249   5.374   4.956  13.996 -0.1675 -0.0322 -0.3399
18278TIP3    H276250   5.449   5.087  14.003  1.1826 -0.8078  0.2871
18279TIP3   OH276251   3.924   3.939   0.291  0.3553 -0.8162 -0.3247
18279TIP3    H176252   3.952   3.886   0.366  0.2133 -1.0375 -0.4263
18279TIP3    H276253   3.966   4.024   0.305 -0.8146 -0.3824  0.7817
18280TIP3   OH276254   0.065   0.118  12.374  0.9424  0.2600 -0.0299
18280TIP3    H176255   0.009   0.125  12.296  1.4103  0.5424 -0.3492
18280TIP3    H276256   0.024   0.174  12.439  0.7900  0.3719 -0.2218
18281TIP3   OH276257   3.582   2.387  12.007 -0.6660 -0.2074 -0.3575
18281TIP3    H176258   3.569   2.304  12.052 -1.4146  0.1963  0.1968
18281TIP3    H276259   3.643   2.435  12.062 -0.9272 -0.0478 -0.2012
18282TIP3   OH276260   5.292   6.547   0.581  0.1852 -0.0695 -0.4428
18282TIP3    H176261   5.331   6.491   0.514 -1.2307 -0.5143 -0.9302
18282TIP3    H276262   5.198   6.526   0.579  0.0534  0.1559  1.4501
18283TIP3   OH276263   1.330   3.387  12.345 -0.5215  0.6259 -0.3829
18283TIP3    H176264   1.320   3.328  12.420  1.3153  1.6571  0.7481
18283TIP3    H276265   1.255   3.367  12.288 -1.2788 -1.0555  1.1215
18284TIP3   OH276266   3.749   5.579   0.739  0.0850  0.1873  0.0218
18284TIP3    H176267   3.732   5.580   0.645 -0.5611 -1.8758  0.0655
18284TIP3    H276268   3.662   5.578   0.779  0.3362 -0.9532  0.5657
18285TIP3   OH276269   2.358   6.722  16.240  0.3156  0.5766 -0.2657
18285TIP3    H176270   2.359   6.783  16.166  0.9084 -0.2346 -0.9455
18285TIP3    H276271   2.421   6.758  16.302  2.2189 -0.3771 -1.5556
18286TIP3   OH276272   3.755   3.283  14.098  0.0057 -0.0245  0.2214
18286TIP3    H176273   3.758   3.354  14.162  0.7037 -0.3406  0.5375
18286TIP3    H276274   3.804   3.212  14.137 -2.5244 -1.5316  0.8780
18287TIP3   OH276275   1.727   4.162   1.061  0.2242  0.1072  0.0779
18287TIP3    H176276   1.704   4.175   1.153  0.5376 -1.9780  0.4923
18287TIP3    H276277   1.697   4.242   1.018  1.3791  1.7992  2.1934
18288TIP3   OH276278   4.480   4.398   3.434  0.8441 -0.6011  0.1940
18288TIP3    H176279   4.436   4.367   3.513  0.1468 -1.9917 -0.6905
18288TIP3    H276280   4.483   4.321   3.377  2.2237  0.1066 -0.7570
18289TIP3   OH276281   4.633   5.554   1.652 -0.4204 -0.0095  0.3544
18289TIP3    H176282   4.596   5.477   1.610  0.1750 -0.2708  0.2962
18289TIP3    H276283   4.685   5.596   1.584  1.5935 -1.1218  1.1096
18290TIP3   OH276284   2.793   1.730  12.579 -0.0730 -0.8811 -0.2817
18290TIP3    H176285   2.878   1.769  12.600 -0.0187 -0.6118 -0.9704
18290TIP3    H276286   2.815   1.644  12.543 -0.0532 -0.6269 -0.8988
18291TIP3   OH276287   0.764   4.212  15.714 -0.9849 -0.8459 -0.1523
18291TIP3    H176288   0.857   4.216  15.733 -1.0060 -1.2431  0.0480
18291TIP3    H276289   0.739   4.302  15.695 -0.8348 -0.5200  1.1056
18292TIP3   OH276290   0.253   5.098   4.870  0.3493  0.1265  0.4928
18292TIP3    H176291   0.276   5.085   4.778 -0.6334  0.2242  0.2293
18292TIP3    H276292   0.207   5.182   4.872  0.5474  0.2276  1.1097
18293TIP3   OH276293   4.402   3.882  15.089 -0.4975  0.3294  0.0424
18293TIP3    H176294   4.415   3.926  15.174  1.7649 -0.3132  0.0973
18293TIP3    H276295   4.336   3.815  15.107  0.3372 -0.1610  1.4814
18294TIP3   OH276296   5.496   1.534  13.875 -0.3556  0.3880  0.1680
18294TIP3    H176297   5.499   1.619  13.919 -0.5377  1.0635 -1.0783
18294TIP3    H276298   5.403   1.520  13.856 -0.4432 -0.5298  1.1427
18295TIP3   OH276299   1.118   0.753   1.299  0.3379 -0.0323 -0.1325
18295TIP3    H176300   1.056   0.793   1.360 -0.1045 -0.5272 -0.2464
18295TIP3    H276301   1.069   0.681   1.260  0.6553  0.1905 -0.9695
18296TIP3   OH276302   6.017   3.251   4.011  0.2026  0.4296  0.4858
18296TIP3    H176303   6.014   3.345   4.028 -0.7305  0.8503 -1.7046
18296TIP3    H276304   6.025   3.243   3.916 -2.0056 -1.6926  0.3718
18297TIP3   OH276305   5.285   1.522  14.458  0.1765  0.6266 -0.0525
18297TIP3    H176306   5.357   1.556  14.511  0.6720 -0.7250  0.1604
18297TIP3    H276307   5.311   1.540  14.367  0.7993  0.1184  0.0230
18298TIP3   OH276308   4.955   3.592  14.494 -0.1682 -0.4353 -0.3786
18298TIP3    H176309   4.894   3.618  14.425  0.2104 -0.6504 -0.7991
18298TIP3    H276310   4.951   3.663  14.558  0.1771  0.2125 -1.0716
18299TIP3   OH276311   3.386   1.946   3.863  0.3313  0.6365  0.1859
18299TIP3    H176312   3.395   1.999   3.784 -1.9664 -0.7539 -1.1176
18299TIP3    H276313   3.299   1.968   3.898  0.6072 -0.0086  1.3543
18300TIP3   OH276314   1.730   6.569   2.190 -0.5371  0.4880  0.3620
18300TIP3    H176315   1.736   6.585   2.096 -3.0925 -0.3633 -0.0326
18300TIP3    H276316   1.819   6.541   2.215  0.2364  0.8347 -1.7504
18301TIP3   OH276317   2.152   5.982   1.279  0.2857 -0.8829  0.7395
18301TIP3    H176318   2.103   6.064   1.270  1.3722 -0.3062 -0.2067
18301TIP3    H276319   2.196   5.989   1.364  0.2112 -0.5801  0.7532
18302TIP3   OH276320   5.083   6.345   3.136  0.5643  0.1279  0.7720
18302TIP3    H176321   5.164   6.354   3.087  0.8255  0.1761  1.2091
18302TIP3    H276322   5.110   6.335   3.227  0.0290  2.7838  1.3084
18303TIP3   OH276323   5.331   3.193   3.565  0.2765  0.3995  0.0778
18303TIP3    H176324   5.242   3.188   3.530  0.7618  1.7340 -1.5199
18303TIP3    H276325   5.377   3.120   3.525  0.2786  0.6340 -0.3545
18304TIP3   OH276326   0.419   5.924  13.653  0.2122 -0.3664 -0.1116
18304TIP3    H176327   0.402   5.996  13.593  1.8446 -1.0107 -1.4089
18304TIP3    H276328   0.350   5.861  13.636 -1.0260  0.6808  0.7898
18305TIP3   OH276329   6.042   0.216  13.044  0.1324  0.4540  0.3510
18305TIP3    H176330   6.015   0.298  13.002 -1.4306 -0.1571  0.1263
18305TIP3    H276331   6.103   0.177  12.981  0.3767  1.1148  0.1619
18306TIP3   OH276332   3.058   2.865  14.889  0.6781 -0.4692 -0.8009
18306TIP3    H176333   3.047   2.901  14.977  1.2482 -1.3680 -0.3465
18306TIP3    H276334   3.151   2.842  14.883  0.5296 -0.9524 -1.4234
18307TIP3   OH276335   3.188   5.480  12.677 -0.0594  0.2660 -0.8286
18307TIP3    H176336   3.203   5.478  12.582 -0.4223  1.8226 -0.9576
18307TIP3    H276337   3.226   5.564  12.705  0.4374 -0.3734  0.4824
18308TIP3   OH276338   1.589   0.110  13.888  0.5096 -0.0815  0.2163
18308TIP3    H176339   1.575   0.016  13.896  1.6264 -0.2110  0.9148
18308TIP3    H276340   1.501   0.148  13.891  0.1353 -0.9507  2.4628
18309TIP3   OH276341   2.577   1.428   6.409 -0.0329 -0.3150 -0.5928
18309TIP3    H176342   2.549   1.337   6.407 -0.3902 -0.2063 -0.6166
18309TIP3    H276343   2.630   1.435   6.489  0.1753 -0.5945 -0.7071
18310TIP3   OH276344   2.432   0.500   4.247 -0.5369 -0.4475  0.1160
18310TIP3    H176345   2.390   0.447   4.315  0.8626 -1.1311  0.4809
18310TIP3    H276346   2.482   0.565   4.295  1.7705 -1.9222 -0.1178
18311TIP3   OH276347   4.922   3.857   3.185  0.4947  0.1068  0.1525
18311TIP3    H176348   5.009   3.882   3.155  0.3341 -1.6028 -1.9822
18311TIP3    H276349   4.862   3.899   3.123 -0.2542  1.1854  1.5420
18312TIP3   OH276350   5.430   4.783  14.222 -0.2489  0.4203 -0.3281
18312TIP3    H176351   5.458   4.694  14.245  0.7220  0.7464 -0.2004
18312TIP3    H276352   5.500   4.840  14.256  0.5437  1.0390 -2.7775
18313TIP3   OH276353   4.155   6.160   2.234  0.2817 -0.1854  0.7952
18313TIP3    H176354   4.162   6.139   2.141  1.1406  1.0227  0.5565
18313TIP3    H276355   4.089   6.230   2.238 -0.7878 -1.1906  1.2829
18314TIP3   OH276356   0.099   6.738  14.250 -0.2385  0.1040 -0.5773
18314TIP3    H176357   0.084   6.799  14.178 -2.1002 -1.5156 -1.6629
18314TIP3    H276358   0.160   6.673  14.214  1.5074  1.0647  0.4781
18315TIP3   OH276359   5.467   2.191   2.874  0.1597 -0.3002 -0.1039
18315TIP3    H176360   5.485   2.102   2.844 -0.2913 -0.1464 -0.8530
18315TIP3    H276361   5.424   2.234   2.800 -0.2979  0.3175  0.5006
18316TIP3   OH276362   2.249   0.441   3.018  0.1331 -0.3636 -0.3110
18316TIP3    H176363   2.327   0.409   3.063  0.9268  0.9818 -0.6660
18316TIP3    H276364   2.185   0.371   3.028  1.9068 -2.2716 -1.4936
18317TIP3   OH276365   1.200   1.453  10.610  0.1386  0.4400  0.8259
18317TIP3    H176366   1.192   1.400  10.689 -1.5550 -1.1753 -0.3580
18317TIP3    H276367   1.117   1.502  10.605  0.5270  1.0828  0.4163
18318TIP3   OH276368   2.935   1.740  12.978  0.2396  0.6235  0.4986
18318TIP3    H176369   2.987   1.661  12.962  1.8817  1.5855  0.8503
18318TIP3    H276370   2.971   1.805  12.919 -0.1009  1.5264  1.2560
18319TIP3   OH276371   6.215   3.923   3.502  0.6107  0.5408 -0.6461
18319TIP3    H176372   6.235   3.981   3.429 -1.2497 -0.2008 -1.8204
18319TIP3    H276373   6.283   3.855   3.498  0.3582  0.3351 -1.9171
18320TIP3   OH276374   0.749   2.735  12.043 -0.6725  0.2006 -0.6748
18320TIP3    H176375   0.672   2.723  12.098  0.0107 -0.2187  0.2101
18320TIP3    H276376   0.815   2.773  12.101  0.7937 -2.3074 -0.5579
18321TIP3   OH276377   3.257   2.861   3.551 -0.3296 -0.3207 -0.4869
18321TIP3    H176378   3.282   2.796   3.485 -3.1513 -0.8798 -1.1295
18321TIP3    H276379   3.185   2.909   3.511 -0.5941  0.9002  1.3377
18322TIP3   OH276380   4.718   4.592  16.625 -0.3215  0.0579  0.5951
18322TIP3    H176381   4.806   4.566  16.595  0.1116  2.7996 -0.8956
18322TIP3    H276382   4.727   4.684  16.647 -3.0508  0.7573 -0.7472
18323TIP3   OH276383   1.813   5.509  15.411  0.3880  0.4477 -0.1177
18323TIP3    H176384   1.768   5.439  15.458  0.1382  0.7955  0.1655
18323TIP3    H276385   1.801   5.587  15.465  0.8388  0.6714 -0.3250
18324TIP3   OH276386   1.606   6.150  12.828  0.0703 -0.3163 -0.2985
18324TIP3    H176387   1.570   6.097  12.900 -0.8123 -2.0579 -1.9540
18324TIP3    H276388   1.700   6.152  12.846 -0.2435  0.3577  1.5534
18325TIP3   OH276389   4.666   2.141   1.003 -0.3535  0.9049 -0.3527
18325TIP3    H176390   4.581   2.130   1.047  0.3234 -0.7887  0.6508
18325TIP3    H276391   4.719   2.189   1.066 -0.4646  1.7372 -0.8765
18326TIP3   OH276392   3.208   1.006   3.661  0.1742 -0.3542  0.2286
18326TIP3    H176393   3.297   1.000   3.628 -0.1559 -1.9213 -0.4595
18326TIP3    H276394   3.202   0.937   3.727 -0.7662 -0.8454 -0.3497
18327TIP3   OH276395   5.687   2.023   5.474 -0.3751 -0.3685 -0.2645
18327TIP3    H176396   5.652   2.004   5.561 -1.2451  1.1390 -0.2568
18327TIP3    H276397   5.755   2.089   5.489 -0.1214 -0.5319 -0.6748
18328TIP3   OH276398   1.767   0.943   3.255 -0.5218 -0.0715 -0.0128
18328TIP3    H176399   1.735   0.902   3.175  0.5990  1.2534 -1.2092
18328TIP3    H276400   1.689   0.983   3.294 -0.7803  1.2358 -1.7073
18329TIP3   OH276401   4.182   4.137  16.798 -0.2442  0.4884 -0.1281
18329TIP3    H176402   4.237   4.156  16.722  0.5059 -1.6648 -0.1695
18329TIP3    H276403   4.093   4.138  16.764  0.1128 -0.8906 -1.1476
18330TIP3   OH276404   4.080   4.188  14.444  0.0545 -0.3212  0.1385
18330TIP3    H176405   4.166   4.219  14.414  0.9548 -2.5539  0.2329
18330TIP3    H276406   4.097   4.148  14.529 -1.6890  1.9501  1.6729
18331TIP3   OH276407   0.528   1.680   3.437 -0.1946  0.0357  0.1836
18331TIP3    H176408   0.546   1.635   3.354 -3.2025  0.3103 -0.7615
18331TIP3    H276409   0.594   1.748   3.442  1.2437 -1.1921 -0.9974
18332TIP3   OH276410   3.082   5.343   0.275  0.1184  0.0550 -0.0912
18332TIP3    H176411   3.086   5.252   0.246  0.8011  0.5056 -1.5461
18332TIP3    H276412   3.164   5.382   0.243 -0.4991  1.3642 -0.1717
18333TIP3   OH276413   2.968   3.822  11.478 -0.2842 -0.1010  0.4421
18333TIP3    H176414   2.995   3.849  11.390  0.1239 -1.5723  0.0939
18333TIP3    H276415   2.873   3.832  11.478 -0.3698 -0.7912 -0.4306
18334TIP3   OH276416   0.307   1.125  13.100 -0.2630 -0.3598 -0.1140
18334TIP3    H176417   0.288   1.203  13.047  2.1118  0.6643  0.4039
18334TIP3    H276418   0.337   1.159  13.184  2.4543 -1.6971 -0.4261
18335TIP3   OH276419   3.195   3.931  17.061 -0.1695 -0.4238  0.3121
18335TIP3    H176420   3.131   4.003  17.054  0.5817  0.2616  0.3817
18335TIP3    H276421   3.280   3.973  17.051  0.2404 -1.4830 -0.9586
18336TIP3   OH276422   0.813   1.085  15.014  0.3708 -0.1730 -0.4140
18336TIP3    H176423   0.814   1.119  14.924 -0.5611  0.5058 -0.1856
18336TIP3    H276424   0.765   1.002  15.007 -0.2243  0.1647 -0.4647
18337TIP3   OH276425   2.915   3.298  12.966 -0.1796 -0.0441  0.2297
18337TIP3    H176426   2.973   3.368  12.936 -1.3092 -0.2863 -2.8678
18337TIP3    H276427   2.958   3.218  12.938  0.2460 -0.5313  2.1820
18338TIP3   OH276428   2.143   2.689   0.504 -0.0631 -0.7504 -0.1273
18338TIP3    H176429   2.119   2.705   0.595  0.2637 -0.9113 -0.0116
18338TIP3    H276430   2.235   2.661   0.508  0.1802 -0.0506 -0.5667
18339TIP3   OH276431   2.712   1.522   3.093 -0.0324 -0.0867 -0.6650
18339TIP3    H176432   2.776   1.537   3.163 -1.0038 -0.4733  0.3298
18339TIP3    H276433   2.746   1.446   3.046  1.2439  0.8804 -1.3882
18340TIP3   OH276434   1.547   3.042  11.353  0.5893 -0.1719 -0.9961
18340TIP3    H176435   1.465   3.029  11.306  1.2844 -1.0255 -2.0297
18340TIP3    H276436   1.598   3.101  11.297  1.2876 -0.9102 -1.1512
18341TIP3   OH276437   6.533   5.100  11.004 -0.4675  0.8047  0.2992
18341TIP3    H176438   6.589   5.028  11.035 -1.7989  0.1989  1.4187
18341TIP3    H276439   6.536   5.094  10.909 -0.4465 -0.6848  0.3653
18342TIP3   OH276440   5.258   5.205   5.507 -0.1728  0.2758 -0.0889
18342TIP3    H176441   5.189   5.228   5.444 -0.3259  0.3236  0.0965
18342TIP3    H276442   5.212   5.161   5.578  0.1750 -1.0629 -0.6577
18343TIP3   OH276443   1.427   4.487   3.727  1.1350 -0.1301  0.0300
18343TIP3    H176444   1.516   4.488   3.691  0.3114  1.1845 -2.1711
18343TIP3    H276445   1.394   4.400   3.703  0.9200  0.3874 -1.6855
18344TIP3   OH276446   1.609   1.784   6.263 -0.0788 -0.9433  0.3921
18344TIP3    H176447   1.581   1.875   6.262 -0.3520 -1.0229  0.6857
18344TIP3    H276448   1.680   1.781   6.326 -0.6622 -1.1028  1.0509
18345TIP3   OH276449   4.597   1.605   0.756  0.2716  0.4995 -0.5819
18345TIP3    H176450   4.635   1.609   0.843 -0.4132  0.4196 -0.2729
18345TIP3    H276451   4.507   1.576   0.770  0.1359  0.5399 -1.3089
18346TIP3   OH276452   4.479   0.741  13.189  0.3039  0.1775 -0.1716
18346TIP3    H176453   4.447   0.728  13.279 -0.7413  2.5082 -0.1463
18346TIP3    H276454   4.568   0.706  13.190 -0.3108 -1.5245  1.2517
18347TIP3   OH276455   4.159   5.576  11.983 -0.1545 -0.2128 -0.0018
18347TIP3    H176456   4.083   5.601  12.035  0.5782 -0.6522  1.3457
18347TIP3    H276457   4.233   5.616  12.029  0.4604 -0.0127 -1.1313
18348TIP3   OH276458   1.582   6.596  13.076 -0.2302  0.2110 -0.0273
18348TIP3    H176459   1.590   6.634  12.989  1.4340 -1.4034 -0.6442
18348TIP3    H276460   1.631   6.514  13.071 -0.4426 -0.1272  2.3178
18349TIP3   OH276461   5.468   1.619  14.680  0.0794 -0.4872  0.5612
18349TIP3    H176462   5.558   1.634  14.651 -0.5772  0.0144 -1.3687
18349TIP3    H276463   5.433   1.707  14.696 -0.5900 -0.5603 -0.4242
18350TIP3   OH276464   5.498   4.780   6.413  0.1126  0.0683 -0.0538
18350TIP3    H176465   5.460   4.693   6.417 -0.2077  0.2277  0.4247
18350TIP3    H276466   5.430   4.837   6.450 -0.7579  0.8721 -2.6335
18351TIP3   OH276467   3.709   6.161  13.655 -0.1303 -0.2089 -0.1197
18351TIP3    H176468   3.674   6.187  13.570 -0.3882 -1.6873 -0.4873
18351TIP3    H276469   3.804   6.155  13.641 -0.0591  0.5004 -0.0171
18352TIP3   OH276470   2.140   0.824  11.189 -0.4452 -0.1333  0.3275
18352TIP3    H176471   2.104   0.803  11.103 -0.9776  1.5705  0.0905
18352TIP3    H276472   2.178   0.912  11.178  0.0958 -0.1716  1.6590
18353TIP3   OH276473   6.024   5.992   2.103 -0.0011 -0.3261 -0.3824
18353TIP3    H176474   6.057   5.958   2.020  3.2704  1.4078  0.0237
18353TIP3    H276475   6.048   5.925   2.167  2.3131  0.5462 -0.2188
18354TIP3   OH276476   0.799   3.336   4.749  0.3527 -0.2708 -0.7766
18354TIP3    H176477   0.728   3.366   4.805 -0.2537 -2.9533  0.0429
18354TIP3    H276478   0.860   3.410   4.744 -1.9527  1.7426 -0.6703
18355TIP3   OH276479   3.810   0.459   3.398 -1.0489  0.3257 -0.1915
18355TIP3    H176480   3.822   0.541   3.445 -0.8225  1.5459 -2.2722
18355TIP3    H276481   3.742   0.413   3.447 -1.2150  1.7536  0.9901
18356TIP3   OH276482   1.459   6.680  11.813  0.3574 -0.1642  0.1676
18356TIP3    H176483   1.410   6.639  11.884 -1.9314  1.4402 -0.3522
18356TIP3    H276484   1.397   6.741  11.773  2.2874  0.7224 -1.7155
18357TIP3   OH276485   2.924   3.829  17.240 -0.1656  0.5221 -0.6113
18357TIP3    H176486   2.962   3.761  17.184  0.1776  2.2899 -2.6352
18357TIP3    H276487   2.998   3.881  17.269 -0.5051  0.5365  0.2594
18358TIP3   OH276488   4.416   0.121  11.926  0.3360  0.5508 -0.5147
18358TIP3    H176489   4.511   0.137  11.929  0.2698  0.8464  0.2944
18358TIP3    H276490   4.407   0.040  11.876  1.1576 -0.4357  0.8594
18359TIP3   OH276491   5.826   5.957  16.609  0.3390 -1.1762  0.2258
18359TIP3    H176492   5.903   5.983  16.660  0.1369  1.7388 -0.7886
18359TIP3    H276493   5.787   5.886  16.660  2.7318 -1.5842  1.6482
18360TIP3   OH276494   1.066   3.040  16.400 -0.6177 -0.4121 -0.1359
18360TIP3    H176495   1.139   3.005  16.451 -1.3966 -3.4573 -0.8745
18360TIP3    H276496   0.992   3.039  16.460 -0.7234 -0.4561 -0.2643
18361TIP3   OH276497   5.681   2.646  12.459 -0.1205 -0.5908  0.4160
18361TIP3    H176498   5.638   2.574  12.505 -2.9846 -0.0410 -1.1401
18361TIP3    H276499   5.698   2.613  12.371 -1.4102  0.5320 -0.2993
18362TIP3   OH276500   5.205   1.623  12.450  0.3697 -0.4158  0.0417
18362TIP3    H176501   5.167   1.537  12.432 -1.8440  0.4141  0.4041
18362TIP3    H276502   5.177   1.643  12.540 -1.1177  1.5829 -0.7746
18363TIP3   OH276503   2.722   3.559   3.713  0.2171  0.3766  0.0672
18363TIP3    H176504   2.653   3.582   3.651  1.1334  1.4595 -0.5876
18363TIP3    H276505   2.790   3.624   3.698  1.9196 -1.3911 -0.1678
18364TIP3   OH276506   1.691   1.372   2.493  0.2139  0.0775 -0.3918
18364TIP3    H176507   1.602   1.353   2.465  0.5525  1.1347 -2.3803
18364TIP3    H276508   1.746   1.338   2.422  1.2476  1.1442 -0.1420
18365TIP3   OH276509   5.537   0.261   0.009  0.6550 -0.4212 -0.8156
18365TIP3    H176510   5.539   0.356   0.002 -2.0260 -0.2313  0.0054
18365TIP3    H276511   5.450   0.236  -0.023 -0.3884 -2.1635  2.8067
18366TIP3   OH276512   5.945   2.052   3.508 -0.4693 -0.3106  0.8236
18366TIP3    H176513   5.987   2.082   3.589 -0.2470 -0.2818  0.6977
18366TIP3    H276514   5.852   2.073   3.520 -0.6458 -1.4031  1.5825
18367TIP3   OH276515   2.029   3.934   0.353 -0.4964  0.0180 -0.4979
18367TIP3    H176516   2.028   4.027   0.333 -0.4613 -0.2738 -1.9021
18367TIP3    H276517   2.114   3.903   0.322  0.1614 -0.2121  1.3705
18368TIP3   OH276518   2.934   3.624  15.199 -0.1719 -0.0691  0.1087
18368TIP3    H176519   2.889   3.582  15.271  1.7159  0.0662  1.4357
18368TIP3    H276520   2.949   3.714  15.229  1.1759 -0.1812 -0.1564
18369TIP3   OH276521   1.232   1.032  13.619 -0.0317 -0.2737  0.0779
18369TIP3    H176522   1.274   1.117  13.605 -0.1904  0.0535  1.3887
18369TIP3    H276523   1.288   0.989  13.684 -0.8069 -0.5114  0.5950
18370TIP3   OH276524   1.189   5.043   3.809 -0.2054  0.3400  0.1689
18370TIP3    H176525   1.109   4.992   3.820  0.0148 -0.6974 -2.2552
18370TIP3    H276526   1.260   4.981   3.824  0.0923  0.5221 -0.4351
18371TIP3   OH276527   2.727   4.125   1.935  0.1153  0.0001 -0.2154
18371TIP3    H176528   2.736   4.109   2.029  0.6293  0.4185 -0.1927
18371TIP3    H276529   2.736   4.038   1.895  1.0728 -0.0182  0.0335
18372TIP3   OH276530   5.195   2.273  12.162 -0.2350  0.3738 -0.4451
18372TIP3    H176531   5.105   2.259  12.192 -0.6324 -4.7058 -2.8758
18372TIP3    H276532   5.187   2.338  12.092 -2.4873 -1.3170 -1.8979
18373TIP3   OH276533   2.031   1.548   6.498 -0.1642  0.3188 -0.1878
18373TIP3    H176534   2.117   1.553   6.541 -0.8315 -0.0645  1.2396
18373TIP3    H276535   1.990   1.470   6.535 -0.5343 -0.4348 -2.0489
18374TIP3   OH276536   1.049   0.459   0.527 -1.3155  0.4015  0.1656
18374TIP3    H176537   1.093   0.502   0.454 -0.6593 -0.1098  0.2436
18374TIP3    H276538   1.104   0.477   0.603  1.1012 -3.4789 -0.3624
18375TIP3   OH276539   0.657   3.480  13.297  0.0886  0.1899 -0.2338
18375TIP3    H176540   0.735   3.492  13.350 -0.8045 -2.5870  2.0152
18375TIP3    H276541   0.686   3.427  13.223  0.4139 -0.8068  0.5792
18376TIP3   OH276542   1.524   0.077   5.486 -0.6692  0.0530 -0.0797
18376TIP3    H176543   1.501   0.010   5.421 -1.6653  0.7941 -0.5140
18376TIP3    H276544   1.468   0.058   5.561  0.7984 -1.0771  0.7790
18377TIP3   OH276545   5.210   2.403   5.063 -0.4792  0.3369  0.7641
18377TIP3    H176546   5.250   2.355   5.135 -0.3291  0.3570  0.6932
18377TIP3    H276547   5.128   2.356   5.045 -0.8738  0.7410  1.4229
18378TIP3   OH276548   3.622   4.224   4.518 -0.1925 -0.9937  0.2350
18378TIP3    H176549   3.695   4.238   4.577 -0.9940  0.3158  0.9663
18378TIP3    H276550   3.560   4.294   4.539 -2.2599 -2.8043  0.5545
18379TIP3   OH276551   3.292   1.368   5.909  0.3868 -0.1867  0.2329
18379TIP3    H176552   3.366   1.373   5.848  0.0516 -1.5836 -0.3280
18379TIP3    H276553   3.222   1.417   5.866  0.5374 -0.0889  0.0955
18380TIP3   OH276554   4.630   1.781  17.213  0.7156 -0.5060  0.3283
18380TIP3    H176555   4.558   1.798  17.274  1.5338 -2.8091  2.0510
18380TIP3    H276556   4.625   1.853  17.150 -1.5888  0.7164  1.7762
18381TIP3   OH276557   6.478   0.893   3.280 -0.0369  0.3654  0.8276
18381TIP3    H176558   6.547   0.833   3.253 -1.1049 -1.5626  2.1770
18381TIP3    H276559   6.511   0.933   3.360  0.3644  1.0485  0.3310
18382TIP3   OH276560   3.606   5.857   0.928  0.1213 -0.1013 -0.2978
18382TIP3    H176561   3.696   5.852   0.895  0.3719 -1.0802  0.4414
18382TIP3    H276562   3.554   5.812   0.862  0.3267 -0.3633 -0.2857
18383TIP3   OH276563   4.360   1.840   6.041 -0.2563  0.1461 -0.3320
18383TIP3    H176564   4.275   1.803   6.065 -0.7490  1.4968  0.1110
18383TIP3    H276565   4.424   1.780   6.078 -1.0192  0.2559  1.2438
18384TIP3   OH276566   3.102   2.894   0.234  0.0218 -0.2231 -0.7521
18384TIP3    H176567   3.083   2.815   0.285  1.2042  0.8524  1.4775
18384TIP3    H276568   3.026   2.950   0.249 -0.0306 -0.2491 -0.9180
18385TIP3   OH276569   1.109   2.745  11.398  0.2088 -0.3748  0.1358
18385TIP3    H176570   1.108   2.805  11.323  1.9953  0.9739  1.1006
18385TIP3    H276571   1.075   2.663  11.364  0.0372  0.4787 -1.8965
18386TIP3   OH276572   0.514   2.679  12.174  0.3567 -0.1407  0.3915
18386TIP3    H176573   0.470   2.617  12.231 -0.0335  0.6872  1.0198
18386TIP3    H276574   0.481   2.660  12.086  1.0909 -1.5392  0.3938
18387TIP3   OH276575   5.992   3.789   4.221  0.5589 -0.4669  0.0444
18387TIP3    H176576   6.055   3.814   4.289  0.4004 -1.1676  0.4590
18387TIP3    H276577   6.035   3.815   4.139  0.3025  1.3568  0.4358
18388TIP3   OH276578   5.122   3.845   3.700 -0.3274 -0.1105  0.1593
18388TIP3    H176579   5.067   3.859   3.777 -1.8494  1.1677 -1.0706
18388TIP3    H276580   5.060   3.814   3.633  0.9185 -1.0127 -0.6027
18389TIP3   OH276581   0.944   5.102  17.316 -0.4681 -0.2740 -0.2815
18389TIP3    H176582   0.911   5.184  17.279  1.1408  0.0036 -1.1879
18389TIP3    H276583   1.019   5.129  17.369  0.2959 -1.1930 -0.8732
18390TIP3   OH276584   3.063   2.653   0.576 -0.3903 -0.8876  0.5840
18390TIP3    H176585   3.111   2.735   0.563 -0.8263 -0.5818  0.9066
18390TIP3    H276586   2.995   2.654   0.508  0.9880 -2.0430 -0.8977
18391TIP3   OH276587   3.056   0.938  17.241  0.2013  0.1173 -0.3931
18391TIP3    H176588   3.096   0.859  17.278  0.3516 -0.7414 -2.3030
18391TIP3    H276589   2.988   0.962  17.305  0.6565 -1.0952  0.5960
18392TIP3   OH276590   1.728   5.349  12.357 -0.5755 -0.1432  0.3331
18392TIP3    H176591   1.748   5.261  12.324 -0.8760 -0.2177  0.3476
18392TIP3    H276592   1.714   5.401  12.278  0.2949  0.0664  0.2998
18393TIP3   OH276593   3.952   4.233   0.329 -0.0524 -0.1654 -0.1277
18393TIP3    H176594   3.857   4.233   0.315 -0.0218 -1.1342 -0.3543
18393TIP3    H276595   3.964   4.189   0.413  0.2024  0.0088 -0.0714
18394TIP3   OH276596   4.725   1.455   3.922  0.5690 -0.3456  0.0317
18394TIP3    H176597   4.727   1.395   3.848  2.4227  0.1814 -0.4172
18394TIP3    H276598   4.638   1.445   3.960 -0.5188 -0.4528 -2.3464
18395TIP3   OH276599   2.933   5.303   1.026 -0.0893  0.2879  0.5281
18395TIP3    H176600   2.924   5.398   1.013 -0.8606  0.1173 -0.2890
18395TIP3    H276601   2.926   5.266   0.938 -1.0628 -0.6194  0.9659
18396TIP3   OH276602   5.575   3.049  15.196  0.0991  0.3412 -0.0526
18396TIP3    H176603   5.521   3.110  15.145  0.6665  1.1049  0.2447
18396TIP3    H276604   5.526   3.035  15.277 -0.7734 -0.8216 -0.7597
18397TIP3   OH276605   3.594   3.598   3.003  0.0445 -0.1206  0.3568
18397TIP3    H176606   3.668   3.622   2.949 -0.2507 -0.0330 -0.0128
18397TIP3    H276607   3.519   3.643   2.964  0.2602  2.3316  2.4884
18398TIP3   OH276608   3.792   0.233   1.128  0.2783 -1.0895  0.1233
18398TIP3    H176609   3.746   0.162   1.172  2.2973 -1.6212  1.5459
18398TIP3    H276610   3.883   0.225   1.158  1.1950  0.2595 -2.0450
18399TIP3   OH276611   4.719   4.102  15.500 -0.2321  0.3553  0.3110
18399TIP3    H176612   4.810   4.112  15.470  0.1535 -1.6879  0.6285
18399TIP3    H276613   4.669   4.163  15.446  1.1353  0.4685 -0.8973
18400TIP3   OH276614   5.671   0.530   5.726 -0.6466  0.4124 -0.7337
18400TIP3    H176615   5.649   0.568   5.812  0.1296 -0.8029  0.0409
18400TIP3    H276616   5.748   0.579   5.698  1.0077 -1.1710  0.7573
18401TIP3   OH276617   1.176   4.024   2.616 -0.7283 -0.0784  0.2290
18401TIP3    H176618   1.230   4.103   2.607 -1.0926  0.3425  1.4981
18401TIP3    H276619   1.239   3.952   2.623 -0.2197  0.5197  2.8747
18402TIP3   OH276620   5.934   5.544  11.320  0.0724  0.4888 -0.0499
18402TIP3    H176621   5.939   5.509  11.231  3.3934  1.5528 -0.4132
18402TIP3    H276622   6.008   5.504  11.366  0.0588  2.0398  1.4087
18403TIP3   OH276623   6.626   0.151  16.114 -0.1629  0.1526  0.2041
18403TIP3    H176624   6.552   0.210  16.127 -0.7096 -0.6536  0.8918
18403TIP3    H276625   6.600   0.095  16.041 -0.9821 -1.2085  1.4732
18404TIP3   OH276626   5.967   0.599   3.901 -0.2773 -0.3928 -0.4743
18404TIP3    H176627   6.053   0.572   3.870  0.6411  0.5051  1.1749
18404TIP3    H276628   5.941   0.669   3.842  0.0220 -0.8113 -1.1115
18405TIP3   OH276629   0.445   2.253   1.963  0.4133  0.5313  0.2704
18405TIP3    H176630   0.503   2.300   2.023  1.5228 -0.4402 -0.0025
18405TIP3    H276631   0.479   2.272   1.876  0.0560  0.3110  0.0812
18406TIP3   OH276632   4.293   4.449  12.206 -0.5761 -0.4894  0.3395
18406TIP3    H176633   4.266   4.516  12.269  1.9448 -0.1577  1.1617
18406TIP3    H276634   4.372   4.411  12.243  0.0393 -1.4926 -1.8274
18407TIP3   OH276635   5.366   1.394  12.545  0.2676  0.5291 -0.2666
18407TIP3    H176636   5.377   1.436  12.631 -0.4644 -2.0262  1.1589
18407TIP3    H276637   5.417   1.449  12.486  0.6845  2.4776  1.7566
18408TIP3   OH276638   6.630   3.128   4.331 -0.2117 -0.1793 -0.1986
18408TIP3    H176639   6.624   3.114   4.236 -1.0064  1.7655 -0.4851
18408TIP3    H276640   6.622   3.040   4.369  1.8743 -1.2506 -1.9566
18409TIP3   OH276641   2.240   4.281  13.953 -0.0596  0.8723 -0.4225
18409TIP3    H176642   2.239   4.277  14.049 -0.1725  2.5729 -0.3256
18409TIP3    H276643   2.316   4.335  13.933 -0.1576  0.6958 -1.2972
18410TIP3   OH276644   4.362   1.672  14.039 -0.5086 -0.1149  0.2921
18410TIP3    H176645   4.417   1.727  14.094 -2.4300  0.3226  1.8915
18410TIP3    H276646   4.348   1.724  13.959  0.1648  0.3901  0.4944
18411TIP3   OH276647   6.605   6.086   4.430 -0.1214  0.1640  0.0890
18411TIP3    H176648   6.617   6.066   4.337 -1.8622 -2.6261  0.3565
18411TIP3    H276649   6.584   6.002   4.470  0.3875  1.3159  3.0222
18412TIP3   OH276650   2.425   6.158   2.286 -0.8621  0.2937 -0.3194
18412TIP3    H176651   2.462   6.229   2.232 -1.2339 -0.3268 -1.4351
18412TIP3    H276652   2.461   6.078   2.248 -0.8928 -0.1487  0.5691
18413TIP3   OH276653   5.355   5.387   2.477  0.5578 -0.6537  0.1013
18413TIP3    H176654   5.435   5.438   2.486  0.3963 -0.1110 -1.1531
18413TIP3    H276655   5.303   5.410   2.554  1.1268 -0.1096  0.3322
18414TIP3   OH276656   1.311   5.219  13.198 -0.2265  0.1592 -0.1997
18414TIP3    H176657   1.311   5.301  13.247 -0.0620  1.3329 -2.0548
18414TIP3    H276658   1.390   5.223  13.144 -0.5631 -0.9003 -0.8066
18415TIP3   OH276659   2.110   6.422  14.638 -0.1061  0.2779  0.3908
18415TIP3    H176660   2.048   6.357  14.673 -0.2745  0.2051 -0.0351
18415TIP3    H276661   2.192   6.405  14.685 -0.5471  0.7172  1.3450
18416TIP3   OH276662   3.171   2.277  13.785 -0.0280  0.1000  0.2697
18416TIP3    H176663   3.125   2.233  13.713 -1.2575 -0.2552  1.2434
18416TIP3    H276664   3.222   2.346  13.742  0.2929 -0.9273 -1.0679
18417TIP3   OH276665   4.230   3.224  13.308  0.2107 -0.0083 -0.7780
18417TIP3    H176666   4.137   3.220  13.287  0.1769 -0.0562 -0.6251
18417TIP3    H276667   4.268   3.283  13.242 -0.1034  0.8158 -0.2451
18418TIP3   OH276668   3.560   3.383   5.484  0.0570 -0.0384 -0.0761
18418TIP3    H176669   3.579   3.311   5.423 -0.4578 -1.5843  1.5102
18418TIP3    H276670   3.487   3.352   5.537  0.4916  1.2202  1.3528
18419TIP3   OH276671   6.130   1.274   5.504 -0.1825  0.1085  0.4431
18419TIP3    H176672   6.204   1.289   5.563 -0.9264 -0.0389  1.4455
18419TIP3    H276673   6.101   1.361   5.478  1.1011  0.1659 -0.9883
18420TIP3   OH276674   2.565   1.676  13.766 -0.2700 -0.5250 -0.2417
18420TIP3    H176675   2.593   1.665  13.674 -1.3153 -0.2858 -0.5969
18420TIP3    H276676   2.484   1.626  13.772 -0.2217 -0.5142  0.5590
18421TIP3   OH276677   3.079   4.506   2.136  0.5064 -0.1789  0.2938
18421TIP3    H176678   3.143   4.568   2.170 -1.1073  1.4898  0.4620
18421TIP3    H276679   3.016   4.495   2.208  0.0988 -1.0626 -0.1759
18422TIP3   OH276680   1.180   2.492  12.552 -0.0215  0.1222  0.3172
18422TIP3    H176681   1.133   2.510  12.634 -0.5509 -0.4733  0.1548
18422TIP3    H276682   1.112   2.496  12.485  0.1938 -0.5777  0.0526
18423TIP3   OH276683   3.528   5.183   1.408 -0.9093 -0.7772 -0.0028
18423TIP3    H176684   3.487   5.122   1.470  1.2546 -0.9277  1.3964
18423TIP3    H276685   3.622   5.168   1.419 -0.4146 -0.0294 -2.5940
18424TIP3   OH276686   4.640   4.664   2.554  0.3539 -0.1136 -0.1700
18424TIP3    H176687   4.547   4.664   2.578  0.3490 -1.0784 -0.1370
18424TIP3    H276688   4.640   4.670   2.459  0.3310  1.9346 -0.0912
18425TIP3   OH276689   3.704   5.018  12.941  0.7251 -0.2439  0.3777
18425TIP3    H176690   3.731   4.988  13.027  1.6189  0.3171  0.3075
18425TIP3    H276691   3.782   5.061  12.905  0.0128  0.5797 -0.2228
18426TIP3   OH276692   5.877   4.564   0.630  0.1007 -0.6775 -0.3991
18426TIP3    H176693   5.936   4.556   0.705  0.0145 -1.6355 -0.4211
18426TIP3    H276694   5.845   4.654   0.635  1.6854 -0.0736 -0.4930
18427TIP3   OH276695   6.545   2.407  15.441  0.1098  0.3312  0.3991
18427TIP3    H176696   6.529   2.499  15.418 -0.6008  0.5914  1.8755
18427TIP3    H276697   6.464   2.377  15.482 -0.9819 -1.9858 -2.9342
18428TIP3   OH276698   1.109   4.543   1.543 -0.3756  0.3186 -0.0080
18428TIP3    H176699   1.078   4.500   1.623  0.2588  0.3026  0.2342
18428TIP3    H276700   1.048   4.615   1.530 -1.1545 -0.3439 -0.1366
18429TIP3   OH276701   2.878   3.173   6.477  0.0320 -0.0554 -0.2829
18429TIP3    H176702   2.866   3.268   6.482  1.4295  0.3467 -2.7512
18429TIP3    H276703   2.973   3.161   6.470 -0.1923 -1.4985 -1.3903
18430TIP3   OH276704   5.357   4.816   1.381  0.0498 -0.1402  0.1149
18430TIP3    H176705   5.346   4.827   1.475 -1.1256 -0.5678  0.0494
18430TIP3    H276706   5.429   4.874   1.358  0.2200  0.1226  1.2417
18431TIP3   OH276707   5.351   6.365   1.878  0.4097 -0.5335  0.2185
18431TIP3    H176708   5.422   6.404   1.929  1.9565 -0.8065 -1.6120
18431TIP3    H276709   5.286   6.435   1.869  0.6899 -0.0896  1.4132
18432TIP3   OH276710   1.772   2.456   5.611  0.1698  0.3362  0.0758
18432TIP3    H176711   1.866   2.449   5.630  0.4599 -2.4073 -1.7322
18432TIP3    H276712   1.729   2.433   5.694  1.1904 -1.5199  0.1423
18433TIP3   OH276713   4.848   0.968   5.577  0.2954 -0.0571  0.1068
18433TIP3    H176714   4.842   0.874   5.560  1.4329 -1.0454  4.0200
18433TIP3    H276715   4.941   0.984   5.592 -0.2207  0.6238  3.6172
18434TIP3   OH276716   4.393   6.656  11.749 -0.2182  0.0316 -0.0774
18434TIP3    H176717   4.331   6.598  11.704  1.5076 -1.7147 -0.3368
18434TIP3    H276718   4.452   6.686  11.681  0.1539  0.4627  0.4236
18435TIP3   OH276719   5.988   4.790   4.984  0.7726  0.2083 -0.5511
18435TIP3    H176720   5.988   4.845   5.063  2.7265 -0.6820  0.1470
18435TIP3    H276721   5.923   4.830   4.927 -2.4658 -0.4140  2.3669
18436TIP3   OH276722   5.788   4.629   2.053  0.4907  0.3609 -0.6367
18436TIP3    H176723   5.860   4.661   1.999  0.6520  1.9186  0.4334
18436TIP3    H276724   5.821   4.547   2.089  1.6778  0.9402 -0.3258
18437TIP3   OH276725   0.218   1.656   2.095  0.1769 -0.4334  0.3041
18437TIP3    H176726   0.283   1.706   2.045 -0.0432 -0.1778  0.2692
18437TIP3    H276727   0.154   1.722   2.122 -0.9754 -0.9130 -1.0984
18438TIP3   OH276728   3.552   6.258   2.000  0.2784  0.3591 -0.3770
18438TIP3    H176729   3.530   6.305   2.080  2.0959  0.8880 -0.1492
18438TIP3    H276730   3.600   6.181   2.029 -0.7915 -0.5278 -0.8771
18439TIP3   OH276731   6.651   1.387  12.110  0.4954  0.1239  0.9187
18439TIP3    H176732   6.713   1.458  12.127  0.4755  1.3850 -3.0512
18439TIP3    H276733   6.634   1.394  12.016 -1.6073 -3.5329  0.8669
18440TIP3   OH276734   5.942   4.943  13.674  0.3648  0.0742  0.2575
18440TIP3    H176735   6.007   4.882  13.708  1.7897  1.2603 -0.2182
18440TIP3    H276736   5.875   4.949  13.742  1.5895  0.0597  1.4991
18441TIP3   OH276737   0.687   1.846   6.700 -0.4645 -0.1996  0.4638
18441TIP3    H176738   0.779   1.873   6.696 -0.9229  1.4299  0.3884
18441TIP3    H276739   0.690   1.750   6.691  1.0806 -0.0149 -1.9010
18442TIP3   OH276740   1.524   0.517  11.884 -0.2933 -0.0129  0.6499
18442TIP3    H176741   1.529   0.454  11.955  1.1775 -0.7865 -0.0942
18442TIP3    H276742   1.612   0.518  11.846 -0.7368  1.2169 -0.4436
18443TIP3   OH276743   1.203   2.392  13.825 -0.4132 -0.3682  0.1697
18443TIP3    H176744   1.123   2.377  13.875  0.0733 -0.5680  0.9065
18443TIP3    H276745   1.217   2.487  13.829 -1.2002 -0.1871 -0.9033
18444TIP3   OH276746   0.037   0.957   2.112  0.6008 -0.6876 -0.2372
18444TIP3    H176747  -0.013   0.982   2.034 -0.2490  1.1049  0.8277
18444TIP3    H276748   0.123   0.997   2.099  1.0534 -1.8528 -1.0139
18445TIP3   OH276749   3.646   6.377   5.041 -0.2946  0.1045  0.1527
18445TIP3    H176750   3.694   6.439   5.096  1.2605  0.5354 -1.5748
18445TIP3    H276751   3.703   6.300   5.035 -0.8443 -0.2929 -0.1179
18446TIP3   OH276752   1.738   5.705  15.900 -0.0176 -0.3446  0.3427
18446TIP3    H176753   1.716   5.654  15.978  1.7466 -1.7087  0.0098
18446TIP3    H276754   1.668   5.684  15.837 -0.9232  0.0213  1.1931
18447TIP3   OH276755   0.674   1.675  12.581  0.0873  0.1809  0.2472
18447TIP3    H176756   0.591   1.653  12.623 -0.2733  0.7428 -0.1659
18447TIP3    H276757   0.663   1.647  12.490  0.1433  0.7800  0.0561
18448TIP3   OH276758   2.963   6.564  12.872  0.0520 -0.1396  0.3361
18448TIP3    H176759   2.941   6.482  12.916 -1.4401  0.9175  1.6462
18448TIP3    H276760   3.020   6.537  12.799 -1.2108 -2.4439  0.1016
18449TIP3   OH276761   4.821   0.989   3.054  0.2803 -0.3578  0.2252
18449TIP3    H176762   4.786   0.965   3.140 -1.5001  1.3176  0.0346
18449TIP3    H276763   4.745   0.988   2.996  1.1726  0.0759 -0.9799
18450TIP3   OH276764   0.762   4.382   6.033  0.0407  0.0654 -0.3436
18450TIP3    H176765   0.710   4.319   6.084 -0.1018  1.0351  0.7542
18450TIP3    H276766   0.836   4.331   6.001 -0.9836 -1.0894 -1.0006
18451TIP3   OH276767   4.230   4.449  16.428  0.4441  0.3561 -0.5782
18451TIP3    H176768   4.210   4.477  16.338  0.3326 -0.0530 -0.6827
18451TIP3    H276769   4.259   4.529  16.472 -1.3337  0.9709 -0.4399
18452TIP3   OH276770   5.203   0.031  10.924 -0.7746  0.6842  0.0447
18452TIP3    H176771   5.287   0.027  10.878 -0.8888 -0.3708 -0.0803
18452TIP3    H276772   5.222   0.080  11.004 -0.0869  0.6408 -0.0844
18453TIP3   OH276773   4.416   1.807   0.582 -0.4716  0.4773  0.3385
18453TIP3    H176774   4.474   1.867   0.629 -1.1360  2.4009 -1.1447
18453TIP3    H276775   4.357   1.773   0.649 -0.0230  1.4423  1.2499
18454TIP3   OH276776   4.944   1.246  17.376 -0.1033 -0.1802  0.0088
18454TIP3    H176777   4.857   1.258  17.414 -0.4757 -1.4062 -0.3843
18454TIP3    H276778   5.003   1.248  17.450 -0.4859  0.4778  0.3012
18455TIP3   OH276779   6.236   4.200   5.073 -0.4441 -0.7253 -0.1700
18455TIP3    H176780   6.223   4.125   5.131 -2.2008 -0.2726  0.0772
18455TIP3    H276781   6.177   4.267   5.108  0.5359  0.5176 -0.8344
18456TIP3   OH276782   4.757   4.931  13.706 -1.0470 -0.6712 -0.4633
18456TIP3    H176783   4.843   4.974  13.705 -0.9697 -0.8296 -1.5346
18456TIP3    H276784   4.732   4.932  13.798  0.5085 -1.4156  0.0132
18457TIP3   OH276785   4.227   3.506   2.195  0.7314  0.2184 -0.2914
18457TIP3    H176786   4.256   3.415   2.198 -0.1969 -0.1973 -2.3666
18457TIP3    H276787   4.302   3.554   2.160  1.1327  0.2309  0.5617
18458TIP3   OH276788   6.475   3.338  15.679 -0.2582 -0.3466  0.2067
18458TIP3    H176789   6.504   3.429  15.671 -0.5917 -0.1798  0.8487
18458TIP3    H276790   6.470   3.307  15.589 -0.9495  0.5212 -0.0657
18459TIP3   OH276791   5.301   0.449   4.154 -0.1814 -0.3270 -0.3356
18459TIP3    H176792   5.351   0.415   4.080 -0.4118 -1.0343 -0.1724
18459TIP3    H276793   5.212   0.458   4.121 -0.2851 -0.6442 -0.1485
18460TIP3   OH276794   3.986   1.541   0.130  0.4791  0.3770 -0.5930
18460TIP3    H176795   3.954   1.497   0.209 -0.9962  1.9578 -0.2541
18460TIP3    H276796   3.966   1.480   0.059 -1.9815  0.6381 -0.2064
18461TIP3   OH276797   1.373   1.936  12.865  0.4156 -0.2224 -0.0669
18461TIP3    H176798   1.377   2.025  12.831  1.3974  0.2341  1.1706
18461TIP3    H276799   1.299   1.936  12.925  2.4666  0.8362  2.6680
18462TIP3   OH276800   3.859   0.620  16.239  0.1944 -0.0451 -0.4536
18462TIP3    H176801   3.838   0.657  16.325 -1.4159 -1.2610 -0.2718
18462TIP3    H276802   3.935   0.671  16.209  0.9548  0.2661  1.7685
18463TIP3   OH276803   6.544   3.402  12.942  0.1220 -0.1208  0.4346
18463TIP3    H176804   6.485   3.429  12.871 -0.1389 -0.6103  0.4596
18463TIP3    H276805   6.619   3.364  12.897 -0.2134 -0.7845  0.4136
18464TIP3   OH276806   3.262   4.557  12.266  0.3816 -0.0762  0.3339
18464TIP3    H176807   3.263   4.623  12.335  1.9170 -0.5886  0.8465
18464TIP3    H276808   3.299   4.601  12.190  1.2222 -0.2744  0.6204
18465TIP3   OH276809   2.706   3.300   3.780 -0.6131 -0.4890 -0.3246
18465TIP3    H176810   2.746   3.385   3.761 -2.4616  0.4203 -0.3595
18465TIP3    H276811   2.617   3.307   3.746 -1.9247 -1.1763  2.6096
18466TIP3   OH276812   1.691   4.209  13.581 -0.3012 -0.2631 -0.3161
18466TIP3    H176813   1.705   4.140  13.646  1.4979 -0.0725 -0.4557
18466TIP3    H276814   1.741   4.283  13.613 -2.0256  0.9598 -0.2946
18467TIP3   OH276815   6.200   1.623   4.255  0.1808  0.4267  0.3886
18467TIP3    H176816   6.246   1.607   4.173  1.7619 -2.5732  1.7142
18467TIP3    H276817   6.142   1.548   4.266 -0.4122  1.0445  1.7812
18468TIP3   OH276818   4.712   6.238   0.163  0.0026  0.9777 -0.1776
18468TIP3    H176819   4.736   6.155   0.122 -1.6654  0.3619  0.0346
18468TIP3    H276820   4.670   6.288   0.094 -2.2241  0.1922  0.5064
18469TIP3   OH276821   4.527   5.557   3.583  0.0285 -0.2171 -0.0629
18469TIP3    H176822   4.621   5.566   3.567 -0.0243  1.7676  0.3578
18469TIP3    H276823   4.518   5.472   3.625  1.8568  0.1175  1.1723
18470TIP3   OH276824   2.565   3.370   2.807 -0.1481  0.1489  0.4026
18470TIP3    H176825   2.493   3.315   2.774 -1.7210  2.1165  0.3627
18470TIP3    H276826   2.594   3.326   2.886 -0.9964 -1.0154  0.1064
18471TIP3   OH276827   0.097   3.973  12.370 -0.0161 -0.2846  0.2803
18471TIP3    H176828   0.157   3.936  12.435 -0.3179 -1.9023 -0.3175
18471TIP3    H276829   0.050   3.897  12.335 -2.6207  0.9514  0.9001
18472TIP3   OH276830   4.852   1.982  14.487  0.7029 -0.2362  0.5906
18472TIP3    H176831   4.921   2.009  14.547 -0.3790 -0.8003  2.1519
18472TIP3    H276832   4.894   1.917  14.430  1.3988 -0.8235  1.7348
18473TIP3   OH276833   1.884   6.230  14.702 -0.2070 -0.3361 -0.6050
18473TIP3    H176834   1.837   6.192  14.777 -0.1581 -0.5430 -0.6793
18473TIP3    H276835   1.886   6.160  14.637  1.4437 -0.8143 -0.0810
18474TIP3   OH276836   5.085   6.232   1.975  0.0470 -0.2684 -0.1646
18474TIP3    H176837   5.173   6.224   2.013 -0.4229  0.4500  1.1304
18474TIP3    H276838   5.100   6.231   1.881  1.5650  0.8782  0.0178
18475TIP3   OH276839   2.358   1.729  15.172  0.2059 -0.7243 -0.0657
18475TIP3    H176840   2.274   1.710  15.213  1.1196 -0.9019  1.8324
18475TIP3    H276841   2.365   1.824  15.175  0.2817 -0.7382  0.2215
18476TIP3   OH276842   6.020   1.133   4.000 -0.5970  1.1909 -0.8132
18476TIP3    H176843   6.099   1.186   4.013 -0.1456  0.6919 -1.4247
18476TIP3    H276844   5.954   1.173   4.057  0.4659  0.8298  0.7312
18477TIP3   OH276845   6.430   1.080  10.523 -0.2186 -0.4658  0.8820
18477TIP3    H176846   6.335   1.072  10.527 -0.1562 -0.8112  1.9193
18477TIP3    H276847   6.455   1.029  10.446 -0.8631 -0.3749  0.6028
18478TIP3   OH276848   4.765   5.593  14.031  0.0616  0.6560 -0.0723
18478TIP3    H176849   4.756   5.671  13.976  1.0117  0.0291 -1.1617
18478TIP3    H276850   4.852   5.601  14.070 -0.0768  0.4325  0.2898
18479TIP3   OH276851   0.602   6.383  17.071 -0.0750  0.2792  0.2002
18479TIP3    H176852   0.619   6.292  17.047  0.9623  0.3362  0.6400
18479TIP3    H276853   0.532   6.411  17.012 -1.7821 -1.3617  1.3200
18480TIP3   OH276854   0.287   0.721   5.293  0.4207  0.1783  0.5510
18480TIP3    H176855   0.242   0.654   5.344  0.0392 -2.8919 -3.3632
18480TIP3    H276856   0.219   0.786   5.274 -0.0241  0.1050  1.7801
18481TIP3   OH276857   2.928   1.383   4.183  0.4512 -0.1382 -0.5147
18481TIP3    H176858   2.959   1.453   4.241  1.1423  0.0327 -1.0674
18481TIP3    H276859   3.001   1.369   4.123  0.0466 -0.8591 -0.8437
18482TIP3   OH276860   3.370   5.671  11.697  0.6380  0.7030  0.3430
18482TIP3    H176861   3.436   5.733  11.668  0.5827  1.3536  1.5561
18482TIP3    H276862   3.368   5.679  11.792  0.9667 -1.5111  0.6045
18483TIP3   OH276863   0.988   6.573  11.045 -0.3339  0.1304 -0.3369
18483TIP3    H176864   1.009   6.521  10.968 -1.9005 -0.2408 -0.5440
18483TIP3    H276865   0.898   6.603  11.030  0.3482  2.5241 -0.0106
18484TIP3   OH276866   1.324   1.737  14.368  0.0461 -0.5275  0.3236
18484TIP3    H176867   1.285   1.688  14.296 -0.9615 -0.0046  0.4832
18484TIP3    H276868   1.251   1.750  14.429  0.2931  1.1287  0.2987
18485TIP3   OH276869   0.228   1.982  10.589  0.1679  0.0969 -0.0538
18485TIP3    H176870   0.190   2.069  10.577 -1.0140 -0.2993  0.5809
18485TIP3    H276871   0.161   1.922  10.556  0.8673 -0.5902 -0.2622
18486TIP3   OH276872   1.827   2.571   4.609 -0.0525 -0.3973  0.6184
18486TIP3    H176873   1.922   2.574   4.619 -0.0393 -0.1490  0.4464
18486TIP3    H276874   1.804   2.658   4.575  0.0568 -1.4888 -2.6634
18487TIP3   OH276875   4.972   3.699   1.744 -0.1285 -0.3896 -0.1209
18487TIP3    H176876   4.916   3.632   1.706  0.3304 -2.0252  1.8819
18487TIP3    H276877   5.059   3.659   1.746 -0.1399 -0.4814  2.6089
18488TIP3   OH276878   1.241   4.746   1.867  0.1979  0.4252 -0.6890
18488TIP3    H176879   1.237   4.840   1.887 -0.4445  0.2629  0.0106
18488TIP3    H276880   1.278   4.742   1.779  0.9814  1.2972 -0.4184
18489TIP3   OH276881   1.456   3.959   0.272 -0.6996 -0.1889 -0.0332
18489TIP3    H176882   1.375   3.997   0.304  0.4375  1.7459  0.7330
18489TIP3    H276883   1.488   4.022   0.208  0.6909 -0.3899  0.4280
18490TIP3   OH276884   1.029   0.483  11.572 -0.9003 -0.0364  0.0772
18490TIP3    H176885   1.080   0.448  11.645 -2.3517 -2.9789 -0.1614
18490TIP3    H276886   0.984   0.406  11.535 -0.7053  1.4056 -3.5621
18491TIP3   OH276887   4.712   2.904  11.354 -0.1751  0.3532  0.0078
18491TIP3    H176888   4.617   2.892  11.357 -0.5584  2.1934 -2.1460
18491TIP3    H276889   4.747   2.824  11.395 -2.5941 -1.1698 -0.6374
18492TIP3   OH276890   2.372   4.261   0.777  0.4633 -0.5887 -0.1744
18492TIP3    H176891   2.296   4.284   0.832  0.5092  1.0960 -0.7386
18492TIP3    H276892   2.364   4.167   0.763 -1.9033 -0.3670 -0.7657
18493TIP3   OH276893   5.221   1.426  14.169 -0.1861 -0.4207  0.6450
18493TIP3    H176894   5.208   1.436  14.075 -1.0085 -0.0132  0.7916
18493TIP3    H276895   5.135   1.444  14.207  0.2289 -0.1879  1.5019
18494TIP3   OH276896   6.331   0.278   2.276  0.5867  0.1205  0.3003
18494TIP3    H176897   6.263   0.333   2.237  1.5434  1.4858  0.4959
18494TIP3    H276898   6.329   0.197   2.225 -2.0733 -0.4509  1.1437
18495TIP3   OH276899   3.719   2.078  13.188  0.1304 -0.1439  0.1801
18495TIP3    H176900   3.741   2.124  13.107  0.7066 -0.4589  0.1517
18495TIP3    H276901   3.786   2.105  13.250  0.9440 -1.5351 -0.0578
18496TIP3   OH276902   2.880   1.992  10.848  0.1029 -0.3583 -0.0630
18496TIP3    H176903   2.919   2.060  10.793 -0.3782  0.8356  1.0014
18496TIP3    H276904   2.786   2.011  10.846 -0.1246 -1.4545 -0.3352
18497TIP3   OH276905   4.444   1.120   4.167  0.1374  0.4786  0.3427
18497TIP3    H176906   4.450   1.111   4.072  0.3407 -0.4924  0.4387
18497TIP3    H276907   4.351   1.109   4.186  0.0642  0.8994  0.2397
18498TIP3   OH276908   0.556   2.788   0.403 -0.1926  0.0927  0.2230
18498TIP3    H176909   0.498   2.856   0.437 -0.7116  0.1687 -0.7687
18498TIP3    H276910   0.497   2.728   0.355  0.5005  0.0172 -0.5578
18499TIP3   OH276911   1.886   3.312  15.035 -0.2424 -0.4960  0.2124
18499TIP3    H176912   1.865   3.347  15.122 -0.9455  0.0811 -0.1773
18499TIP3    H276913   1.802   3.302  14.992  0.1647  0.7814 -0.9774
18500TIP3   OH276914   1.242   1.296   5.033  0.1840 -0.4846  0.1053
18500TIP3    H176915   1.247   1.386   5.066  2.8298 -0.9689  1.2977
18500TIP3    H276916   1.255   1.304   4.939  0.4897  0.3850  0.2122
18501TIP3   OH276917   0.752   1.928   5.848 -0.0981 -0.2115 -0.4823
18501TIP3    H176918   0.830   1.873   5.840  0.1290 -0.0810  0.6725
18501TIP3    H276919   0.773   1.990   5.918 -1.3079 -0.2916 -0.0246
18502TIP3   OH276920   2.408   0.746  12.987 -0.0990 -0.2943 -0.0234
18502TIP3    H176921   2.433   0.750  13.079  1.7612  0.5799 -0.5154
18502TIP3    H276922   2.488   0.768  12.939 -0.8934 -1.1906 -1.8741
18503TIP3   OH276923   3.930   6.700  14.628 -0.0572 -0.7575 -0.1838
18503TIP3    H176924   3.923   6.615  14.586  0.8081 -0.6169 -0.6352
18503TIP3    H276925   4.022   6.725  14.619 -0.1381 -0.1066  0.5962
18504TIP3   OH276926   5.460   4.874  16.544  0.1248 -0.0367 -0.9926
18504TIP3    H176927   5.378   4.921  16.560 -0.1276 -0.2447 -1.6357
18504TIP3    H276928   5.492   4.852  16.632  1.2792  3.0330 -0.5232
18505TIP3   OH276929   2.556   6.049   3.205 -0.2948  0.6048 -0.0620
18505TIP3    H176930   2.618   6.117   3.230  1.2534 -0.9246  0.4852
18505TIP3    H276931   2.555   5.989   3.280 -1.3671 -0.1515 -0.6483
18506TIP3   OH276932   0.229   3.793  13.842  0.2380  0.2005 -0.0639
18506TIP3    H176933   0.249   3.838  13.924 -1.8063  0.2029  0.4846
18506TIP3    H276934   0.157   3.733  13.864 -1.3452  1.2110 -2.1146
18507TIP3   OH276935   6.172   2.583   3.359  0.4262 -0.6146 -0.0943
18507TIP3    H176936   6.197   2.673   3.380  0.7291 -1.0275  1.4210
18507TIP3    H276937   6.108   2.592   3.289  1.5961  0.6947 -1.0608
18508TIP3   OH276938   0.898   5.846   2.421 -0.2945  0.9143  0.1535
18508TIP3    H176939   0.866   5.921   2.372  0.0584  0.4319 -0.8551
18508TIP3    H276940   0.906   5.776   2.356 -0.3684  0.0757  1.0161
18509TIP3   OH276941   3.126   1.388   3.981 -0.3471 -0.2453 -0.3967
18509TIP3    H176942   3.183   1.332   3.928  0.9705  1.4021 -0.8332
18509TIP3    H276943   3.090   1.451   3.919 -1.9184 -0.6760  0.0528
18510TIP3   OH276944   2.995   3.586   0.838  0.1938  0.0370 -0.1812
18510TIP3    H176945   2.916   3.537   0.816 -0.9704  1.9522 -0.4028
18510TIP3    H276946   3.058   3.560   0.771  0.3724 -2.7820  0.9512
18511TIP3   OH276947   5.394   4.102   0.518  0.0444 -0.0300  0.4687
18511TIP3    H176948   5.389   4.098   0.613 -2.8061 -2.3574  0.3658
18511TIP3    H276949   5.468   4.045   0.495  1.1303  1.0147  1.2279
18512TIP3   OH276950   3.911   1.324   2.031 -0.4417  0.4053 -0.6880
18512TIP3    H176951   3.944   1.323   2.120 -0.3729 -1.1467 -0.7159
18512TIP3    H276952   3.982   1.289   1.977 -1.5616 -1.6664 -0.9162
18513TIP3   OH276953   1.403   6.126  13.338  0.2443 -0.4148  0.3204
18513TIP3    H176954   1.318   6.083  13.329  0.4377 -0.5868 -0.9278
18513TIP3    H276955   1.421   6.125  13.432 -0.5632 -1.4743  0.4846
18514TIP3   OH276956   0.402   6.507   0.292  0.6095 -0.0753 -0.2059
18514TIP3    H176957   0.476   6.507   0.353  0.8057 -0.4724 -0.4408
18514TIP3    H276958   0.421   6.436   0.231  0.5542  0.5085 -0.9102
18515TIP3   OH276959   3.432   4.408  15.304 -0.4633 -0.1430 -0.2515
18515TIP3    H176960   3.407   4.346  15.235  0.3997  0.0657 -0.7703
18515TIP3    H276961   3.349   4.436  15.342 -0.8963 -1.2548 -0.3247
18516TIP3   OH276962   2.150   6.369   3.455 -0.1416 -0.3369 -0.2582
18516TIP3    H176963   2.212   6.423   3.405 -0.3148  0.0898 -0.0158
18516TIP3    H276964   2.204   6.327   3.522 -0.2186  0.6187  0.4310
18517TIP3   OH276965   6.481   4.267  12.162 -0.4972 -0.6051 -0.5540
18517TIP3    H176966   6.448   4.335  12.222 -0.4359  0.2343 -1.4369
18517TIP3    H276967   6.571   4.251  12.191  0.0137  0.8091 -1.2320
18518TIP3   OH276968   4.404   0.826  12.292 -0.0860 -0.0177 -0.0971
18518TIP3    H176969   4.388   0.870  12.209  0.5137 -1.2912 -0.9195
18518TIP3    H276970   4.446   0.743  12.268 -0.1559 -0.5416  1.4569
18519TIP3   OH276971   0.366   0.657   0.136  0.3199  0.4359 -0.2401
18519TIP3    H176972   0.424   0.722   0.098  0.4509 -0.4716 -1.6554
18519TIP3    H276973   0.348   0.595   0.065 -1.3317 -0.0323  0.5182
18520TIP3   OH276974   6.746   4.664  15.630  0.3181 -0.4803 -0.4658
18520TIP3    H176975   6.702   4.745  15.605 -0.5501 -1.3501 -1.8758
18520TIP3    H276976   6.834   4.673  15.594  0.7637  0.4991  0.7989
18521TIP3   OH276977   1.285   0.444  16.075 -1.0494  0.5858  0.5943
18521TIP3    H176978   1.253   0.429  15.986 -0.6515 -1.7311  0.8041
18521TIP3    H276979   1.212   0.419  16.131 -0.7713  0.5818  0.9537
18522TIP3   OH276980   4.568   2.820  13.909  0.1153  0.0416  0.4070
18522TIP3    H176981   4.552   2.862  13.993  1.7128  1.2949  0.1496
18522TIP3    H276982   4.501   2.752  13.902  0.4927 -0.7148  3.0869
18523TIP3   OH276983   0.508   1.196   1.994  0.2102  0.2484 -0.2295
18523TIP3    H176984   0.577   1.218   1.931  1.0579  1.1446  0.9822
18523TIP3    H276985   0.475   1.281   2.024 -1.2012 -0.1663 -0.5223
18524TIP3   OH276986   0.708   1.357  16.345  0.3194 -0.0777  0.1958
18524TIP3    H176987   0.643   1.404  16.292  0.9831  1.5648  0.7964
18524TIP3    H276988   0.783   1.345  16.286 -0.0342 -0.9034 -0.1159
18525TIP3   OH276989   2.787   0.580  12.673 -0.1305 -0.2919 -0.3459
18525TIP3    H176990   2.792   0.581  12.769  1.4455 -0.9333 -0.3820
18525TIP3    H276991   2.773   0.489  12.650  2.0932 -0.5903 -0.7539
18526TIP3   OH276992   6.022   5.136  14.941  0.3374  0.1291 -0.0460
18526TIP3    H176993   5.936   5.174  14.960  0.8895  1.8762 -0.8025
18526TIP3    H276994   6.028   5.135  14.846  1.4428  0.7684 -0.0085
18527TIP3   OH276995   3.706   0.298  13.095 -0.0824  0.3689  0.3616
18527TIP3    H176996   3.753   0.346  13.162  0.9163  1.4787 -1.0563
18527TIP3    H276997   3.632   0.259  13.140  1.1685  0.1368  2.2933
18528TIP3   OH276998   2.593   1.636  14.780  0.1177  0.2352  0.1039
18528TIP3    H176999   2.614   1.552  14.821  0.5319  0.6987  0.8444
18528TIP3    H277000   2.632   1.702  14.837 -2.7322  1.1275  1.2226
18529TIP3   OH277001   2.139   3.890  13.011 -0.0462  0.3930  0.4419
18529TIP3    H177002   2.217   3.872  13.064  0.4609  0.0901 -0.3834
18529TIP3    H277003   2.066   3.860  13.065  0.5263 -0.8319  0.5861
18530TIP3   OH277004   3.934   3.721   1.913  0.2031  0.2079  0.4792
18530TIP3    H177005   4.011   3.731   1.970  1.2744 -0.8404 -0.7120
18530TIP3    H277006   3.919   3.809   1.879 -0.3322  0.8117  2.1832
18531TIP3   OH277007   4.672   1.248   2.164  0.5478 -0.0618  0.0933
18531TIP3    H177008   4.605   1.228   2.099 -0.5356 -0.1958  1.2101
18531TIP3    H277009   4.644   1.330   2.203  1.0404 -0.1127  0.5655
18532TIP3   OH277010   3.614   2.298   1.676  0.0951 -0.1648  0.0064
18532TIP3    H177011   3.678   2.345   1.729 -0.7041  1.0087 -0.0197
18532TIP3    H277012   3.605   2.351   1.597  1.3031 -1.9119 -1.3828
18533TIP3   OH277013   1.786   3.324   3.105  0.5862 -0.0872 -0.1319
18533TIP3    H177014   1.751   3.264   3.171 -0.8957 -0.5702 -1.2947
18533TIP3    H277015   1.858   3.369   3.149 -1.5969  1.1035  2.5253
18534TIP3   OH277016   2.410   0.963  14.461  0.4242 -0.0872  0.3287
18534TIP3    H177017   2.461   0.973  14.381 -2.4243 -1.4110 -1.7942
18534TIP3    H277018   2.396   0.869  14.469 -1.2305  0.1959  1.1425
18535TIP3   OH277019   3.697   1.503   5.561 -0.3392 -0.4370  0.4856
18535TIP3    H177020   3.791   1.492   5.572  0.3257  2.7072 -0.9981
18535TIP3    H277021   3.680   1.481   5.469 -1.2098 -1.5338  0.8771
18536TIP3   OH277022   4.306   4.304   1.930 -0.3852 -0.6718 -0.0804
18536TIP3    H177023   4.354   4.254   1.997  0.8750  1.2338  0.5174
18536TIP3    H277024   4.240   4.353   1.980  1.2680  1.5988 -0.0094
18537TIP3   OH277025   3.711   1.188   5.027 -0.1201  0.4319  0.0127
18537TIP3    H177026   3.780   1.213   4.966  0.5777  0.4133  0.7844
18537TIP3    H277027   3.750   1.119   5.081 -1.1003 -0.3565 -0.2447
18538TIP3   OH277028   3.728   1.930   3.338 -0.3511 -0.0760 -0.2511
18538TIP3    H177029   3.726   1.836   3.321 -2.6900 -0.7704  2.9528
18538TIP3    H277030   3.660   1.966   3.281 -0.1807 -0.4521 -0.7081
18539TIP3   OH277031   4.578   3.065  14.796 -0.6469  0.4957 -0.2002
18539TIP3    H177032   4.616   3.141  14.750 -2.4580  1.2073 -0.5945
18539TIP3    H277033   4.554   3.099  14.883  0.2990 -0.1537  0.3341
18540TIP3   OH277034   2.780   4.606  11.805 -0.1317  0.6367  0.0746
18540TIP3    H177035   2.714   4.674  11.819  0.2650  0.4873  3.5092
18540TIP3    H277036   2.738   4.525  11.833  0.9498  0.2831  0.7343
18541TIP3   OH277037   1.560   2.672   1.966  0.5380 -0.0048 -0.0993
18541TIP3    H177038   1.512   2.679   1.884  1.3027  2.2076 -0.4004
18541TIP3    H277039   1.591   2.581   1.968  0.4303 -0.1220 -2.1992
18542TIP3   OH277040   4.935   1.454  11.694  0.3154  0.3678  0.3293
18542TIP3    H177041   4.898   1.396  11.760  0.2400  2.4049  2.2167
18542TIP3    H277042   4.878   1.531  11.695  0.8146  0.8272 -1.5390
18543TIP3   OH277043   5.424   2.927   2.374  0.2283  0.2134 -0.1321
18543TIP3    H177044   5.400   2.835   2.377  0.7656  0.0946  0.7045
18543TIP3    H277045   5.371   2.963   2.303  2.4054 -1.4083 -2.7620
18544TIP3   OH277046   5.687   1.112   1.899 -0.2358 -0.0064  0.1285
18544TIP3    H177047   5.632   1.164   1.958  1.5977 -2.4385  4.5033
18544TIP3    H277048   5.776   1.122   1.934  0.7648 -2.7923 -1.3081
18545TIP3   OH277049   3.591   4.485  11.979 -0.2383 -0.5192 -0.2226
18545TIP3    H177050   3.527   4.554  11.997  0.0052 -0.3103 -0.1556
18545TIP3    H277051   3.557   4.440  11.902 -0.0573  0.0984 -0.6691
18546TIP3   OH277052   4.141   1.096  11.134 -0.2464 -0.7275 -0.1869
18546TIP3    H177053   4.172   1.157  11.201 -1.1549  0.4154 -0.7831
18546TIP3    H277054   4.059   1.061  11.170 -0.2762 -0.7965 -0.3226
18547TIP3   OH277055   3.485   4.998   0.972 -1.0936 -0.4309 -0.7873
18547TIP3    H177056   3.525   5.085   0.975 -0.8904 -0.5379  1.8160
18547TIP3    H277057   3.394   5.014   0.948 -0.9142  0.4390 -0.9207
18548TIP3   OH277058   2.243   0.496   1.568 -0.6255  0.2508  0.5398
18548TIP3    H177059   2.231   0.582   1.528 -1.0513 -0.4210 -0.8477
18548TIP3    H277060   2.238   0.512   1.662 -0.1166  1.8168  0.3190
18549TIP3   OH277061   1.148   2.867   0.305 -0.3057 -0.5142  0.5288
18549TIP3    H177062   1.102   2.950   0.313 -0.6484 -0.5947 -0.3843
18549TIP3    H277063   1.163   2.857   0.211  1.4437 -0.5772  0.7736
18550TIP3   OH277064   0.988   4.091  15.192  0.0806  0.4470  0.2291
18550TIP3    H177065   0.986   4.185  15.176  0.4282  0.6619  1.3330
18550TIP3    H277066   0.906   4.058  15.155 -0.8490  1.4566  1.3181
18551TIP3   OH277067   3.774   1.582  10.724  0.3848  0.2179  0.3595
18551TIP3    H177068   3.857   1.607  10.684  0.8360  1.1677  1.8271
18551TIP3    H277069   3.709   1.600  10.656  1.3154 -0.0671 -0.6323
18552TIP3   OH277070   0.568   5.845  11.638 -0.1410  0.6749 -0.7603
18552TIP3    H177071   0.551   5.892  11.556 -1.4037  1.2112 -0.2262
18552TIP3    H277072   0.485   5.800  11.657 -0.6939  2.3750  1.3554
18553TIP3   OH277073   4.956   3.656  11.385  0.2635  0.6493  0.1045
18553TIP3    H177074   5.016   3.717  11.428 -0.2823  1.4236 -0.2001
18553TIP3    H277075   4.868   3.688  11.407 -0.0484 -0.3407  0.3739
18554TIP3   OH277076   1.785   1.377  14.940  0.0792  0.6153 -0.0423
18554TIP3    H177077   1.695   1.411  14.936 -0.0751  0.5265  1.6676
18554TIP3    H277078   1.785   1.302  14.882 -1.5490 -0.5668  1.3837
18555TIP3   OH277079   5.431   3.410   4.632  0.1580 -0.1088 -0.1914
18555TIP3    H177080   5.500   3.438   4.692  1.4578 -0.9613 -1.2269
18555TIP3    H277081   5.389   3.337   4.676  0.1060  0.2257  0.3217
18556TIP3   OH277082   2.505   0.270  15.323  0.2615 -0.3705  0.5626
18556TIP3    H177083   2.446   0.305  15.257  1.2266  1.0230  0.3941
18556TIP3    H277084   2.461   0.192  15.356  0.0194 -1.4681 -2.1330
18557TIP3   OH277085   5.847   0.201   1.868  0.0993 -0.1900  0.2339
18557TIP3    H177086   5.914   0.245   1.816 -1.0058 -0.4297 -1.4948
18557TIP3    H277087   5.767   0.250   1.851 -0.3816 -0.5192  1.4357
18558TIP3   OH277088   3.716   5.851  17.164 -0.0438 -0.8329 -0.6062
18558TIP3    H177089   3.670   5.767  17.172 -2.0141  0.1821 -0.7513
18558TIP3    H277090   3.657   5.914  17.205  0.6879  0.7128 -1.8560
18559TIP3   OH277091   1.182   3.806   5.492  0.7365 -0.1797  0.0860
18559TIP3    H177092   1.124   3.733   5.514 -2.7880  2.7868  1.7633
18559TIP3    H277093   1.198   3.798   5.398 -3.0922 -0.8744 -0.6333
18560TIP3   OH277094   5.123   5.867  17.154  0.0533  0.5171  0.4125
18560TIP3    H177095   5.167   5.948  17.178  0.0582  1.2072 -1.7184
18560TIP3    H277096   5.084   5.885  17.068 -0.9023 -1.3795  0.3866
18561TIP3   OH277097   5.822   3.012   5.210  0.2508 -0.1172  0.4193
18561TIP3    H177098   5.830   2.917   5.215  0.5238 -0.2290 -1.3709
18561TIP3    H277099   5.909   3.045   5.236  0.5613 -0.4370 -0.1804
18562TIP3   OH277100   3.498   4.804   1.846 -1.1643  0.9185 -0.6028
18562TIP3    H177101   3.510   4.892   1.882 -2.3914  1.8839 -2.4271
18562TIP3    H277102   3.409   4.779   1.872 -0.5451 -0.1986  0.6187
18563TIP3   OH277103   5.631   2.759   5.812  0.2359 -0.2988 -0.0718
18563TIP3    H177104   5.675   2.826   5.760  0.5706  0.3052  0.9588
18563TIP3    H277105   5.645   2.786   5.903 -0.2299 -1.3874  0.3431
18564TIP3   OH277106   1.254   0.988   4.782 -0.5173  0.2877 -0.4224
18564TIP3    H177107   1.193   1.006   4.710 -1.4163  0.4398  0.3532
18564TIP3    H277108   1.334   1.036   4.758 -1.0722  0.9887 -0.9343
18565TIP3   OH277109   6.591   6.226  12.202 -0.3065  0.5490  0.2007
18565TIP3    H177110   6.578   6.284  12.278 -0.8991  0.1376  0.4148
18565TIP3    H277111   6.577   6.138  12.236 -0.2467  0.3362 -0.3176
18566TIP3   OH277112   3.341   5.736  13.994 -0.3687 -0.7746  0.9247
18566TIP3    H177113   3.263   5.759  14.045  0.1458  1.5457  0.8063
18566TIP3    H277114   3.329   5.783  13.911  0.6875 -1.2084  0.5109
18567TIP3   OH277115   2.967   4.137  11.390  0.5659 -0.1578  0.3872
18567TIP3    H177116   3.051   4.168  11.423  0.5890  1.9378 -1.4285
18567TIP3    H277117   2.988   4.061  11.336  1.3724  0.6014 -0.3942
18568TIP3   OH277118   3.250   4.797   5.460  0.1947 -0.2939  0.1533
18568TIP3    H177119   3.326   4.834   5.503  0.8154  0.0925 -1.2389
18568TIP3    H277120   3.190   4.776   5.531  0.4874  1.8639  1.0835
18569TIP3   OH277121   4.221   1.556  16.447  0.2853  1.1585 -0.2926
18569TIP3    H177122   4.149   1.612  16.477  1.0459  1.2824  1.4331
18569TIP3    H277123   4.269   1.610  16.384  0.2942  2.0316  0.4323
18570TIP3   OH277124   4.479   5.713   3.083 -0.7799 -0.0187  0.1970
18570TIP3    H177125   4.413   5.767   3.039 -0.3394  1.7614  1.5986
18570TIP3    H277126   4.433   5.676   3.158 -0.7591 -0.6592 -0.0966
18571TIP3   OH277127   0.016   0.920   4.310 -0.1391  0.0595  0.4278
18571TIP3    H177128  -0.002   0.876   4.227 -0.7541  2.1147 -0.5800
18571TIP3    H277129   0.077   0.990   4.288 -0.0053  0.4054  1.7907
18572TIP3   OH277130   5.171   3.778   5.389  0.2542  0.1677 -0.3418
18572TIP3    H177131   5.200   3.687   5.387 -0.2027 -0.0151  0.7783
18572TIP3    H277132   5.151   3.795   5.481 -0.2082  1.2321 -0.6253
18573TIP3   OH277133   6.590   5.622   4.377  0.5225  0.3333 -0.2739
18573TIP3    H177134   6.497   5.604   4.364  0.1305  1.9980  0.0366
18573TIP3    H277135   6.634   5.539   4.356 -1.0712 -0.6979  0.3064
18574TIP3   OH277136   5.500   2.609  11.402  1.1255 -0.0974  0.6659
18574TIP3    H177137   5.565   2.603  11.332  0.4641 -0.8826  0.0947
18574TIP3    H277138   5.454   2.525  11.400 -0.2798  0.6269  0.6724
18575TIP3   OH277139   3.792   0.618   0.173 -0.0294 -0.3673  0.1671
18575TIP3    H177140   3.856   0.667   0.122  0.1425 -0.9463 -0.1831
18575TIP3    H277141   3.708   0.638   0.132 -0.2726  1.5128  1.4924
18576TIP3   OH277142   5.674   4.544  16.687 -0.0227  0.1453 -0.1943
18576TIP3    H177143   5.760   4.582  16.668  0.3332 -1.1509 -1.3290
18576TIP3    H277144   5.620   4.619  16.712  1.5904  0.9029  1.1851
18577TIP3   OH277145   0.637   5.469  14.968  0.0711 -0.0127 -0.3939
18577TIP3    H177146   0.559   5.431  14.928  0.1727 -0.5255 -0.1206
18577TIP3    H277147   0.641   5.559  14.934 -1.1850  0.3513  0.3279
18578TIP3   OH277148   3.031   4.866  14.672 -0.0037  0.1195  0.3183
18578TIP3    H177149   3.106   4.821  14.712 -0.6071  0.6729  2.1156
18578TIP3    H277150   3.070   4.938  14.623  0.8534 -1.3791 -1.3610
18579TIP3   OH277151   3.230   2.723   1.202  0.0776 -0.0535 -0.1367
18579TIP3    H177152   3.290   2.687   1.137  0.3012 -0.0377  0.0633
18579TIP3    H277153   3.282   2.786   1.251 -0.0861 -0.0798  0.0727
18580TIP3   OH277154   0.051   0.939  15.730 -0.0299 -0.5771  0.0898
18580TIP3    H177155  -0.019   0.961  15.669  2.0116  0.2447 -2.1594
18580TIP3    H277156   0.131   0.963  15.683  1.7873 -1.7982  2.3605
18581TIP3   OH277157   5.748   5.878  10.795  0.1913 -0.6720 -0.1743
18581TIP3    H177158   5.718   5.932  10.869 -1.5169  3.6247 -3.5662
18581TIP3    H277159   5.674   5.820  10.776  0.6768 -1.8807  1.3648
18582TIP3   OH277160   3.177   4.508  14.082  0.4441  0.3581  0.2823
18582TIP3    H177161   3.170   4.491  13.988  2.9271 -0.1657  0.1323
18582TIP3    H277162   3.258   4.559  14.092 -0.6297  1.8801  1.9968
18583TIP3   OH277163   5.745   1.773  17.351 -0.4845 -0.4611  0.1703
18583TIP3    H177164   5.714   1.786  17.441  0.6980 -0.5782  0.6095
18583TIP3    H277165   5.840   1.782  17.357 -0.2899 -1.6544 -0.8762
18584TIP3   OH277166   2.674   4.202   0.782 -0.1456  0.3317 -0.1405
18584TIP3    H177167   2.581   4.221   0.770 -0.1298 -0.2678 -1.3547
18584TIP3    H277168   2.677   4.138   0.853 -0.7484 -0.4081 -0.7711
18585TIP3   OH277169   0.008   5.440   4.476  0.0364 -0.0990 -0.0949
18585TIP3    H177170  -0.004   5.524   4.521 -1.3658  1.2176 -2.6609
18585TIP3    H277171  -0.054   5.381   4.517  1.5944 -0.1950  2.2927
18586TIP3   OH277172   1.423   3.000   3.482 -0.2784 -0.6013  0.4403
18586TIP3    H177173   1.332   3.025   3.464 -0.5567 -0.1354  2.2859
18586TIP3    H277174   1.430   2.911   3.447 -0.6348  0.2798 -2.0564
18587TIP3   OH277175   2.578   3.055   0.503  0.6579 -0.1482 -0.2938
18587TIP3    H177176   2.619   3.019   0.582  1.7043  0.3323 -0.6070
18587TIP3    H277177   2.629   3.134   0.483 -1.3161  1.3170  0.1485
18588TIP3   OH277178   0.494   5.464  11.568 -0.0487  0.0315 -0.1228
18588TIP3    H177179   0.416   5.513  11.542 -1.5166 -3.0983 -2.1629
18588TIP3    H277180   0.464   5.408  11.640  0.6308 -0.4034 -0.1688
18589TIP3   OH277181   6.177   6.724  13.567 -0.1358  0.3270 -0.1385
18589TIP3    H177182   6.204   6.718  13.659  0.7110  1.1252 -0.3142
18589TIP3    H277183   6.132   6.642  13.550 -0.4115  0.2099  1.0232
18590TIP3   OH277184   6.548   1.521   5.694 -0.4890  0.0938  0.0331
18590TIP3    H177185   6.621   1.463   5.715 -0.4796  0.5804  1.3939
18590TIP3    H277186   6.586   1.609   5.697 -1.0376  0.3213  0.3206
18591TIP3   OH277187   2.487   5.084   4.145  0.5939 -0.0129 -0.8022
18591TIP3    H177188   2.415   5.119   4.093 -1.9881 -1.1662  1.7233
18591TIP3    H277189   2.507   4.999   4.105 -2.1995 -1.4586  0.5460
18592TIP3   OH277190   0.324   4.909   5.382 -0.4588 -0.1734  0.0609
18592TIP3    H177191   0.395   4.910   5.319 -0.0561  0.0537  0.5117
18592TIP3    H277192   0.336   4.988   5.434 -1.5239  0.3051 -0.3798
18593TIP3   OH277193   3.840   4.289   3.173  0.1312 -0.1880 -0.0466
18593TIP3    H177194   3.857   4.286   3.268 -4.1336 -1.0002  0.8989
18593TIP3    H277195   3.812   4.201   3.151  0.9977  0.0048 -2.1593
18594TIP3   OH277196   2.633   4.623   5.944  0.4163 -0.2756  0.4382
18594TIP3    H177197   2.643   4.656   6.034  0.8500 -1.2892  0.7810
18594TIP3    H277198   2.715   4.645   5.901  0.3335 -0.0694  0.3867
18595TIP3   OH277199   2.582   3.353   4.174  0.0449  0.1750  0.7212
18595TIP3    H177200   2.498   3.344   4.129  1.1780 -1.7958 -1.2288
18595TIP3    H277201   2.623   3.429   4.133  0.5351 -0.8458 -0.7629
18596TIP3   OH277202   2.932   3.119  16.055  0.1957  0.6584 -0.1290
18596TIP3    H177203   2.978   3.107  16.138  0.8199  1.0564 -0.4135
18596TIP3    H277204   2.839   3.114  16.078  0.3742 -0.5206  0.3934
18597TIP3   OH277205   3.752   5.195  13.444 -0.1654  0.5757  0.3916
18597TIP3    H177206   3.725   5.286  13.432 -0.2235  0.5335  0.1863
18597TIP3    H277207   3.676   5.151  13.480 -0.0617  0.6580  0.7083
18598TIP3   OH277208   1.899   5.556   2.707 -0.0919 -0.4739  0.4334
18598TIP3    H177209   1.942   5.489   2.655 -1.1027 -0.0591 -0.9838
18598TIP3    H277210   1.959   5.631   2.704  0.5673 -0.9538  1.1841
18599TIP3   OH277211   3.398   3.661  11.530  0.4232 -0.2668  1.0970
18599TIP3    H177212   3.305   3.646  11.547 -1.0704  1.5941 -3.7760
18599TIP3    H277213   3.424   3.589  11.471  0.1137  2.2756 -2.4738
18600TIP3   OH277214   1.583   2.201  16.178  0.3768  0.8590 -0.2296
18600TIP3    H177215   1.623   2.257  16.244  0.4130 -1.5385  1.9592
18600TIP3    H277216   1.500   2.243  16.157  0.3260  1.6629  1.4413
18601TIP3   OH277217   0.103   2.522  12.736 -0.0304 -0.1393 -0.1273
18601TIP3    H177218   0.058   2.437  12.732 -1.5077  0.5445  0.9170
18601TIP3    H277219   0.196   2.500  12.732 -0.3796 -1.8139  0.0417
18602TIP3   OH277220   1.011   1.442  12.956  0.0794 -0.4406  0.4502
18602TIP3    H177221   1.093   1.491  12.961  0.8534 -1.5588 -0.7099
18602TIP3    H277222   0.978   1.459  12.868  0.2956 -1.8482  0.0763
18603TIP3   OH277223   2.480   4.459  13.184 -0.2950 -0.4351 -0.2649
18603TIP3    H177224   2.575   4.461  13.191 -0.3201  1.2230  0.1733
18603TIP3    H277225   2.450   4.447  13.274 -0.4871 -0.0942 -0.2793
18604TIP3   OH277226   0.089   0.641  12.609  0.4077  0.3560 -0.3459
18604TIP3    H177227   0.115   0.731  12.624  0.1346  0.4849 -0.6350
18604TIP3    H277228   0.163   0.601  12.563 -0.2764  0.9831 -2.0576
18605TIP3   OH277229   1.273   6.571  12.018  0.3031 -0.1229 -0.4405
18605TIP3    H177230   1.265   6.529  12.104  0.0817  0.5710 -0.1192
18605TIP3    H277231   1.241   6.660  12.032  4.1959  1.4174 -0.2028
18606TIP3   OH277232   6.532   0.716  16.524 -0.2047 -0.2333  0.3445
18606TIP3    H177233   6.481   0.667  16.589 -0.9452  0.5888  0.4018
18606TIP3    H277234   6.565   0.649  16.464 -0.2765 -0.9085  1.0461
18607TIP3   OH277235   3.318   1.645  14.781  0.1437  0.7761  0.0499
18607TIP3    H177236   3.251   1.598  14.731 -0.5955  1.5052  0.3214
18607TIP3    H277237   3.373   1.576  14.817 -0.9629  0.0895  0.5034
18608TIP3   OH277238   6.381   0.483  15.187  0.3639 -0.7073  0.2313
18608TIP3    H177239   6.312   0.544  15.160  0.1541 -1.7253 -1.7220
18608TIP3    H277240   6.427   0.529  15.257 -0.1734  1.4239 -0.7214
18609TIP3   OH277241   5.662   0.791  14.155 -0.7526  0.3839  0.0536
18609TIP3    H177242   5.662   0.712  14.209 -3.3221 -0.9424 -1.6848
18609TIP3    H277243   5.690   0.760  14.068 -1.0311  1.5485 -0.4627
18610TIP3   OH277244   5.738   5.383   2.841 -0.5324  0.3510 -0.3469
18610TIP3    H177245   5.770   5.455   2.787  1.9473  1.3718  2.2025
18610TIP3    H277246   5.646   5.404   2.858  0.1020  2.9676  0.2713
18611TIP3   OH277247   5.135   2.413   1.497 -0.3592 -0.1390  0.4518
18611TIP3    H177248   5.043   2.392   1.513 -0.0403 -1.5368  0.5851
18611TIP3    H277249   5.183   2.336   1.527  0.8451  0.4774  0.1790
18612TIP3   OH277250   0.373   6.718   2.025  0.5844  0.2575 -0.6034
18612TIP3    H177251   0.372   6.810   1.998  1.0546 -0.3943 -3.0802
18612TIP3    H277252   0.452   6.682   1.986  0.7101 -1.1086  0.8045
18613TIP3   OH277253   0.613   0.449  12.502  0.1035  0.0267  0.0268
18613TIP3    H177254   0.579   0.524  12.454  1.8258  0.6236 -0.3125
18613TIP3    H277255   0.545   0.382  12.493 -0.3718  0.7128 -1.7655
18614TIP3   OH277256   4.939   1.431  10.212  0.0228  0.2644 -0.2522
18614TIP3    H177257   4.861   1.481  10.237  0.2260  0.1887  0.5585
18614TIP3    H277258   4.917   1.393  10.126 -0.7507  0.4085 -0.1247
18615TIP3   OH277259   3.894   6.415   1.984  0.7687  0.0311 -0.3931
18615TIP3    H177260   3.845   6.413   2.067 -0.2762 -1.2346 -1.0056
18615TIP3    H277261   3.982   6.440   2.010 -0.0704  2.0466  0.7956
18616TIP3   OH277262   4.374   4.583   2.593  0.3640 -0.0202 -0.6536
18616TIP3    H177263   4.361   4.637   2.671 -0.6919 -2.0312  0.6368
18616TIP3    H277264   4.294   4.595   2.542 -0.7372 -1.7065  0.5555
18617TIP3   OH277265   6.288   4.152  13.932  0.5843  0.0674  0.3524
18617TIP3    H177266   6.228   4.226  13.942  0.5202  0.4541 -2.1060
18617TIP3    H277267   6.344   4.155  14.009 -0.5420  1.6327  1.1483
18618TIP3   OH277268   0.907   4.748  12.841 -0.5376  0.4892  0.1367
18618TIP3    H177269   0.942   4.776  12.756  0.5330  0.2212  0.4786
18618TIP3    H277270   0.885   4.656  12.828  0.2962  0.2539  0.3463
18619TIP3   OH277271   1.145   2.311  11.015  0.0719  0.5832 -0.3165
18619TIP3    H177272   1.090   2.252  10.963  0.1353 -0.7193  1.0189
18619TIP3    H277273   1.234   2.277  11.005 -0.1663 -1.0825  2.2927
18620TIP3   OH277274   5.462   0.012   0.752 -0.5482  0.3264  0.4546
18620TIP3    H177275   5.374  -0.022   0.764 -0.3691 -0.0697  0.6533
18620TIP3    H277276   5.467   0.087   0.811 -1.5723  1.9042 -1.3494
18621TIP3   OH277277   1.683   3.160   4.859  0.1088 -0.6002 -0.1168
18621TIP3    H177278   1.607   3.109   4.831  0.1754 -1.8892  1.8490
18621TIP3    H277279   1.749   3.142   4.793 -0.9022 -0.4150 -1.2158
18622TIP3   OH277280   5.414   4.240   0.284 -0.1939  0.0210 -0.0942
18622TIP3    H177281   5.467   4.169   0.249 -2.3501 -2.2004  0.8763
18622TIP3    H277282   5.381   4.207   0.367 -2.4589  1.5516 -0.2931
18623TIP3   OH277283   1.653   4.875   6.108 -0.2600 -0.3660  0.1533
18623TIP3    H177284   1.632   4.794   6.155 -0.8344 -1.1109 -1.3149
18623TIP3    H277285   1.691   4.932   6.175 -0.5073 -1.5756  1.3845
18624TIP3   OH277286   3.094   2.477   4.358 -0.2396 -0.1575 -0.5324
18624TIP3    H177287   3.046   2.394   4.363  0.6387 -0.6108  0.9512
18624TIP3    H277288   3.184   2.455   4.383  0.4102  0.9516 -1.7493
18625TIP3   OH277289   2.576   4.739   1.379 -0.1943  0.3049  0.0870
18625TIP3    H177290   2.526   4.680   1.436  3.0870 -1.7829  1.0859
18625TIP3    H277291   2.608   4.807   1.438  0.3167  0.1227  0.0232
18626TIP3   OH277292   2.165   6.563   0.720 -0.0879 -0.2440  0.6899
18626TIP3    H177293   2.240   6.588   0.665 -0.5176  0.2455  0.3097
18626TIP3    H277294   2.193   6.581   0.809 -0.4473  1.8620  0.4203
18627TIP3   OH277295   0.317   5.291  13.342  0.1020  0.3952  0.0008
18627TIP3    H177296   0.406   5.309  13.311  0.7282  0.7015  1.8900
18627TIP3    H277297   0.302   5.200  13.318  1.9129 -0.4548  1.8049
18628TIP3   OH277298   5.416   3.339  15.794 -0.3321  0.0064 -0.8350
18628TIP3    H177299   5.406   3.279  15.719 -2.3618 -1.6731  0.6595
18628TIP3    H277300   5.334   3.331  15.842  0.7083  1.4210  1.3199
18629TIP3   OH277301   6.152   0.796  15.715  0.0366 -0.1019  0.1092
18629TIP3    H177302   6.103   0.718  15.741 -0.1310  0.3275  1.1273
18629TIP3    H277303   6.175   0.838  15.798 -0.5418  1.3402 -0.4387
18630TIP3   OH277304   0.723   5.368   3.895  0.0722 -0.1944 -0.5184
18630TIP3    H177305   0.754   5.312   3.824  0.9424  0.2840 -0.5276
18630TIP3    H277306   0.763   5.332   3.973  0.2167  0.1092 -0.4541
18631TIP3   OH277307   0.427   1.736   0.687 -0.5341  0.3097  0.6195
18631TIP3    H177308   0.445   1.807   0.747  0.3990  0.8595 -0.2661
18631TIP3    H277309   0.492   1.669   0.709 -0.4756  0.3309  0.5122
18632TIP3   OH277310   2.224   2.102  12.617 -0.3753  0.3172  0.4135
18632TIP3    H177311   2.218   2.010  12.640  0.5305  0.2113  0.2834
18632TIP3    H277312   2.155   2.115  12.551 -0.2502 -0.3631  0.1370
18633TIP3   OH277313   3.150   3.236   1.599 -0.2989  0.9639 -0.0163
18633TIP3    H177314   3.221   3.284   1.642  1.2384 -1.3008  0.1234
18633TIP3    H277315   3.108   3.301   1.543  1.5371  2.5151  0.2935
18634TIP3   OH277316   1.897   3.654   0.789  0.5673 -0.1082 -0.1573
18634TIP3    H177317   1.932   3.689   0.707  1.4111  1.0693  0.6829
18634TIP3    H277318   1.969   3.660   0.851 -0.5607  0.6704  1.1440
18635TIP3   OH277319   0.368   3.992  12.017  0.2850  0.0156  0.0973
18635TIP3    H177320   0.329   3.906  12.004  2.2532 -1.0548  0.8714
18635TIP3    H277321   0.414   3.985  12.100  0.4270  1.8559  0.2076
18636TIP3   OH277322   4.887   1.964   4.537  0.6447  0.0853  0.2521
18636TIP3    H177323   4.818   1.904   4.507 -0.3004  0.2389  1.9543
18636TIP3    H277324   4.940   1.911   4.596  1.6324  0.1462 -0.5591
18637TIP3   OH277325   3.865   1.601  16.800 -0.0257 -0.1037  0.1031
18637TIP3    H177326   3.910   1.547  16.865  1.7099  2.3185  1.0915
18637TIP3    H277327   3.772   1.588  16.817  0.3105 -2.5265  0.4031
18638TIP3   OH277328   6.198   1.587   5.002 -0.3996  0.2487 -0.1396
18638TIP3    H177329   6.149   1.510   4.973 -0.0873 -0.1790  0.4533
18638TIP3    H277330   6.216   1.636   4.921 -0.0064 -0.6495 -0.6062
18639TIP3   OH277331   1.186   2.512  14.106  0.7598  0.3603 -0.1523
18639TIP3    H177332   1.214   2.430  14.145  0.2627  0.7359  1.0418
18639TIP3    H277333   1.267   2.553  14.075  0.9706 -0.7187 -1.0688
18640TIP3   OH277334   5.520   3.222   0.421  0.0056 -0.1731  0.2316
18640TIP3    H177335   5.489   3.140   0.382 -0.9670  0.6927 -0.8908
18640TIP3    H277336   5.607   3.201   0.454 -0.4979 -1.8446  0.6157
18641TIP3   OH277337   6.671   2.890   1.049  0.0404 -0.3887 -0.6360
18641TIP3    H177338   6.595   2.832   1.042  0.6426 -1.3017  0.1835
18641TIP3    H277339   6.735   2.855   0.987  0.2387 -0.3250 -0.4679
18642TIP3   OH277340   4.844   6.047   3.404 -0.4663  0.5193  0.0948
18642TIP3    H177341   4.801   5.962   3.411 -0.9300  0.7989  0.7684
18642TIP3    H277342   4.937   6.026   3.400 -0.6266 -0.0675 -0.8739
18643TIP3   OH277343   3.547   1.988  13.594  0.0979  0.2105  0.5881
18643TIP3    H177344   3.478   1.964  13.532 -1.3627  2.4120  1.2515
18643TIP3    H277345   3.512   2.063  13.641  2.3799  0.4759  2.0132
18644TIP3   OH277346   2.284   5.209   4.684  0.3411  0.2653  0.3211
18644TIP3    H177347   2.255   5.284   4.736 -1.4150 -0.3665  0.3063
18644TIP3    H277348   2.259   5.230   4.595  0.8125  0.1152  0.1485
18645TIP3   OH277349   5.318   2.987   5.528  0.5889  0.0374  0.0121
18645TIP3    H177350   5.335   2.910   5.583  0.2384  0.7351  1.1330
18645TIP3    H277351   5.251   2.958   5.466  1.5290 -0.9829 -0.5569
18646TIP3   OH277352   0.599   3.034   1.369 -0.0135 -0.8958 -0.1823
18646TIP3    H177353   0.674   3.025   1.428 -0.4570 -2.7534  0.1458
18646TIP3    H277354   0.538   3.090   1.417  0.7810 -0.0831 -0.0838
18647TIP3   OH277355   1.984   2.862  11.045  0.4845 -0.0036 -0.2662
18647TIP3    H177356   2.072   2.889  11.019  1.1932 -0.3958  1.5348
18647TIP3    H277357   1.998   2.805  11.120 -1.2688 -1.0995 -0.7206
18648TIP3   OH277358   2.032   3.382   2.836  0.7538 -0.6205 -0.1003
18648TIP3    H177359   2.092   3.350   2.903  1.5874  0.7560 -0.1381
18648TIP3    H277360   2.087   3.436   2.779 -0.3882  0.1443 -0.5219
18649TIP3   OH277361   4.013   3.235   2.445  0.4078  0.3293  0.3778
18649TIP3    H177362   4.029   3.313   2.393  0.0350  0.1416 -0.0223
18649TIP3    H277363   3.938   3.192   2.403  0.3967 -0.0665  0.7895
18650TIP3   OH277364   2.252   0.779  16.660 -0.3105  0.0464 -0.7347
18650TIP3    H177365   2.164   0.757  16.691  1.2413 -2.5995  2.3609
18650TIP3    H277366   2.258   0.736  16.575 -1.0352 -2.6937  0.4608
18651TIP3   OH277367   4.002   5.592   5.623 -0.0337 -0.3571 -0.3195
18651TIP3    H177368   3.948   5.658   5.666  0.1688 -0.8410  0.7136
18651TIP3    H277369   3.965   5.584   5.535 -1.2909 -0.2589  0.1803
18652TIP3   OH277370   1.765   3.317   3.476 -0.4220  0.0491  0.4991
18652TIP3    H177371   1.767   3.413   3.479  0.5142  0.1484 -1.7300
18652TIP3    H277372   1.851   3.290   3.506 -0.0501  0.0116 -0.5575
18653TIP3   OH277373   2.201   0.485  13.506  0.3915 -0.0903  0.4425
18653TIP3    H177374   2.204   0.579  13.493  0.0011 -0.2808 -1.2378
18653TIP3    H277375   2.257   0.470  13.582 -0.0966  1.5473  1.1666
18654TIP3   OH277376   1.377   3.164  16.933  0.3216 -0.4315  0.7962
18654TIP3    H177377   1.370   3.173  16.838 -0.2775 -0.9461  0.7896
18654TIP3    H277378   1.287   3.163  16.964  0.5171 -0.1575  1.3847
18655TIP3   OH277379   4.964   4.133  15.386 -0.1294  0.0805 -0.2518
18655TIP3    H177380   5.019   4.071  15.434  0.9309  0.4804 -0.9206
18655TIP3    H277381   4.995   4.127  15.296  0.4099  2.0114 -0.2404
18656TIP3   OH277382   2.129   5.679  14.225 -0.1093 -0.3766 -0.1602
18656TIP3    H177383   2.050   5.644  14.185  0.1158  0.1305 -1.0632
18656TIP3    H277384   2.180   5.601  14.250 -2.0488 -0.8281  2.9578
18657TIP3   OH277385   1.908   6.156  11.520 -0.0953 -0.2587 -0.0153
18657TIP3    H177386   1.956   6.237  11.532 -0.2726 -0.2701  0.8198
18657TIP3    H277387   1.836   6.179  11.460 -0.8648  0.5123  1.1545
18658TIP3   OH277388   5.168   4.624  14.005  0.1450  0.4009  0.5936
18658TIP3    H177389   5.138   4.563  14.072 -1.0750  0.7780  0.4149
18658TIP3    H277390   5.244   4.580  13.965 -0.2032 -0.6218  1.0199
18659TIP3   OH277391   2.540   6.466   0.388  0.4488  0.0284  0.0209
18659TIP3    H177392   2.627   6.489   0.422  0.9688 -1.9880  0.1745
18659TIP3    H277393   2.545   6.488   0.295  0.8408  0.6629  0.1842
18660TIP3   OH277394   2.356   5.017  12.851  0.0497 -0.2078 -0.0484
18660TIP3    H177395   2.322   5.029  12.940 -0.9323  1.0470 -0.5701
18660TIP3    H277396   2.416   5.090  12.838 -0.9140  0.4725 -0.8990
18661TIP3   OH277397   1.712   5.904   4.649 -0.2718  0.5761  0.1755
18661TIP3    H177398   1.665   5.833   4.693  1.2614  0.6011  1.9503
18661TIP3    H277399   1.660   5.982   4.669  0.5392  0.6391  2.3282
18662TIP3   OH277400   4.418   6.341   2.076  0.5210 -0.0927 -0.5746
18662TIP3    H177401   4.356   6.398   2.031 -0.9087 -2.2911 -1.5429
18662TIP3    H277402   4.407   6.362   2.169  1.8042  2.8258 -0.9661
18663TIP3   OH277403   1.141   6.343   1.434  0.1964  0.1406 -0.0938
18663TIP3    H177404   1.161   6.434   1.458 -0.8716  0.4555 -0.3543
18663TIP3    H277405   1.226   6.305   1.414  0.6590  1.0996 -0.0231
18664TIP3   OH277406   2.649   2.196  15.665  0.2010  0.1228  0.3206
18664TIP3    H177407   2.714   2.138  15.624 -1.5441 -0.7308 -1.3917
18664TIP3    H277408   2.648   2.273  15.609  1.9054  1.5731  2.1242
18665TIP3   OH277409   5.453   5.281   2.025  0.2397 -0.0470  0.7497
18665TIP3    H177410   5.395   5.355   2.043  1.7593  1.2840  0.3879
18665TIP3    H277411   5.501   5.267   2.107 -0.2919 -0.8805  0.9278
18666TIP3   OH277412   6.736   6.371  14.384 -0.0579 -0.4090  0.2098
18666TIP3    H177413   6.670   6.310  14.416 -0.2933  0.3879  1.2734
18666TIP3    H277414   6.776   6.326  14.309 -1.8579 -0.8599 -0.5201
18667TIP3   OH277415   6.521   3.054  13.073  0.0760 -0.2367  0.3265
18667TIP3    H177416   6.425   3.063  13.071  0.1944  1.1194 -0.4287
18667TIP3    H277417   6.548   3.108  13.147  0.2646 -0.5517  0.4877
18668TIP3   OH277418   1.280   5.784  16.125 -0.0197  0.4456  0.6833
18668TIP3    H177419   1.342   5.724  16.167 -1.0350  0.5985  2.4752
18668TIP3    H277420   1.272   5.751  16.035  0.3904 -1.3638  1.2749
18669TIP3   OH277421   3.613   5.504   1.628  0.1483  0.3840 -0.7049
18669TIP3    H177422   3.610   5.598   1.649  0.5297  0.7355 -2.1343
18669TIP3    H277423   3.678   5.497   1.558 -0.3611 -0.8626 -1.0823
18670TIP3   OH277424   1.605   5.607  14.578  0.1095 -0.6060  0.0688
18670TIP3    H177425   1.565   5.604  14.492 -0.1769 -0.4507  0.1947
18670TIP3    H277426   1.531   5.604  14.639  0.3757 -2.5135  0.3507
18671TIP3   OH277427   4.172   5.692  16.169 -0.0054  0.1289  0.3062
18671TIP3    H177428   4.230   5.617  16.156 -2.3655 -1.6031 -0.9377
18671TIP3    H277429   4.170   5.704  16.264  0.6608 -1.1773  0.5131
18672TIP3   OH277430   5.664   4.641  17.220  0.2499  0.1912 -0.1026
18672TIP3    H177431   5.739   4.653  17.161  0.4025  2.8498  0.5104
18672TIP3    H277432   5.588   4.642  17.161  0.5051  1.0416 -0.4355
18673TIP3   OH277433   6.103   0.304  10.494  0.6184 -0.6128  0.4938
18673TIP3    H177434   6.094   0.396  10.517  0.1859 -0.8172  1.1569
18673TIP3    H277435   6.197   0.286  10.504  0.4173 -0.7871  2.5102
18674TIP3   OH277436   5.586   3.673   4.058  0.4762  0.3103  0.8166
18674TIP3    H177437   5.660   3.732   4.070  2.3116 -1.6521 -0.2559
18674TIP3    H277438   5.587   3.616   4.134 -0.1550  0.4762  0.9580
18675TIP3   OH277439   2.810   0.323  12.572 -0.3002 -0.4124  0.1110
18675TIP3    H177440   2.862   0.359  12.500 -1.5234  2.7695  0.6505
18675TIP3    H277441   2.870   0.320  12.646  0.2072 -0.9619 -0.3083
18676TIP3   OH277442   2.479   4.711  13.793  0.2403  0.5455 -0.6856
18676TIP3    H177443   2.513   4.621  13.788  2.1032  1.1794 -0.2867
18676TIP3    H277444   2.546   4.764  13.749 -0.5128  1.8292 -0.3396
18677TIP3   OH277445   1.303   1.773  11.190 -0.5553 -0.1475 -0.1024
18677TIP3    H177446   1.267   1.806  11.272 -0.4615 -0.4121  0.0471
18677TIP3    H277447   1.287   1.843  11.127  0.7695  0.7348  0.4823
18678TIP3   OH277448   3.129   0.649   0.174 -0.3712 -0.7162  0.1922
18678TIP3    H177449   3.132   0.555   0.154  0.3951 -0.4961 -0.8031
18678TIP3    H277450   3.043   0.677   0.143 -0.8936 -1.2176  1.1485
18679TIP3   OH277451   2.631   6.277  11.235  0.0019  0.3103  0.6549
18679TIP3    H177452   2.586   6.233  11.163  0.2079 -0.0828  0.7657
18679TIP3    H277453   2.705   6.321  11.194  0.7900 -0.8592  0.7761
18680TIP3   OH277454   4.172   5.858   6.547 -0.0467 -0.0061  0.3806
18680TIP3    H177455   4.115   5.932   6.567  1.1103  0.9810  0.1611
18680TIP3    H277456   4.244   5.896   6.497  0.4563 -1.3301  0.0504
18681TIP3   OH277457   0.826   4.396  17.270 -0.1334 -0.5736 -0.1035
18681TIP3    H177458   0.774   4.422  17.346 -0.3845 -1.5058  0.0548
18681TIP3    H277459   0.803   4.460  17.203 -1.2849 -0.8096  0.0458
18682TIP3   OH277460   4.338   5.054  15.063  0.1557 -1.0802 -0.3275
18682TIP3    H177461   4.302   5.133  15.103 -0.1009 -0.5364 -1.6023
18682TIP3    H277462   4.309   4.983  15.121 -1.6111 -0.4904 -0.4308
18683TIP3   OH277463   1.787   4.108   2.910  0.0542  0.0152 -0.3648
18683TIP3    H177464   1.820   4.023   2.939 -1.2655 -0.8697 -1.3092
18683TIP3    H277465   1.725   4.087   2.840 -0.0081  1.7894 -0.9011
18684TIP3   OH277466   4.292   5.518  11.619  0.3089 -0.2002 -0.1362
18684TIP3    H177467   4.272   5.604  11.658  1.3797  0.2801 -0.6226
18684TIP3    H277468   4.385   5.521  11.599  0.3728 -1.5117 -0.1136
18685TIP3   OH277469   1.018   0.705  10.859  0.1686 -0.5725  0.0620
18685TIP3    H177470   0.926   0.713  10.834 -0.0276 -0.0741  0.9269
18685TIP3    H277471   1.026   0.755  10.940  1.2627 -0.3898 -0.1411
18686TIP3   OH277472   6.219   0.684   1.674  0.0795  0.3003  0.2235
18686TIP3    H177473   6.159   0.650   1.608 -1.3475  0.7668  1.2235
18686TIP3    H277474   6.215   0.621   1.746  0.0941  0.7989  0.6682
18687TIP3   OH277475   1.927   5.680   4.171 -0.2815 -0.1073  0.3243
18687TIP3    H177476   1.925   5.680   4.076 -0.4537 -1.5470  0.3021
18687TIP3    H277477   1.981   5.605   4.194  0.8893  1.0045  1.3756
18688TIP3   OH277478   3.594   3.757   1.898 -0.3680 -0.1793 -0.0009
18688TIP3    H177479   3.656   3.698   1.941 -0.5211 -1.8536 -1.9080
18688TIP3    H277480   3.638   3.782   1.817 -0.9203  1.2030  0.1026
18689TIP3   OH277481   1.447   4.700   1.321 -0.3114  0.1984  1.0502
18689TIP3    H177482   1.512   4.694   1.251 -0.7609 -1.5472  0.7162
18689TIP3    H277483   1.432   4.794   1.333  0.2354  0.5587 -0.7700
18690TIP3   OH277484   4.970   0.070   5.117 -0.1058  0.1731  0.1753
18690TIP3    H177485   4.881   0.080   5.149  0.3102 -0.8456  1.7581
18690TIP3    H277486   4.959   0.039   5.027 -1.3094  1.7475 -0.2662
18691TIP3   OH277487   4.365   6.602   1.760  0.3572  0.2307 -0.1194
18691TIP3    H177488   4.313   6.563   1.830  1.4267 -1.5923 -0.2855
18691TIP3    H277489   4.301   6.646   1.705 -0.9418 -1.3186  0.0745
18692TIP3   OH277490   3.906   1.585   2.984 -0.3054 -0.4022 -0.4267
18692TIP3    H177491   3.885   1.554   2.896 -1.3569 -1.5381  0.1977
18692TIP3    H277492   3.932   1.506   3.031  1.2973  0.3512  0.0213
18693TIP3   OH277493   2.160   2.772  10.042 -0.0537  1.1182  0.4063
18693TIP3    H177494   2.116   2.722   9.974 -1.0724  0.8685  1.2214
18693TIP3    H277495   2.110   2.755  10.122  1.3047  1.1255  1.3130
18694TIP3   OH277496   5.172   6.309  11.783 -0.1194 -0.3267 -0.3028
18694TIP3    H177497   5.081   6.280  11.774 -0.0233 -0.9770  0.7068
18694TIP3    H277498   5.222   6.229  11.797  0.1938  0.1949  2.1551
18695TIP3   OH277499   1.786   2.081   4.138  0.0149 -0.3798  0.3034
18695TIP3    H177500   1.866   2.129   4.161  0.6633 -0.7092 -1.1302
18695TIP3    H277501   1.716   2.125   4.187  0.7359  1.3871 -0.1897
18696TIP3   OH277502   0.904   1.224   4.030  0.3055 -0.5783 -0.3196
18696TIP3    H177503   0.896   1.319   4.020 -0.3316 -0.6767 -0.7785
18696TIP3    H277504   0.872   1.188   3.948 -0.6385 -1.2419  0.3185
18697TIP3   OH277505   3.669   2.495  16.915 -0.3285 -0.1648  0.4389
18697TIP3    H177506   3.653   2.430  16.983  1.7137  1.7467  2.9751
18697TIP3    H277507   3.723   2.450  16.851 -1.0998 -1.6419  0.7771
18698TIP3   OH277508   3.052   1.838   3.892  0.2834  0.0322  0.3868
18698TIP3    H177509   3.008   1.917   3.925  1.1636  1.1060 -0.9167
18698TIP3    H277510   3.095   1.801   3.969 -0.6047  0.4921  1.1302
18699TIP3   OH277511   0.206   3.192  11.286 -0.1907  0.3708  0.0681
18699TIP3    H177512   0.152   3.235  11.352 -0.4528 -0.1379  0.1907
18699TIP3    H277513   0.295   3.199  11.319 -0.2749  0.4909  0.2714
18700TIP3   OH277514   5.802   4.572  14.374  0.5162  0.1434  0.0256
18700TIP3    H177515   5.830   4.636  14.308  2.0261 -0.2598  0.2433
18700TIP3    H277516   5.843   4.601  14.455  0.0287 -0.2982  0.4402
18701TIP3   OH277517   2.703   5.999  14.685 -0.3976 -0.4728 -0.3163
18701TIP3    H177518   2.685   5.905  14.686 -0.4392 -0.4590  0.2290
18701TIP3    H277519   2.639   6.036  14.746 -0.1378 -0.1312 -0.2521
18702TIP3   OH277520   2.236   4.416  16.120 -0.0752  0.5755 -0.0718
18702TIP3    H177521   2.260   4.402  16.212  0.8343  0.8681 -0.2504
18702TIP3    H277522   2.156   4.468  16.124 -0.1113  0.4872  0.5524
18703TIP3   OH277523   3.946   0.637  14.019  0.2725  0.3183  0.2942
18703TIP3    H177524   3.909   0.549  14.010  0.5143  0.2512 -0.0401
18703TIP3    H277525   3.888   0.680  14.082  0.4141 -0.2238  0.8114
18704TIP3   OH277526   0.826   3.925  16.853  0.0420 -0.2141 -0.3554
18704TIP3    H177527   0.746   3.873  16.861  0.0671 -0.4142 -1.2845
18704TIP3    H277528   0.861   3.902  16.768 -1.2071  2.9962 -1.9337
18705TIP3   OH277529   1.176   4.233   1.474  0.0339  0.4839  0.4514
18705TIP3    H177530   1.133   4.177   1.539  0.0520 -1.4175 -1.0869
18705TIP3    H277531   1.140   4.320   1.490 -4.1416 -0.8469 -0.4044
18706TIP3   OH277532   4.657   5.844   4.702  0.1593 -0.4175 -0.2776
18706TIP3    H177533   4.700   5.815   4.622 -2.2797 -0.0101 -1.8485
18706TIP3    H277534   4.599   5.771   4.725  0.7241 -0.4711  1.0832
18707TIP3   OH277535   2.593   5.838   2.271  0.1292 -0.7350  0.1519
18707TIP3    H177536   2.637   5.859   2.353 -0.6267 -1.1289  0.6669
18707TIP3    H277537   2.640   5.889   2.205  1.2965 -1.0681  0.6943
18708TIP3   OH277538   0.307   4.519   2.918 -0.1427 -0.1919  0.8030
18708TIP3    H177539   0.355   4.527   2.835  0.3107  1.0624  1.1546
18708TIP3    H277540   0.237   4.457   2.899  0.8260 -1.0544 -0.0996
18709TIP3   OH277541   3.694   2.610  15.024  0.4720 -0.0104 -0.3782
18709TIP3    H177542   3.775   2.564  15.048 -0.5237 -1.1738  0.9499
18709TIP3    H277543   3.684   2.593  14.930  1.4998 -0.2617 -0.4613
18710TIP3   OH277544   6.609   0.456   6.409 -0.3074 -0.0893  0.2480
18710TIP3    H177545   6.578   0.539   6.372 -1.6169 -0.6392  0.0718
18710TIP3    H277546   6.607   0.470   6.504  1.1973  0.6679  0.1882
18711TIP3   OH277547   1.288   6.382  12.876 -0.4106  0.4823 -0.1503
18711TIP3    H177548   1.351   6.371  12.947  0.0470  0.5462 -0.5437
18711TIP3    H277549   1.235   6.302  12.878  0.7813 -0.3556 -0.9019
18712TIP3   OH277550   1.828   2.950  14.795  0.0195 -0.0172  0.3357
18712TIP3    H177551   1.896   2.889  14.766 -1.6919 -0.9885 -1.9432
18712TIP3    H277552   1.858   2.980  14.881  2.5415 -1.5489  0.0963
18713TIP3   OH277553   0.375   4.896   3.753 -0.0330 -0.4730 -0.3054
18713TIP3    H177554   0.402   4.974   3.703  0.3589 -1.0014 -0.9267
18713TIP3    H277555   0.382   4.923   3.845 -2.7017  1.1966 -0.4718
18714TIP3   OH277556   3.748   3.473  10.280  0.0104  0.3666 -0.8818
18714TIP3    H177557   3.713   3.430  10.358  1.6569  0.3824 -0.0961
18714TIP3    H277558   3.674   3.521  10.244 -1.6870 -2.2701 -1.2387
18715TIP3   OH277559   1.766   0.135  13.640  0.1321 -0.1179  0.1214
18715TIP3    H177560   1.789   0.227  13.626 -0.4712  0.3624  2.0084
18715TIP3    H277561   1.722   0.134  13.725  2.6616 -2.5663  1.5750
18716TIP3   OH277562   6.121   3.514  12.761  0.6157 -0.9207 -0.0602
18716TIP3    H177563   6.135   3.491  12.669 -0.3609 -0.7149 -0.2657
18716TIP3    H277564   6.157   3.602  12.769 -0.5413 -0.3801 -0.5951
18717TIP3   OH277565   0.448   4.022   2.094  0.1558 -0.3352  0.3706
18717TIP3    H177566   0.363   4.040   2.053 -0.3508 -1.3125  0.9457
18717TIP3    H277567   0.427   3.965   2.167  1.2921 -0.3533  0.6979
18718TIP3   OH277568   1.118   1.502   2.747 -0.4312  0.5979  0.2655
18718TIP3    H177569   1.149   1.466   2.663 -0.4775 -0.9163  0.8719
18718TIP3    H277570   1.198   1.530   2.791 -0.3897  1.2255 -0.1853
18719TIP3   OH277571   2.834   3.067   1.984  0.4185 -0.0187 -0.6052
18719TIP3    H177572   2.782   3.139   1.949 -1.0880 -1.1092 -0.6911
18719TIP3    H277573   2.869   3.101   2.067 -1.1264  0.4870 -0.1249
18720TIP3   OH277574   3.413   6.604   4.239  0.6205 -0.2212 -0.5884
18720TIP3    H177575   3.495   6.648   4.216  1.0562 -1.8307 -2.4818
18720TIP3    H277576   3.358   6.615   4.161 -0.5755 -0.0610  0.2552
18721TIP3   OH277577   5.543   3.983  11.989 -0.6882 -0.0927 -0.3405
18721TIP3    H177578   5.617   3.999  12.047 -1.6839 -1.4249  1.3945
18721TIP3    H277579   5.472   4.035  12.025 -1.5932 -1.6819  0.3011
18722TIP3   OH277580   4.226   2.278  13.065  0.2615  0.6714  0.0828
18722TIP3    H177581   4.151   2.225  13.039 -0.8448  1.2335  1.9628
18722TIP3    H277582   4.195   2.368  13.058  0.7160  0.9113  1.0106
18723TIP3   OH277583   3.027   4.544   0.201 -0.4576  0.0958  0.0716
18723TIP3    H177584   3.092   4.479   0.175 -0.2233  0.5707 -0.5489
18723TIP3    H277585   2.943   4.502   0.185 -0.3829  0.9171 -3.0762
18724TIP3   OH277586   5.276   5.621  17.067  0.1925 -0.4819  0.6350
18724TIP3    H177587   5.239   5.688  17.124  2.7008  1.0621  0.6170
18724TIP3    H277588   5.226   5.628  16.986 -0.9408 -0.0868  1.3440
18725TIP3   OH277589   5.253   0.286   2.993  0.0951  0.2543  0.3203
18725TIP3    H177590   5.280   0.330   3.073  0.2302  0.7037  0.0318
18725TIP3    H277591   5.178   0.336   2.961  0.2067  0.2378  0.0261
18726TIP3   OH277592   1.939   2.852   2.873 -0.1618 -0.6409 -0.1185
18726TIP3    H177593   1.952   2.857   2.778 -1.8597 -1.2061 -0.4220
18726TIP3    H277594   1.915   2.761   2.889 -0.7286 -0.3564  0.7282
18727TIP3   OH277595   3.032   5.383  14.536 -0.2611 -0.1739  0.6593
18727TIP3    H177596   2.992   5.425  14.613  0.7524  0.6214  0.7743
18727TIP3    H277597   2.967   5.394  14.466 -0.7825 -0.0451  1.1502
18728TIP3   OH277598   6.351   3.775  11.968 -0.3156  0.1751 -0.3122
18728TIP3    H177599   6.352   3.708  11.899 -1.2483  0.3076 -0.4772
18728TIP3    H277600   6.333   3.857  11.920 -1.4718  0.1980  0.1198
18729TIP3   OH277601   3.016   4.365  16.428 -0.0509 -0.2832  0.0854
18729TIP3    H177602   3.065   4.357  16.509 -0.4441 -0.0829  0.3483
18729TIP3    H277603   3.022   4.279  16.386  1.5498  0.0813 -0.4844
18730TIP3   OH277604   3.501   4.319  11.783 -0.2761  0.3506 -0.2754
18730TIP3    H177605   3.553   4.284  11.711  2.0070  1.8854  0.4750
18730TIP3    H277606   3.458   4.396  11.746  2.2616  2.1726  0.2503
18731TIP3   OH277607   2.768   5.564   4.258 -0.4416  0.4468  0.1126
18731TIP3    H177608   2.742   5.482   4.216 -0.5267  0.4331  0.1929
18731TIP3    H277609   2.863   5.560   4.260 -0.4671  0.0920  0.6371
18732TIP3   OH277610   1.218   2.376   2.218  0.3800 -0.0131 -0.1553
18732TIP3    H177611   1.205   2.470   2.230 -2.6497 -0.0075 -2.3195
18732TIP3    H277612   1.271   2.369   2.139  0.6135 -0.1107  0.0113
18733TIP3   OH277613   6.593   3.001  13.990  0.2720 -0.1753  0.4667
18733TIP3    H177614   6.686   3.026  13.989  0.0608  0.6599  0.0135
18733TIP3    H277615   6.593   2.907  14.005  1.2455 -0.3999 -0.7887
18734TIP3   OH277616   4.264   0.443   2.166 -0.0292 -0.2697 -0.2634
18734TIP3    H177617   4.267   0.352   2.197  0.7073 -0.4901 -0.9565
18734TIP3    H277618   4.205   0.487   2.227  0.4641 -0.9612  0.7261
18735TIP3   OH277619   0.828   6.053  11.746 -0.7519  0.2938  0.8838
18735TIP3    H177620   0.753   5.994  11.755  0.9338 -1.8769  1.4619
18735TIP3    H277621   0.877   6.042  11.828  1.1842  0.2162 -0.2351
18736TIP3   OH277622   0.115   6.188   4.722 -1.2324  0.4565  0.1516
18736TIP3    H177623   0.052   6.235   4.777  1.3067  0.9719  2.8985
18736TIP3    H277624   0.100   6.096   4.742 -0.0436  0.6518  2.2334
18737TIP3   OH277625   6.101   3.219  13.470 -0.3068 -0.0527  0.1155
18737TIP3    H177626   6.154   3.144  13.445 -2.3262 -0.7502 -2.4408
18737TIP3    H277627   6.151   3.295  13.441  0.3286 -0.5650 -0.1499
18738TIP3   OH277628   4.539   0.128   3.509  0.2582 -0.1252 -0.3978
18738TIP3    H177629   4.581   0.188   3.447  1.4812  0.9763  1.4167
18738TIP3    H277630   4.576   0.042   3.488  1.8305  0.4743 -0.2282
18739TIP3   OH277631   0.815   4.950   3.595 -0.2211 -0.0835 -0.5460
18739TIP3    H177632   0.815   4.991   3.681 -0.5229  1.2573 -1.1540
18739TIP3    H277633   0.751   4.880   3.602 -0.4942  0.2294  0.2253
18740TIP3   OH277634   0.659   4.834  12.921 -0.0424  0.2542 -0.0397
18740TIP3    H177635   0.644   4.905  12.858 -1.2815  0.3157  0.2879
18740TIP3    H277636   0.748   4.805  12.904 -0.2991  0.3465 -1.7576
18741TIP3   OH277637   3.613   2.427   2.807  0.0367  0.2642  0.1764
18741TIP3    H177638   3.549   2.378   2.756  1.6218 -0.7609 -0.9326
18741TIP3    H277639   3.672   2.465   2.742  1.2040  0.2478  1.1929
18742TIP3   OH277640   2.651   1.311   1.259  0.1196 -0.2701 -0.1873
18742TIP3    H177641   2.564   1.283   1.231  0.4882 -1.0470 -0.5708
18742TIP3    H277642   2.700   1.230   1.271  0.7483  0.1581  0.1798
18743TIP3   OH277643   6.573   4.163  13.489  0.1066 -0.4730  0.4553
18743TIP3    H177644   6.574   4.068  13.476 -2.0580 -0.5613  0.5881
18743TIP3    H277645   6.617   4.198  13.412 -1.3269 -1.5097 -0.8945
18744TIP3   OH277646   5.061   4.140   2.569 -0.2738 -0.2124 -0.0173
18744TIP3    H177647   5.108   4.136   2.486  0.4126  0.4783  0.3278
18744TIP3    H277648   5.110   4.081   2.628 -0.5529 -0.4288  0.0008
18745TIP3   OH277649   5.753   0.126  15.300  0.0474 -0.4883 -0.7443
18745TIP3    H177650   5.664   0.148  15.273 -0.4704 -0.3378  0.9442
18745TIP3    H277651   5.766   0.036  15.272 -1.4652 -1.2574  0.8676
18746TIP3   OH277652   6.153   2.591   2.545 -0.0511  0.1494  0.2026
18746TIP3    H177653   6.214   2.520   2.525 -1.4041 -1.4075  1.4175
18746TIP3    H277654   6.142   2.587   2.640 -0.6438  1.6031  0.2159
18747TIP3   OH277655   6.208   4.025   3.228  0.0084  0.5373 -0.4053
18747TIP3    H177656   6.243   4.070   3.152 -1.1020  0.6667 -0.8517
18747TIP3    H277657   6.168   3.945   3.193  0.2506  0.1655  0.1472
18748TIP3   OH277658   6.465   0.573   1.125  0.1507  0.1502 -0.0991
18748TIP3    H177659   6.506   0.647   1.081 -0.4185 -0.1791 -1.2309
18748TIP3    H277660   6.391   0.550   1.069  0.2743 -1.2365  0.2644
18749TIP3   OH277661   3.364   1.533  13.812 -0.4365  0.4784  0.0476
18749TIP3    H177662   3.435   1.525  13.749 -0.6277 -0.9064 -0.0240
18749TIP3    H277663   3.318   1.612  13.786 -0.1138  0.2961 -1.1507
18750TIP3   OH277664   0.591   6.700  17.075 -0.1619  0.1278 -0.6329
18750TIP3    H177665   0.575   6.728  17.166  1.0930  0.3529 -0.4535
18750TIP3    H277666   0.506   6.671  17.043 -0.8624  1.0948  0.2581
18751TIP3   OH277667   6.324   6.650   3.570  0.0104  0.5151  0.1583
18751TIP3    H177668   6.338   6.714   3.640 -1.4148 -0.4998  1.4205
18751TIP3    H277669   6.247   6.682   3.523 -0.0546  0.2861  0.1098
18752TIP3   OH277670   2.478   4.406   3.052 -0.2639 -0.1875  0.1121
18752TIP3    H177671   2.499   4.345   3.122  1.6642  0.6063  0.3016
18752TIP3    H277672   2.515   4.366   2.973 -2.3465 -1.0373 -0.4697
18753TIP3   OH277673   1.206   2.091   3.120 -0.4361  0.3643  0.1585
18753TIP3    H177674   1.116   2.075   3.092 -0.5934 -0.9154  1.2446
18753TIP3    H277675   1.206   2.069   3.214  0.4908  2.5917  0.7355
18754TIP3   OH277676   1.184   4.470   2.784 -0.5372 -0.2199 -0.4421
18754TIP3    H177677   1.226   4.506   2.706 -1.0758  1.2144 -0.0967
18754TIP3    H277678   1.204   4.533   2.853 -1.3070 -0.7144  0.2430
18755TIP3   OH277679   1.416   1.207   4.084  0.7916 -0.2054  0.3141
18755TIP3    H177680   1.432   1.237   4.174  0.6785 -1.3020  0.7090
18755TIP3    H277681   1.356   1.272   4.048  0.5971  0.0797  1.1327
18756TIP3   OH277682   2.130   3.423  11.664 -0.6471  0.5609  0.0981
18756TIP3    H177683   2.173   3.340  11.687 -1.3560  0.4385  1.0571
18756TIP3    H277684   2.154   3.438  11.573  1.8039  0.7542  0.7154
18757TIP3   OH277685   2.321   3.449  13.763 -0.0380 -0.2053  0.3779
18757TIP3    H177686   2.236   3.489  13.780 -0.1447  0.8852 -2.3234
18757TIP3    H277687   2.381   3.522  13.750  0.6475 -0.9236 -0.7030
18758TIP3   OH277688   4.069   1.522  12.805  0.2140 -0.6450  0.7127
18758TIP3    H177689   4.106   1.549  12.889  1.5183  1.2303 -0.4174
18758TIP3    H277690   4.018   1.597  12.775  1.0290 -0.6914 -0.8867
18759TIP3   OH277691   4.618   5.471  16.594  0.0198 -0.0247  0.0266
18759TIP3    H177692   4.540   5.441  16.547  0.3446 -1.7075  0.4819
18759TIP3    H277693   4.689   5.418  16.558  0.8008  0.8369  0.2738
18760TIP3   OH277694   4.724   4.720  12.198 -0.1335 -0.2289 -0.1160
18760TIP3    H177695   4.716   4.702  12.292  1.0660 -1.6717 -0.2372
18760TIP3    H277696   4.758   4.638  12.161  0.0231  0.5125 -1.7110
18761TIP3   OH277697   0.548   4.304   3.604 -0.5046  0.2675 -0.1204
18761TIP3    H177698   0.641   4.294   3.627 -0.5593  0.2875  0.1158
18761TIP3    H277699   0.508   4.342   3.683 -0.9305 -0.8354  0.2052
18762TIP3   OH277700   4.068   6.489   5.173 -0.3894  0.1281  0.1587
18762TIP3    H177701   3.997   6.511   5.113  0.7477  0.2829 -1.1851
18762TIP3    H277702   4.044   6.530   5.256 -1.4405  0.9101 -0.5160
18763TIP3   OH277703   5.486   4.454   3.924  0.1599 -0.4035  0.3862
18763TIP3    H177704   5.518   4.530   3.972 -0.2418 -1.0186  1.6650
18763TIP3    H277705   5.413   4.421   3.977 -0.5514 -0.8875 -0.8465
18764TIP3   OH277706   4.799   2.604  13.983  0.4230  0.1390 -0.0122
18764TIP3    H177707   4.750   2.663  14.041  0.3429 -0.0193  0.0825
18764TIP3    H277708   4.861   2.661  13.937  1.1793  0.1353  0.9591
18765TIP3   OH277709   5.970   2.370  12.786  0.0959  0.4156  0.6321
18765TIP3    H177710   5.875   2.362  12.786  0.1937 -0.9251  0.5274
18765TIP3    H277711   6.002   2.280  12.795  1.3539  0.8064  0.2867
18766TIP3   OH277712   0.394   3.466   2.699  0.2077 -0.0923  0.7559
18766TIP3    H177713   0.400   3.402   2.770 -0.1526 -2.3121 -1.1064
18766TIP3    H277714   0.485   3.485   2.676  0.4371 -2.8309 -1.0420
18767TIP3   OH277715   2.262   2.680  13.618 -0.0083  0.1935 -0.0524
18767TIP3    H177716   2.263   2.770  13.584  0.4538  0.1224 -0.2370
18767TIP3    H277717   2.263   2.691  13.713 -1.4541  0.3963 -0.0270
18768TIP3   OH277718   0.431   0.226   1.023  0.0234 -0.1978  0.3631
18768TIP3    H177719   0.486   0.208   0.947  1.7201 -0.6062  1.6485
18768TIP3    H277720   0.354   0.169   1.010  0.6370 -0.8354 -0.6470
18769TIP3   OH277721   3.658   1.036   1.734  0.3895  0.5481  0.5748
18769TIP3    H177722   3.716   1.101   1.696 -1.1145  1.0474 -1.0084
18769TIP3    H277723   3.711   0.991   1.799  2.6149  0.7538 -1.0055
18770TIP3   OH277724   5.135   0.678  16.388 -0.3263  0.1781  0.3010
18770TIP3    H177725   5.159   0.593  16.424 -1.3407 -0.7549 -1.1019
18770TIP3    H277726   5.041   0.672  16.372 -0.1173  0.9031 -1.4640
18771TIP3   OH277727   5.559   4.028  14.534  0.8046 -0.8284 -0.2599
18771TIP3    H177728   5.640   4.001  14.490  1.0473 -0.9940  0.2883
18771TIP3    H277729   5.585   4.046  14.624  0.5439  0.7237 -0.4734
18772TIP3   OH277730   0.574   3.197  11.870  0.0885  0.8645 -0.3486
18772TIP3    H177731   0.575   3.248  11.789 -1.5867 -1.2940 -1.8812
18772TIP3    H277732   0.569   3.262  11.940 -1.7194  2.8253 -2.1366
18773TIP3   OH277733   4.435   5.216  17.019  0.0988 -0.3836  0.2384
18773TIP3    H177734   4.489   5.144  17.054 -0.4300 -0.4292  0.9850
18773TIP3    H277735   4.434   5.281  17.089  1.2959  0.7731 -0.7553
18774TIP3   OH277736   6.320   4.151  11.300 -0.4777 -0.2849  0.1540
18774TIP3    H177737   6.294   4.156  11.392 -3.2123 -1.0813 -0.4880
18774TIP3    H277738   6.246   4.188  11.252 -0.1288 -1.9899 -1.8347
18775TIP3   OH277739   0.303   3.885  16.108 -0.1349  0.7411  0.1836
18775TIP3    H177740   0.376   3.840  16.065  1.3002  2.7327  0.3877
18775TIP3    H277741   0.228   3.869  16.051  0.3291 -1.6650  0.1502
18776TIP3   OH277742   5.662   5.919   1.048 -0.3123 -0.0357  0.0582
18776TIP3    H177743   5.690   5.959   1.131 -2.1852 -0.3947  0.9032
18776TIP3    H277744   5.608   5.844   1.074 -0.8288 -0.2393 -1.4990
18777TIP3   OH277745   3.421   3.374  12.777  0.2272  0.0436  0.8836
18777TIP3    H177746   3.368   3.430  12.834  2.2217  2.5345  0.4987
18777TIP3    H277747   3.498   3.351  12.829  0.1866 -1.0229  0.4970
18778TIP3   OH277748   6.447   3.549  12.257 -0.3407 -0.1568  0.3857
18778TIP3    H177749   6.454   3.602  12.336  0.9059 -0.2831  0.3803
18778TIP3    H277750   6.514   3.585  12.198 -1.1208 -0.1895 -0.5439
18779TIP3   OH277751   0.292   2.861  11.922 -0.4846  0.2246 -0.2215
18779TIP3    H177752   0.304   2.806  11.844  3.3390 -0.4669  0.6447
18779TIP3    H277753   0.222   2.818  11.972 -0.0864 -1.7584 -1.2908
18780TIP3   OH277754   3.684   2.870  15.630 -0.4603 -0.2511  0.8707
18780TIP3    H177755   3.679   2.876  15.725  1.2962 -0.8219  1.0307
18780TIP3    H277756   3.730   2.949  15.603 -1.0512 -0.0355  0.4726
18781TIP3   OH277757   4.465   1.350   2.870  0.0877 -0.7468 -0.0628
18781TIP3    H177758   4.519   1.314   2.800  0.4582 -0.6196  0.1551
18781TIP3    H277759   4.489   1.443   2.874 -0.0955 -0.7035  0.0803
18782TIP3   OH277760   2.379   3.106  14.060  0.2352 -0.0669  0.1984
18782TIP3    H177761   2.423   3.057  13.991 -0.6343 -2.2059  1.0833
18782TIP3    H277762   2.296   3.061  14.073 -0.2108  1.0833  1.7253
18783TIP3   OH277763   1.174   5.590  14.258 -0.2481 -0.4368 -0.2603
18783TIP3    H177764   1.136   5.515  14.212  0.1553 -0.2357 -0.9418
18783TIP3    H277765   1.124   5.666  14.227 -1.4835 -0.5330  1.3579
18784TIP3   OH277766   3.895   4.993  13.565  0.2157 -0.7584 -0.0090
18784TIP3    H177767   3.855   5.071  13.527  0.6672  0.5365  2.0132
18784TIP3    H277768   3.828   4.960  13.625  0.5403 -1.1464  0.1385
18785TIP3   OH277769   0.779   1.724   0.233 -0.4093  0.5573 -0.2140
18785TIP3    H177770   0.690   1.691   0.248  0.0646 -0.3296  0.7174
18785TIP3    H277771   0.777   1.814   0.266 -0.2665 -0.3144  2.3866
18786TIP3   OH277772   0.069   5.813   1.896  0.4618  0.0246  0.4621
18786TIP3    H177773   0.154   5.775   1.919 -0.3234 -0.8488  2.0754
18786TIP3    H277774   0.074   5.904   1.925  0.2908 -0.4665  2.1497
18787TIP3   OH277775   4.583   0.548  17.249  0.0734  0.1571  0.1675
18787TIP3    H177776   4.628   0.610  17.191  0.7855  0.2800  0.8270
18787TIP3    H277777   4.497   0.536  17.210 -0.8793  3.1446  1.0469
18788TIP3   OH277778   0.541   4.908   2.611  0.2419 -0.2021  0.0468
18788TIP3    H177779   0.594   4.829   2.614  0.4027 -0.0688  0.8521
18788TIP3    H277780   0.479   4.898   2.683 -0.3937 -0.0528 -0.4686
18789TIP3   OH277781   6.224   5.685   1.628  0.1233  0.2383  0.0121
18789TIP3    H177782   6.217   5.751   1.559 -1.1636 -1.0671 -1.1954
18789TIP3    H277783   6.318   5.668   1.636  0.6074  2.9432  1.1745
18790TIP3   OH277784   4.581   4.717   2.288  0.0228 -0.0169 -0.2467
18790TIP3    H177785   4.525   4.658   2.239  0.5565 -1.4772  0.8173
18790TIP3    H277786   4.587   4.795   2.234 -4.3256  0.9447  0.2859
18791TIP3   OH277787   3.480   1.838  11.024  0.3803 -0.0404  0.2643
18791TIP3    H177788   3.491   1.927  11.059  1.4054 -1.2613  3.3673
18791TIP3    H277789   3.385   1.824  11.024  0.2829  0.1992  2.3799
18792TIP3   OH277790   1.901   0.332  14.856 -0.1379  0.2416 -0.3174
18792TIP3    H177791   1.841   0.404  14.838 -1.2039 -0.5855 -0.1437
18792TIP3    H277792   1.850   0.253  14.840  0.7709 -0.4855  0.2643
18793TIP3   OH277793   4.533   4.908  16.211 -0.0131  0.1801 -0.8605
18793TIP3    H177794   4.563   4.938  16.297 -2.5031  0.3314  0.0401
18793TIP3    H277795   4.591   4.835  16.190  3.0330  2.4085 -0.8453
18794TIP3   OH277796   3.253   4.057   5.706  0.1252  0.3823  0.3838
18794TIP3    H177797   3.330   4.066   5.650  0.7375 -1.0791  0.9192
18794TIP3    H277798   3.244   4.142   5.749  1.7687  0.4298  0.7065
18795TIP3   OH277799   2.169   0.558   1.088  0.1005 -0.8052 -0.0873
18795TIP3    H177800   2.083   0.586   1.121 -0.3432  0.6947 -2.2832
18795TIP3    H277801   2.208   0.638   1.053  1.9933 -1.6571 -0.0270
18796TIP3   OH277802   1.558   3.032  14.214  0.7179 -0.2802  0.0555
18796TIP3    H177803   1.581   3.118  14.178  0.3314 -0.6342 -1.0828
18796TIP3    H277804   1.562   3.044  14.309  0.0887  1.1435 -0.0759
18797TIP3   OH277805   2.691   4.642   3.171 -0.1464 -0.1663  0.4042
18797TIP3    H177806   2.750   4.621   3.098  0.0347  1.1286  0.1467
18797TIP3    H277807   2.735   4.608   3.248  0.6952  0.2997  0.1459
18798TIP3   OH277808   4.539   1.380  12.184 -0.1316  0.0114  0.4849
18798TIP3    H177809   4.517   1.298  12.229  3.4299 -0.8616  0.9472
18798TIP3    H277810   4.591   1.429  12.247  0.0170  1.4587 -0.6982
18799TIP3   OH277811   0.704   6.550  14.186 -0.2774 -0.0001  0.1215
18799TIP3    H177812   0.643   6.486  14.223  0.5688  0.6399  2.9152
18799TIP3    H277813   0.734   6.510  14.104 -1.8405 -1.8688  0.3657
18800TIP3   OH277814   1.520   3.367   3.049  0.4108  0.0861  0.1762
18800TIP3    H177815   1.526   3.278   3.013  2.7248 -0.2601  1.2139
18800TIP3    H277816   1.611   3.391   3.068 -0.2358  2.3753  0.6860
18801TIP3   OH277817   4.800   6.248  14.883 -0.4344  0.2640  0.0657
18801TIP3    H177818   4.804   6.250  14.787  0.9301 -0.2819  0.0854
18801TIP3    H277819   4.861   6.178  14.908 -1.4122 -0.1837  1.3073
18802TIP3   OH277820   3.503   6.304  12.902 -0.4762  0.7271 -0.7355
18802TIP3    H177821   3.541   6.375  12.954 -0.7309  0.9036 -0.7909
18802TIP3    H277822   3.412   6.299  12.931  0.2160 -1.5825  1.5005
18803TIP3   OH277823   4.168   3.414  13.520  0.1503  0.4777  0.6414
18803TIP3    H177824   4.172   3.356  13.445  1.0689  2.4304 -0.9224
18803TIP3    H277825   4.258   3.443  13.534 -0.3696  2.1878  0.7461
18804TIP3   OH277826   3.001   6.571  14.398 -0.0005  0.4985 -0.2376
18804TIP3    H177827   3.069   6.634  14.423  1.0373 -1.0422  1.0745
18804TIP3    H277828   3.040   6.523  14.325 -0.1798  0.4200 -0.2805
18805TIP3   OH277829   2.808   0.519   3.615  0.0757 -0.3732  0.0420
18805TIP3    H177830   2.751   0.572   3.560 -1.3192 -2.0826 -0.2637
18805TIP3    H277831   2.891   0.516   3.567 -0.3858  0.0745 -0.8105
18806TIP3   OH277832   0.171   5.901   1.548 -0.5569 -0.5178 -1.0591
18806TIP3    H177833   0.122   5.971   1.506  0.0314 -0.7396 -2.1420
18806TIP3    H277834   0.176   5.927   1.640  2.3940  2.5836 -1.8876
18807TIP3   OH277835   2.417   5.177  14.878  0.3346 -0.1599  0.3403
18807TIP3    H177836   2.427   5.266  14.846 -1.1840  0.1204  0.5646
18807TIP3    H277837   2.471   5.123  14.820 -0.2897  0.6598 -1.0429
18808TIP3   OH277838   1.250   4.193   0.153  0.4313 -0.0598  0.3257
18808TIP3    H177839   1.301   4.272   0.167 -0.5523  0.5717  0.4746
18808TIP3    H277840   1.171   4.223   0.109  0.3308 -1.0555 -0.2043
18809TIP3   OH277841   6.487   0.598   1.471  0.1065  0.2068 -0.2237
18809TIP3    H177842   6.505   0.625   1.381 -0.3661 -1.0425 -0.7171
18809TIP3    H277843   6.422   0.529   1.463  0.3384 -0.1931  1.0554
18810TIP3   OH277844   1.288   4.281  12.968  0.1549  0.5378  0.1868
18810TIP3    H177845   1.362   4.339  12.984  1.6734 -0.7334 -1.7494
18810TIP3    H277846   1.252   4.310  12.884 -1.0990  0.6545  0.7326
18811TIP3   OH277847   2.993   0.095   1.809 -0.0546  0.0382 -0.0311
18811TIP3    H177848   3.037   0.011   1.798 -0.3208  0.1060 -1.7902
18811TIP3    H277849   2.900   0.076   1.795 -0.1870  0.5148  0.1729
18812TIP3   OH277850   4.510   4.048   4.075 -0.0401 -0.2736 -0.5656
18812TIP3    H177851   4.597   4.048   4.112  0.7107  0.1974 -2.2200
18812TIP3    H277852   4.514   3.982   4.005 -1.0919 -0.4605 -0.4695
18813TIP3   OH277853   6.330   5.706  14.459 -0.1186 -0.4728 -0.3617
18813TIP3    H177854   6.265   5.736  14.395  0.6288  0.5955 -0.6582
18813TIP3    H277855   6.284   5.710  14.543 -0.4624  0.1991 -0.5718
18814TIP3   OH277856   3.221   5.182   1.104  0.5200 -0.1740  0.3442
18814TIP3    H177857   3.186   5.115   1.046  0.7892  0.1077 -0.1489
18814TIP3    H277858   3.144   5.233   1.130  0.6561  1.1484 -1.6438
18815TIP3   OH277859   0.976   1.720   2.821 -0.3661  0.3261  0.1393
18815TIP3    H177860   0.983   1.707   2.916  1.1536 -0.1845 -0.0140
18815TIP3    H277861   1.020   1.644   2.783  0.9183  1.5472 -0.9323
18816TIP3   OH277862   6.414   3.098   5.603  0.2837 -0.2684  0.1736
18816TIP3    H177863   6.417   3.158   5.677  2.2472 -1.0037  0.7401
18816TIP3    H277864   6.460   3.145   5.533 -0.7843  0.0575 -0.3323
18817TIP3   OH277865   5.124   3.791  13.981 -0.0958  0.2862 -0.3044
18817TIP3    H177866   5.157   3.766  13.895  0.5683 -0.5060  0.1732
18817TIP3    H277867   5.200   3.825  14.027 -0.5386  1.1151 -0.1699
18818TIP3   OH277868   6.077   5.121   2.028  0.0911 -0.1775  0.0963
18818TIP3    H177869   5.997   5.071   2.015  0.4816 -1.0842  1.0114
18818TIP3    H277870   6.099   5.154   1.941 -1.7408  0.8619 -0.0193
18819TIP3   OH277871   2.051   1.529   3.040 -0.4875 -0.0659 -0.3746
18819TIP3    H177872   2.004   1.608   3.012 -1.6128 -0.8629 -0.7754
18819TIP3    H277873   2.077   1.487   2.958 -0.7314 -0.6063 -0.1745
18820TIP3   OH277874   5.465   6.624  14.479 -0.4586  0.2910  0.8849
18820TIP3    H177875   5.396   6.691  14.483  0.8723  1.7172  0.7702
18820TIP3    H277876   5.449   6.578  14.397 -1.0342  0.8704  0.6596
18821TIP3   OH277877   4.146   4.714  14.648 -0.2062  0.1723  0.2870
18821TIP3    H177878   4.144   4.661  14.568 -0.8106  2.7286 -1.5323
18821TIP3    H277879   4.055   4.714  14.679 -0.2703  0.3838  0.1025
18822TIP3   OH277880   3.018   5.769  12.563 -0.5264 -0.1655  0.0144
18822TIP3    H177881   2.987   5.788  12.652  1.6113  0.6136  0.6747
18822TIP3    H277882   3.018   5.854  12.519 -1.7569 -0.5788 -0.8258
18823TIP3   OH277883   2.265   2.600   4.256 -0.3766  0.1193  0.2325
18823TIP3    H177884   2.292   2.604   4.164 -0.7248  0.5764  0.1488
18823TIP3    H277885   2.347   2.586   4.304  0.1554  2.3095  0.0590
18824TIP3   OH277886   2.647   2.552  11.212 -0.5436 -0.1529  0.1039
18824TIP3    H177887   2.581   2.553  11.143 -0.5745 -0.0755  0.1346
18824TIP3    H277888   2.656   2.644  11.237  0.6741  0.0267 -0.9317
18825TIP3   OH277889   4.426   5.737   5.401  0.6351 -0.6879  0.2038
18825TIP3    H177890   4.352   5.679   5.388 -1.0231  1.3510  0.0121
18825TIP3    H277891   4.410   5.778   5.486  0.9550  0.5561 -0.3071
18826TIP3   OH277892   0.406   5.451   2.143  0.2951  0.3414  0.0696
18826TIP3    H177893   0.408   5.434   2.237  1.3739 -0.7736 -0.1308
18826TIP3    H277894   0.374   5.369   2.105 -2.0391  1.4175 -0.4360
18827TIP3   OH277895   4.750   2.160  12.512 -0.8371  0.5771 -0.5787
18827TIP3    H177896   4.686   2.224  12.545 -0.4576  1.0368 -0.7265
18827TIP3    H277897   4.829   2.177  12.563 -0.4241  0.9094 -1.3226
18828TIP3   OH277898   0.637   0.392  13.210  0.4091  0.4511 -0.3285
18828TIP3    H177899   0.705   0.331  13.238  0.2957  1.7212  3.2288
18828TIP3    H277900   0.681   0.450  13.147  1.1247 -1.7695 -1.9840
18829TIP3   OH277901   2.504   0.945  16.881 -0.8315  0.1470  0.0104
18829TIP3    H177902   2.573   0.920  16.943  1.4387  2.0958 -1.5360
18829TIP3    H277903   2.445   1.000  16.931  0.4294  0.9037  0.7195
18830TIP3   OH277904   5.413   3.860   5.612  0.2953  0.5558  0.3456
18830TIP3    H177905   5.378   3.936   5.659  0.3665  0.4984  0.4886
18830TIP3    H277906   5.357   3.787   5.639 -0.8649  0.8632 -1.0809
18831TIP3   OH277907   5.884   3.370  13.740 -0.1652 -0.2605 -0.1181
18831TIP3    H177908   5.927   3.421  13.808 -1.6238  0.4004  0.3452
18831TIP3    H277909   5.907   3.279  13.760 -0.9707 -0.1215  1.5677
18832TIP3   OH277910   4.634   4.301  11.274 -0.0025  0.2934  0.4565
18832TIP3    H177911   4.644   4.267  11.185 -0.2895  0.3953  0.3866
18832TIP3    H277912   4.658   4.393  11.266  0.0996  0.2718  0.5117
18833TIP3   OH277913   2.579   0.201  16.211  0.3682  0.5739 -0.6126
18833TIP3    H177914   2.596   0.261  16.284 -3.2924  0.9956  0.0465
18833TIP3    H277915   2.491   0.222  16.181 -0.5640 -3.4484 -1.3427
18834TIP3   OH277916   5.657   2.343  15.116  0.2116 -0.0263 -0.4633
18834TIP3    H177917   5.667   2.430  15.077  0.6645 -0.6526 -1.7902
18834TIP3    H277918   5.726   2.338  15.182 -1.5848  1.6699  1.7348
18835TIP3   OH277919   5.205   1.402   0.380  0.1174  0.3134 -0.4577
18835TIP3    H177920   5.137   1.355   0.332  1.1975 -0.9915 -0.7826
18835TIP3    H277921   5.232   1.340   0.448 -0.3158  1.5413  0.8864
18836TIP3   OH277922   6.317   4.008   4.716 -0.2802  0.6084 -0.3107
18836TIP3    H177923   6.242   3.958   4.749 -0.4043  0.8154 -0.2797
18836TIP3    H277924   6.279   4.080   4.667 -0.0947  0.3395 -0.8549
18837TIP3   OH277925   2.922   2.682  12.191  0.6289  0.1642 -0.2776
18837TIP3    H177926   2.858   2.745  12.225  1.1204  0.2587  0.4874
18837TIP3    H277927   2.891   2.662  12.102 -1.1127 -0.6627  0.4731
18838TIP3   OH277928   1.006   2.090  11.687 -0.6199  0.3938  0.1567
18838TIP3    H177929   1.041   2.123  11.770 -1.0788  2.6277 -0.4757
18838TIP3    H277930   0.960   2.165  11.649 -1.4939 -0.9396 -1.5406
18839TIP3   OH277931   0.738   0.004  13.622  0.8524  0.4986  0.3793
18839TIP3    H177932   0.813   0.026  13.568  0.7882 -1.1288 -0.4169
18839TIP3    H277933   0.731  -0.091  13.617 -1.4964  0.6107  0.0683
18840TIP3   OH277934   4.764   1.040  10.422 -0.4331 -0.2944 -0.4301
18840TIP3    H177935   4.789   0.983  10.349 -1.3478 -0.7053 -0.4356
18840TIP3    H277936   4.670   1.027  10.431 -0.6272  1.0821 -0.3072
18841TIP3   OH277937   4.321   5.051   2.882  0.1594  0.2365 -0.2195
18841TIP3    H177938   4.346   5.094   2.800  2.4421  0.5394  0.5669
18841TIP3    H277939   4.397   5.063   2.939 -0.8537 -1.1252  1.4966
18842TIP3   OH277940   6.607   0.149  17.067  0.0670 -0.2176  0.2502
18842TIP3    H177941   6.663   0.129  17.143  0.9164 -4.0927 -1.1361
18842TIP3    H277942   6.553   0.070  17.056 -1.5917  1.1095 -1.9106
18843TIP3   OH277943   4.558   3.208  15.962 -0.2945  0.2213  0.0366
18843TIP3    H177944   4.582   3.124  16.003  1.3353 -0.3271 -1.8817
18843TIP3    H277945   4.476   3.190  15.918 -0.2305 -0.2200  0.0877
18844TIP3   OH277946   1.073   4.511   4.742 -0.2276  0.2788 -0.2917
18844TIP3    H177947   1.017   4.499   4.818 -3.0496 -0.3273 -2.3006
18844TIP3    H277948   1.079   4.606   4.732  0.0874  0.3596  0.6091
18845TIP3   OH277949   0.443   1.053  12.369  0.3737  0.0572  0.4614
18845TIP3    H177950   0.429   1.146  12.350 -0.7213  0.0709  1.2710
18845TIP3    H277951   0.441   1.010  12.283  2.8650  0.9712 -0.1565
18846TIP3   OH277952   3.400   2.952   5.315 -0.2362 -0.2626  0.3376
18846TIP3    H177953   3.357   2.880   5.362 -1.5389  0.3381  0.1043
18846TIP3    H277954   3.338   3.025   5.322 -0.2140  0.0088 -1.8150
18847TIP3   OH277955   3.962   3.141  17.409  0.3285 -0.7982  0.4190
18847TIP3    H177956   3.874   3.113  17.385 -0.7605  1.2584  1.6768
18847TIP3    H277957   3.986   3.085  17.483  0.2399 -1.5729 -0.1266
18848TIP3   OH277958   4.615   4.431  16.248 -0.7344 -0.3475  0.4529
18848TIP3    H177959   4.601   4.504  16.308 -0.9643  0.1460 -0.1810
18848TIP3    H277960   4.577   4.461  16.165  2.0245  0.1067 -0.7391
18849TIP3   OH277961   3.796   5.160   3.372  0.1468  0.0079  0.2999
18849TIP3    H177962   3.873   5.127   3.418  1.5077  1.3719 -0.8981
18849TIP3    H277963   3.792   5.253   3.396 -0.3479  0.2501 -0.6859
18850TIP3   OH277964   1.473   2.862  14.006 -0.7099 -0.1323 -0.1405
18850TIP3    H177965   1.452   2.923  13.936 -1.6881 -1.5083 -1.0942
18850TIP3    H277966   1.480   2.916  14.085  2.1804  1.7457 -1.5078
18851TIP3   OH277967   0.002   6.252   5.405 -0.0386  0.1321 -0.2788
18851TIP3    H177968   0.093   6.223   5.403 -0.7783 -2.5202  0.0639
18851TIP3    H277969  -0.010   6.299   5.323  2.0551  2.2296  0.4893
18852TIP3   OH277970   0.917   5.987   6.297  0.1631 -0.0771 -0.2064
18852TIP3    H177971   0.847   5.952   6.353 -0.2393 -1.3989 -1.4571
18852TIP3    H277972   0.997   5.967   6.345 -0.2217 -0.0919  0.4546
18853TIP3   OH277973   1.271   3.195  16.260  0.5653 -0.3295  0.0067
18853TIP3    H177974   1.194   3.167  16.309  0.9078  0.8440  1.2936
18853TIP3    H277975   1.240   3.269  16.207  0.7108 -0.0930  0.2466
18854TIP3   OH277976   6.452   3.523  12.710  0.2906 -0.2173  0.0474
18854TIP3    H177977   6.391   3.541  12.639 -0.7136  1.1598  1.1870
18854TIP3    H277978   6.538   3.529  12.670 -0.1442  2.8147 -0.6585
18855TIP3   OH277979   6.137   2.197   2.427 -0.4950  0.0994 -0.7068
18855TIP3    H177980   6.136   2.119   2.482  0.9926  1.0229  0.7638
18855TIP3    H277981   6.053   2.240   2.445  0.6258  1.2828  2.3861
18856TIP3   OH277982   3.585   5.129  11.249  0.6931  0.8288  0.3556
18856TIP3    H177983   3.561   5.187  11.177 -2.4729  0.5104  0.9971
18856TIP3    H277984   3.563   5.041  11.217 -0.6276  0.6675  1.5826
18857TIP3   OH277985   1.517   6.098   4.358 -0.2258 -0.3830  0.0336
18857TIP3    H177986   1.592   6.048   4.327  0.3942  0.6881 -0.2402
18857TIP3    H277987   1.554   6.182   4.388 -0.9698 -0.8185  2.3699
18858TIP3   OH277988   1.350   4.258   5.199 -0.6048  0.4183 -0.2546
18858TIP3    H177989   1.331   4.177   5.151 -0.0241  0.2943 -0.2845
18858TIP3    H277990   1.421   4.299   5.149 -0.2661  0.4873  0.2770
18859TIP3   OH277991   3.370   5.953   4.046 -0.0653  0.2112  0.2324
18859TIP3    H177992   3.370   5.919   3.957  1.4505 -1.2173  0.7339
18859TIP3    H277993   3.320   5.889   4.097  0.5270  0.1244  0.7120
18860TIP3   OH277994   3.211   3.742  17.290 -0.4133 -0.0728  0.3861
18860TIP3    H177995   3.175   3.670  17.239  0.0256  0.0725 -0.1332
18860TIP3    H277996   3.226   3.812  17.227  0.2505  0.0651  0.6868
18861TIP3   OH277997   5.432   4.184  10.853 -0.6913 -0.5124  0.7346
18861TIP3    H177998   5.515   4.206  10.811 -0.1683 -2.5440  0.6089
18861TIP3    H277999   5.405   4.265  10.897  0.2309  0.8213 -1.0172
18862TIP3   OH278000   2.526   2.445  12.703 -0.6116 -0.5279 -0.0416
18862TIP3    H178001   2.505   2.534  12.673 -0.5103 -1.2481 -2.4611
18862TIP3    H278002   2.593   2.415  12.642  2.6556 -0.7693  3.3750
18863TIP3   OH278003   4.827   3.140  16.704 -0.1528  0.5592  0.3020
18863TIP3    H178004   4.737   3.171  16.716  0.1857  1.4812  0.5437
18863TIP3    H278005   4.875   3.217  16.673  0.4965  0.0011 -0.1185
18864TIP3   OH278006   3.905   1.885  16.673 -0.0047 -0.8377 -0.3585
18864TIP3    H178007   3.955   1.809  16.646  0.9093 -0.6595  0.7452
18864TIP3    H278008   3.826   1.849  16.714 -0.3590 -1.1378 -1.2838
18865TIP3   OH278009   2.095   0.296   4.510 -0.6603 -0.1883  0.0366
18865TIP3    H178010   2.090   0.217   4.563  0.3045 -1.4030 -1.6117
18865TIP3    H278011   2.018   0.347   4.536  0.2514 -0.1965  3.2987
18866TIP3   OH278012   4.007   0.711   0.029 -0.1492 -0.2287  0.0488
18866TIP3    H178013   4.036   0.799   0.056 -0.1370  0.6740 -2.6214
18866TIP3    H278014   4.088   0.661   0.020  0.2650  0.7699 -2.4123
18867TIP3   OH278015   1.067   4.009   6.573  0.4811 -0.2094 -0.0534
18867TIP3    H178016   1.097   4.096   6.598  1.7078 -0.5555 -0.2529
18867TIP3    H278017   1.119   3.987   6.496 -0.2662 -0.8643 -0.3831
18868TIP3   OH278018   3.617   2.843  14.145  0.4878 -0.5248 -0.0961
18868TIP3    H178019   3.567   2.762  14.141  0.2090 -0.4276  1.1005
18868TIP3    H278020   3.552   2.911  14.161  0.9756 -0.3780  1.3577
18869TIP3   OH278021   0.359   3.191  15.727  0.0005  0.3177 -0.2044
18869TIP3    H178022   0.327   3.195  15.637  0.7964  0.5170 -0.4893
18869TIP3    H278023   0.424   3.121  15.727  0.6358  0.8930 -0.0006
18870TIP3   OH278024   2.086   2.633  12.423  0.2536 -0.0594  0.0189
18870TIP3    H178025   2.078   2.671  12.511 -0.3721  0.1693 -0.1304
18870TIP3    H278026   2.002   2.589  12.408  0.7943 -1.1113 -0.0062
18871TIP3   OH278027   2.012   0.506   0.658  0.0299  0.0415  0.3076
18871TIP3    H178028   2.100   0.511   0.622  0.3160 -0.5246  0.9145
18871TIP3    H278029   1.967   0.442   0.602  0.0244  0.2753  0.0437
18872TIP3   OH278030   4.588   6.230  16.858  0.0361 -0.3869 -0.2827
18872TIP3    H178031   4.641   6.181  16.795 -0.9583 -1.2719 -0.4627
18872TIP3    H278032   4.505   6.246  16.813 -0.2907 -0.0726  0.4106
18873TIP3   OH278033   6.415   4.390  12.775 -0.3307 -0.1984  0.1233
18873TIP3    H178034   6.506   4.386  12.746  0.2604  2.1385  1.4536
18873TIP3    H278035   6.371   4.446  12.711 -0.7998 -1.0376 -0.3180
18874TIP3   OH278036   1.167   2.931   0.005  0.0890 -0.5564 -0.1980
18874TIP3    H178037   1.247   2.905   0.050 -0.2705 -0.9440  0.2311
18874TIP3    H278038   1.175   2.891  -0.082  0.8770  0.3685 -0.5553
18875TIP3   OH278039   2.663   5.656  17.292 -0.3273  0.1269  0.8997
18875TIP3    H178040   2.640   5.670  17.384  1.8019  0.7183  1.4051
18875TIP3    H278041   2.663   5.744  17.254 -0.0990  0.0082  0.6233
18876TIP3   OH278042   5.924   3.402   1.810  0.1045 -0.0157 -0.2942
18876TIP3    H178043   6.017   3.380   1.804 -0.0412 -0.7653  0.0926
18876TIP3    H278044   5.879   3.329   1.767 -0.4025 -0.6820  1.2663
18877TIP3   OH278045   2.996   1.650  14.935  0.0165 -0.0206  0.0453
18877TIP3    H178046   3.028   1.647  14.845 -0.7002  0.1904 -0.2140
18877TIP3    H278047   2.920   1.593  14.936 -0.8524  1.1124  0.1647
18878TIP3   OH278048   3.354   1.845  12.804  0.7270  0.1252  0.0987
18878TIP3    H178049   3.353   1.750  12.803 -3.5190 -0.0150  1.3089
18878TIP3    H278050   3.417   1.868  12.872  1.6047 -1.7681 -0.0149
18879TIP3   OH278051   6.272   1.183   4.790 -0.2476 -0.4495  0.2185
18879TIP3    H178052   6.210   1.252   4.814 -0.5586 -0.4564 -0.5391
18879TIP3    H278053   6.217   1.109   4.765  0.0534 -1.6567  2.7541
18880TIP3   OH278054   0.975   0.112  13.514  0.1435 -0.2206 -0.6680
18880TIP3    H178055   1.008   0.055  13.445  1.0024 -0.9765  0.3349
18880TIP3    H278056   0.968   0.198  13.473  1.5911 -0.4398 -1.4389
18881TIP3   OH278057   1.641   6.105   1.285 -0.1789 -0.2777 -0.1129
18881TIP3    H178058   1.684   6.090   1.201  2.0794 -0.1413  0.9554
18881TIP3    H278059   1.701   6.068   1.350 -0.8733  1.4053  1.5907
18882TIP3   OH278060   0.643   4.701  15.679  0.5303  0.2077  0.2256
18882TIP3    H178061   0.641   4.676  15.772 -0.4133 -1.1671 -0.1304
18882TIP3    H278062   0.676   4.791  15.679  0.2200  0.3588  1.9178
18883TIP3   OH278063   2.992   4.716   4.942  0.0061 -0.9158  0.3869
18883TIP3    H178064   2.912   4.670   4.968  0.3292 -0.5187  2.1851
18883TIP3    H278065   2.969   4.757   4.858 -2.3366  0.7301  1.7087
18884TIP3   OH278066   4.702   4.484   0.123  0.2347 -0.5048 -0.1835
18884TIP3    H178067   4.704   4.449   0.211 -0.3160 -0.7062 -0.2475
18884TIP3    H278068   4.784   4.455   0.083  1.4298  1.2021  0.8614
18885TIP3   OH278069   3.899   1.721   4.002  0.0057 -0.1477 -0.1309
18885TIP3    H178070   3.835   1.654   4.025 -0.3642  0.1279 -0.3510
18885TIP3    H278071   3.982   1.673   3.991  0.0395 -0.3757  1.0651
18886TIP3   OH278072   2.551   3.563  15.881 -0.4902  0.6205  0.3559
18886TIP3    H178073   2.592   3.650  15.888 -1.8407  1.1477  2.3709
18886TIP3    H278074   2.513   3.562  15.793  0.8098  1.4595 -0.2567
18887TIP3   OH278075   4.205   3.546   3.846  0.4759  0.4602  0.3703
18887TIP3    H178076   4.268   3.584   3.908  1.6816  0.2135 -0.6644
18887TIP3    H278077   4.238   3.458   3.830 -0.0108  0.4092 -0.3818
18888TIP3   OH278078   3.148   0.161   4.332 -0.2174 -0.8703 -0.4401
18888TIP3    H178079   3.076   0.122   4.283 -0.6123 -2.3203  1.1774
18888TIP3    H278080   3.105   0.214   4.400  0.2267 -1.2390  0.1432
18889TIP3   OH278081   0.899   6.676  15.457  0.6754 -0.2286 -0.2631
18889TIP3    H178082   0.960   6.728  15.509 -0.1836  0.9728 -0.4335
18889TIP3    H278083   0.873   6.604  15.515  0.1578  0.7743  0.7846
18890TIP3   OH278084   1.994   0.689  10.653 -0.1931 -0.4267  0.0360
18890TIP3    H178085   1.907   0.702  10.615 -0.5343 -2.7034 -0.1343
18890TIP3    H278086   2.048   0.656  10.581  0.8159  0.8672  0.1648
18891TIP3   OH278087   4.529   3.869   1.019  0.4591  0.2882 -0.5651
18891TIP3    H178088   4.574   3.863   0.935  1.9640  0.1671  0.2071
18891TIP3    H278089   4.448   3.819   1.007  1.5775 -1.4370 -1.3577
18892TIP3   OH278090   6.102   0.002  16.494 -0.2083  0.3009  0.4692
18892TIP3    H178091   6.056   0.085  16.509  0.3112  0.8383 -0.7764
18892TIP3    H278092   6.033  -0.065  16.497 -0.4798  0.5909  2.6612
18893TIP3   OH278093   0.683   0.016   3.071 -0.4621 -0.7257  0.0406
18893TIP3    H178094   0.773   0.012   3.103 -0.2818  1.2441 -0.1104
18893TIP3    H278095   0.692   0.030   2.977 -0.9346 -0.9698 -0.0419
18894TIP3   OH278096   1.844   0.762  13.802 -0.0705 -0.2253 -0.6850
18894TIP3    H178097   1.914   0.697  13.798  0.9504  0.9085 -2.9444
18894TIP3    H278098   1.851   0.799  13.890  1.5339 -0.8078 -0.5317
18895TIP3   OH278099   0.942   3.839   0.020  0.1781 -0.1763  0.4061
18895TIP3    H178100   0.954   3.904  -0.049 -1.2802 -0.2763  0.0270
18895TIP3    H278101   0.960   3.886   0.101  1.1834  0.1327  0.0208
18896TIP3   OH278102   4.602   5.096  16.692  0.2424 -0.1326 -0.2282
18896TIP3    H178103   4.685   5.138  16.717  0.4684 -0.9467  0.4110
18896TIP3    H278104   4.549   5.168  16.656 -0.5482  1.3790  3.5338
18897TIP3   OH278105   2.515   6.129   5.523  0.4099 -0.3580 -0.2690
18897TIP3    H178106   2.539   6.147   5.614  0.7846  0.9707 -0.6131
18897TIP3    H278107   2.511   6.034   5.518 -0.0715 -0.4462  1.2478
18898TIP3   OH278108   3.811   2.755   0.352  0.0162  0.0430  0.4172
18898TIP3    H178109   3.801   2.720   0.263  2.4953 -1.3949  0.6218
18898TIP3    H278110   3.823   2.849   0.339 -1.0665  0.0662 -0.6323
18899TIP3   OH278111   1.332   4.386  14.772  0.7772  0.0582 -0.4409
18899TIP3    H178112   1.241   4.402  14.797  0.2890 -4.4813  1.5195
18899TIP3    H278113   1.356   4.463  14.719 -3.6561  2.1191  0.1200
18900TIP3   OH278114   4.147   1.820   1.898  0.1026 -0.2970 -0.2796
18900TIP3    H178115   4.173   1.912   1.887 -0.4629 -0.0885  0.1209
18900TIP3    H278116   4.134   1.788   1.808  1.6658 -0.3923 -0.4966
18901TIP3   OH278117   4.129   2.975  14.703 -0.3853  0.1899 -0.2741
18901TIP3    H178118   4.067   2.988  14.631 -1.2106  1.0652  0.5617
18901TIP3    H278119   4.199   3.038  14.686  0.0635 -0.4771 -0.9696
18902TIP3   OH278120   0.461   0.799   4.447 -0.8570 -0.3108  0.6649
18902TIP3    H178121   0.388   0.737   4.445 -1.7273  0.7114 -1.1185
18902TIP3    H278122   0.442   0.856   4.521 -2.2369  0.3468 -0.1752
18903TIP3   OH278123   0.695   6.677  12.372  0.2452 -0.1583 -0.0901
18903TIP3    H178124   0.642   6.645  12.445 -0.9485 -0.1733 -0.9520
18903TIP3    H278125   0.758   6.606  12.355 -0.4701 -0.8021 -0.0704
18904TIP3   OH278126   2.798   3.427   6.445  0.3229  0.2710 -0.0736
18904TIP3    H178127   2.857   3.502   6.438  1.0699 -0.2753  0.3055
18904TIP3    H278128   2.710   3.466   6.446  0.6540  1.0714 -0.9191
18905TIP3   OH278129   0.504   6.583   2.732  0.1205  0.0342 -0.0160
18905TIP3    H178130   0.485   6.677   2.730 -0.0523 -0.0110 -0.9012
18905TIP3    H278131   0.467   6.549   2.650 -0.3670 -0.9139  0.5730
18906TIP3   OH278132   3.384   1.081   4.683  0.7269 -0.0319 -0.6486
18906TIP3    H178133   3.338   1.008   4.640 -0.5528  0.9690 -1.0352
18906TIP3    H278134   3.395   1.146   4.614  0.0849  0.9488  0.1474
18907TIP3   OH278135   3.070   3.114   5.722  0.2529  0.5968 -0.2211
18907TIP3    H178136   3.006   3.120   5.652  0.2241 -0.3050 -0.2783
18907TIP3    H278137   3.097   3.205   5.738 -1.5045  1.0689  0.2555
18908TIP3   OH278138   4.761   2.283  11.860  0.5725 -0.2072  0.3495
18908TIP3    H178139   4.815   2.210  11.889 -2.0674 -2.6878 -0.5291
18908TIP3    H278140   4.813   2.326  11.792  2.5161 -0.6904  1.4554
18909TIP3   OH278141   2.414   1.828  17.074 -0.7704  0.1999  0.0578
18909TIP3    H178142   2.440   1.738  17.054 -2.2201 -0.4055  0.7274
18909TIP3    H278143   2.484   1.882  17.038 -0.1477 -1.1673 -0.8726
18910TIP3   OH278144   3.776   5.884   3.302 -0.1529  0.3287  0.3646
18910TIP3    H178145   3.800   5.830   3.378 -1.2626 -0.4065  0.2120
18910TIP3    H278146   3.860   5.921   3.272  0.7846 -1.8605  0.0646
18911TIP3   OH278147   1.235   1.454  17.149 -0.2613 -0.1211 -0.0604
18911TIP3    H178148   1.190   1.416  17.225 -0.1600  1.1754  0.6730
18911TIP3    H278149   1.294   1.384  17.120 -0.0510 -0.5297  1.2703
18912TIP3   OH278150   5.568   2.086  15.058 -0.0654  0.0450  0.3486
18912TIP3    H178151   5.578   2.179  15.076 -1.3242  0.1383  0.6412
18912TIP3    H278152   5.647   2.046  15.093  0.6987  1.0503 -0.1802
18913TIP3   OH278153   1.254   0.483  13.256  0.1846  0.8492  0.0864
18913TIP3    H178154   1.326   0.419  13.255 -1.3257 -0.9849 -1.8669
18913TIP3    H278155   1.257   0.522  13.169  0.0823  2.3139  0.7245
18914TIP3   OH278156   5.958   2.774   4.103 -0.0745 -0.6358 -0.0205
18914TIP3    H178157   5.964   2.865   4.132 -0.1922 -0.2616 -1.1345
18914TIP3    H278158   6.023   2.766   4.033 -2.2154 -0.4816 -2.1693
18915TIP3   OH278159   1.069   6.729  16.392 -0.4669 -0.4557 -0.1753
18915TIP3    H178160   1.154   6.715  16.433  0.6599  1.3494 -1.7446
18915TIP3    H278161   1.017   6.772  16.460  0.3856 -0.1381  0.2936
18916TIP3   OH278162   3.732   4.006   5.178 -0.3284 -0.4414 -0.0599
18916TIP3    H178163   3.686   3.968   5.253 -0.1774 -0.4613  0.0233
18916TIP3    H278164   3.704   3.953   5.103  0.1235 -0.9215  0.1023
18917TIP3   OH278165   0.630   6.132  14.031 -0.6113 -0.7768  0.3201
18917TIP3    H178166   0.631   6.123  14.127 -0.3947 -1.2962  0.2729
18917TIP3    H278167   0.700   6.074  14.001 -1.0927 -1.1033 -0.1921
18918TIP3   OH278168   2.727   6.088   4.123  0.4217  0.2224 -0.2007
18918TIP3    H178169   2.665   6.113   4.192  1.3684  0.2956  0.6460
18918TIP3    H278170   2.772   6.012   4.157 -0.3899 -0.9164 -1.5514
18919TIP3   OH278171   5.015   3.924   0.858  0.4161 -0.1067  0.4496
18919TIP3    H178172   4.984   4.013   0.876  1.4467  0.1033  1.3011
18919TIP3    H278173   5.103   3.922   0.894  1.3265 -0.7512 -1.6655
18920TIP3   OH278174   1.205   5.545  13.126 -0.2410 -0.6690 -0.1465
18920TIP3    H178175   1.209   5.484  13.053  0.3536 -0.7334 -0.0648
18920TIP3    H278176   1.271   5.611  13.105  0.1653 -0.8685  0.4980
18921TIP3   OH278177   2.626   5.733   3.717 -0.4072  0.0211 -0.0436
18921TIP3    H178178   2.656   5.674   3.648  0.5171  2.2207 -1.6483
18921TIP3    H278179   2.702   5.745   3.773 -0.2925  0.4445 -0.2878
18922TIP3   OH278180   3.551   2.929   5.581 -0.5762  0.3147  0.3956
18922TIP3    H178181   3.564   2.840   5.612  0.9522  0.9702  1.7870
18922TIP3    H278182   3.463   2.929   5.544 -1.2416 -1.3635  1.8606
18923TIP3   OH278183   3.714   1.266  16.972 -0.0214 -0.7216  0.0280
18923TIP3    H178184   3.737   1.182  16.932 -0.5925 -0.8345 -0.0717
18923TIP3    H278185   3.797   1.313  16.978  0.3388 -1.3708  0.2758
18924TIP3   OH278186   6.482   5.869  11.375 -0.1753  0.1732 -0.0921
18924TIP3    H178187   6.462   5.953  11.334  0.4224  0.1685 -0.4007
18924TIP3    H278188   6.500   5.889  11.466  3.1767  0.8743 -0.7764
18925TIP3   OH278189   3.772   1.845   0.374 -0.3404 -0.2397  0.2077
18925TIP3    H178190   3.773   1.900   0.296 -1.1644 -0.2026  0.2124
18925TIP3    H278191   3.854   1.866   0.419  0.2859 -0.4757 -0.7836
18926TIP3   OH278192   3.634   0.437   4.854 -0.4456  0.0849  0.4360
18926TIP3    H178193   3.705   0.385   4.892  0.7488  1.1558 -0.2692
18926TIP3    H278194   3.661   0.453   4.764 -1.2232  1.1392  0.3697
18927TIP3   OH278195   2.273   4.890   2.348 -0.0033 -0.5723  0.5598
18927TIP3    H178196   2.256   4.958   2.413  0.0790  1.0638 -1.0250
18927TIP3    H278197   2.189   4.877   2.304  0.6164  0.7922 -1.1552
18928TIP3   OH278198   5.311   3.012   5.028  0.9182  0.2667  0.4078
18928TIP3    H178199   5.227   2.975   5.001  1.2967 -0.4766  0.2219
18928TIP3    H278200   5.287   3.091   5.078  0.1282  0.2408  0.0924
18929TIP3   OH278201   4.030   3.025  11.621  0.0246  0.1740  0.0992
18929TIP3    H178202   4.041   2.991  11.709 -2.1508 -0.3873  0.1994
18929TIP3    H278203   4.046   3.119  11.629  2.1997 -0.2036  0.5814
18930TIP3   OH278204   2.306   2.714  15.287 -0.0361  0.2970  0.2844
18930TIP3    H178205   2.243   2.720  15.215  0.9397  1.3862 -0.5127
18930TIP3    H278206   2.352   2.632  15.272 -0.9590 -0.3052  0.6420
18931TIP3   OH278207   0.840   1.889  13.505  0.0379 -0.3562  0.0166
18931TIP3    H178208   0.807   1.801  13.487 -1.3216  0.0524  0.4077
18931TIP3    H278209   0.797   1.914  13.586 -0.2244  0.9704 -0.5093
18932TIP3   OH278210   1.845   4.409  17.130  0.5958 -0.1840  0.2742
18932TIP3    H178211   1.866   4.317  17.112  0.3758 -0.3011  0.6123
18932TIP3    H278212   1.881   4.457  17.055 -1.8397 -0.8155 -1.3913
18933TIP3   OH278213   0.566   5.146   0.157  0.2264  0.2726  0.5016
18933TIP3    H178214   0.563   5.177   0.067  0.8783  1.8354  0.9903
18933TIP3    H278215   0.619   5.067   0.153 -0.6694 -0.3109 -0.6341
18934TIP3   OH278216   0.656   3.150   0.317  0.0215  0.3411  0.2364
18934TIP3    H178217   0.655   3.091   0.393  1.2135  0.8200  0.6439
18934TIP3    H278218   0.577   3.203   0.327 -1.4964 -1.6399 -0.5382
18935TIP3   OH278219   5.492   0.615   2.056  0.3369  0.4156  0.3410
18935TIP3    H178220   5.576   0.572   2.074 -0.0689 -0.0409  1.2186
18935TIP3    H278221   5.484   0.681   2.125 -0.8594 -0.7875  1.4240
18936TIP3   OH278222   2.135   3.306  14.238  0.1820  0.7100  0.0431
18936TIP3    H178223   2.047   3.330  14.269 -0.0086 -1.2057  1.1605
18936TIP3    H278224   2.192   3.324  14.313  0.9669  2.8347 -0.9778
18937TIP3   OH278225   6.546   2.348  11.964  0.4620  0.2144 -0.0963
18937TIP3    H178226   6.623   2.350  12.022  0.8511  0.4881 -0.6169
18937TIP3    H278227   6.471   2.343  12.024  0.7708  1.9831  0.5045
18938TIP3   OH278228   3.959   0.871  15.464  0.6420  0.1260  0.1591
18938TIP3    H178229   3.973   0.892  15.372 -0.6325 -2.3764 -0.7096
18938TIP3    H278230   3.876   0.823  15.465  0.9838 -0.5617  2.5005
18939TIP3   OH278231   2.028   3.550   2.319  0.3799 -0.0197  0.4630
18939TIP3    H178232   2.092   3.483   2.294 -0.8471 -0.8768 -0.5358
18939TIP3    H278233   1.953   3.500   2.350 -0.2232  0.9259  0.5483
18940TIP3   OH278234   5.466   5.183   3.850 -0.0861 -0.4535 -0.3506
18940TIP3    H178235   5.488   5.112   3.910 -1.0857 -0.6173 -0.1612
18940TIP3    H278236   5.380   5.214   3.879  0.0765  0.4581 -0.7821
18941TIP3   OH278237   0.056   1.376  11.818  0.6566 -0.0246 -0.3630
18941TIP3    H178238   0.006   1.456  11.800  0.5871  0.0281  0.0428
18941TIP3    H278239   0.131   1.381  11.759  0.3176  0.0267 -0.7905
18942TIP3   OH278240   4.292   0.353   0.946  0.2183 -0.0654  0.3459
18942TIP3    H178241   4.322   0.428   0.894  0.0117 -0.3216 -0.1508
18942TIP3    H278242   4.235   0.392   1.013  0.4731  0.2655  0.3720
18943TIP3   OH278243   5.589   6.045   3.198 -0.2505 -0.6972 -0.4171
18943TIP3    H178244   5.525   6.068   3.266 -0.5032 -2.6560  0.0784
18943TIP3    H278245   5.637   6.126   3.182 -0.2423 -0.1285  2.0413
18944TIP3   OH278246   4.647   4.923  14.737  0.2155  0.1136 -0.4141
18944TIP3    H178247   4.595   4.891  14.664  0.4017 -0.7782 -0.1790
18944TIP3    H278248   4.713   4.855  14.751 -0.0664  0.0606  0.8327
18945TIP3   OH278249   6.182   5.194   2.252 -0.6744  0.0357  0.2993
18945TIP3    H178250   6.128   5.175   2.176 -0.7757 -1.8423  0.7913
18945TIP3    H278251   6.235   5.116   2.264  2.0857  1.7048 -0.0503
18946TIP3   OH278252   1.343   1.151  11.153  0.1242  0.8809  0.1271
18946TIP3    H178253   1.375   1.060  11.149  1.3341  1.1854  1.8947
18946TIP3    H278254   1.263   1.150  11.101  0.2730 -1.1312 -0.1533
18947TIP3   OH278255   4.250   3.029  15.343  0.1793 -0.0364  0.2934
18947TIP3    H178256   4.290   3.042  15.429  2.8978  0.7195 -0.9542
18947TIP3    H278257   4.163   2.995  15.361 -0.1504  2.0973  3.3731
18948TIP3   OH278258   4.847   1.175  16.658  0.2112 -0.3449 -0.2403
18948TIP3    H178259   4.876   1.092  16.620  0.7922  0.8160 -2.4634
18948TIP3    H278260   4.928   1.220  16.683  0.0872  0.6609 -1.5562
18949TIP3   OH278261   1.212   2.656   4.260  0.2231 -0.0976  0.3528
18949TIP3    H178262   1.223   2.750   4.246 -0.1067 -0.4895 -3.3766
18949TIP3    H278263   1.287   2.631   4.314 -0.2301  2.3890  2.3047
18950TIP3   OH278264   4.135   5.154  14.199  0.8052 -0.5080  0.0723
18950TIP3    H178265   4.127   5.249  14.207 -0.2133 -0.6603  1.0866
18950TIP3    H278266   4.073   5.130  14.130 -1.1722 -0.7076  1.8047
18951TIP3   OH278267   0.489   4.751  16.752  0.2143  0.4171  0.4828
18951TIP3    H178268   0.474   4.792  16.837 -0.6817 -3.3172  2.3451
18951TIP3    H278269   0.414   4.776  16.699  0.5328  2.4007  0.9089
18952TIP3   OH278270   4.793   2.722   3.797  0.2565 -0.7252  0.5862
18952TIP3    H178271   4.798   2.800   3.742  1.4838 -0.4864  1.0136
18952TIP3    H278272   4.720   2.739   3.857  0.7711  0.2852  0.9479
18953TIP3   OH278273   3.888   5.945  14.915 -0.2576  0.1965  0.0782
18953TIP3    H178274   3.951   5.974  14.849 -0.2269  0.5271  0.2508
18953TIP3    H278275   3.943   5.909  14.986 -0.2697  0.3421  0.1614
18954TIP3   OH278276   0.186   2.113  12.048 -0.1083  0.2406 -0.0942
18954TIP3    H178277   0.100   2.139  12.080  0.0510  1.1398 -0.3726
18954TIP3    H278278   0.187   2.018  12.058 -0.8218  0.2987  0.6654
18955TIP3   OH278279   3.270   6.224  16.230 -0.5718  0.1786 -0.0705
18955TIP3    H178280   3.242   6.308  16.195  0.7681 -0.1124 -2.0517
18955TIP3    H278281   3.346   6.245  16.285  1.4747  0.1765 -2.6546
18956TIP3   OH278282   2.509   2.825   1.743 -0.3695  0.7163  0.1087
18956TIP3    H178283   2.568   2.770   1.795  1.4740  0.6834 -1.8666
18956TIP3    H278284   2.468   2.764   1.682  0.7111  1.2579 -1.2313
18957TIP3   OH278285   2.340   4.173   6.098  0.0995  0.3210  0.1250
18957TIP3    H178286   2.346   4.252   6.044  0.6846  0.4440  0.3558
18957TIP3    H278287   2.307   4.106   6.039 -0.3064  0.7177 -0.1006
18958TIP3   OH278288   4.834   6.716  12.719  0.1361 -0.6833  0.5169
18958TIP3    H178289   4.901   6.688  12.781  1.1936  0.2336 -0.1548
18958TIP3    H278290   4.797   6.635  12.684  1.4651 -1.2321  0.3334
18959TIP3   OH278291   4.308   1.220  17.039 -0.3603 -0.2281  0.0825
18959TIP3    H178292   4.372   1.155  17.009 -0.7830 -1.3838  1.5321
18959TIP3    H278293   4.227   1.197  16.993 -0.2317 -0.0073 -0.2583
18960TIP3   OH278294   4.808   2.253  14.362 -0.3673 -0.3795  0.4535
18960TIP3    H178295   4.810   2.159  14.349  0.9133 -0.4717  1.1517
18960TIP3    H278296   4.857   2.267  14.443  0.1041  0.9356 -0.0257
18961TIP3   OH278297   3.841   4.370   6.236  0.4484  0.2084  0.2170
18961TIP3    H178298   3.855   4.277   6.217 -2.1989 -0.1065 -0.6842
18961TIP3    H278299   3.847   4.413   6.151  0.8215  0.7184  0.5034
18962TIP3   OH278300   2.086   6.604   1.424  0.5664 -0.3652 -0.3850
18962TIP3    H178301   2.078   6.570   1.513  0.7075 -0.2573 -0.3301
18962TIP3    H278302   2.010   6.662   1.414  0.8094 -0.0057 -0.1661
18963TIP3   OH278303   0.159   3.284   3.146 -0.0971  0.8679 -0.4038
18963TIP3    H178304   0.171   3.240   3.061  0.6638  0.2488  0.0086
18963TIP3    H278305   0.247   3.317   3.168 -0.4375  1.6427 -0.1875
18964TIP3   OH278306   3.334   1.693   1.689  0.3079  0.4550  0.2985
18964TIP3    H178307   3.388   1.744   1.750  1.0651 -0.2089  0.2096
18964TIP3    H278308   3.290   1.758   1.635  1.2097  1.0203  0.2232
18965TIP3   OH278309   2.077   4.446   2.766  0.5589 -0.2075  0.1245
18965TIP3    H178310   2.146   4.505   2.796 -0.4078  1.6528 -1.1055
18965TIP3    H278311   2.082   4.450   2.671 -0.4072 -1.0609  0.0268
18966TIP3   OH278312   5.224   1.435  13.095  0.1937 -0.5600  0.0004
18966TIP3    H178313   5.254   1.347  13.114  0.2419 -0.7699 -1.0059
18966TIP3    H278314   5.132   1.424  13.068  0.1546 -0.2916  0.0188
18967TIP3   OH278315   3.878   0.858  15.146 -0.1197 -0.0208  0.6673
18967TIP3    H178316   3.792   0.819  15.130  0.6861 -1.0303 -1.5441
18967TIP3    H278317   3.861   0.952  15.147 -1.0028 -0.0753 -1.9086
18968TIP3   OH278318   0.517   5.756  15.619  0.0918  0.2428 -0.1663
18968TIP3    H178319   0.556   5.734  15.534 -0.1820 -1.1970  0.0531
18968TIP3    H278320   0.591   5.757  15.680  0.1377  0.1176 -0.2191
18969TIP3   OH278321   2.919   5.953   3.272  1.2382 -0.2065 -0.2496
18969TIP3    H178322   2.848   5.894   3.298  0.8988  0.0966 -0.4697
18969TIP3    H278323   2.993   5.928   3.327  0.6724  0.1200  0.6719
18970TIP3   OH278324   6.332   0.899  16.788  0.2353  0.1611  0.5959
18970TIP3    H178325   6.312   0.809  16.815 -0.6793 -0.0075 -0.5608
18970TIP3    H278326   6.427   0.902  16.783  0.3234 -0.4063  1.7495
18971TIP3   OH278327   5.575   0.659   5.965  0.3208  0.1729  0.1132
18971TIP3    H178328   5.636   0.651   6.038  0.2609 -0.1610  0.1312
18971TIP3    H278329   5.501   0.603   5.990 -0.3194  1.1379  0.4225
18972TIP3   OH278330   3.703   1.211   2.822  0.4241  0.5353 -0.2023
18972TIP3    H178331   3.752   1.290   2.797  1.1929  0.0070 -0.4315
18972TIP3    H278332   3.647   1.193   2.746  0.3928  0.7492 -0.2311
18973TIP3   OH278333   6.031   6.538   2.559 -0.3719  0.6863  0.0803
18973TIP3    H178334   6.083   6.485   2.619 -2.2643 -1.5258 -0.0541
18973TIP3    H278335   5.967   6.582   2.616 -0.9605  0.0841 -0.0990
18974TIP3   OH278336   2.472   0.029  15.702  0.2227 -0.4437 -0.5904
18974TIP3    H178337   2.479   0.085  15.779  0.7103  1.1175 -1.7022
18974TIP3    H278338   2.383   0.043  15.670  0.6465  0.4967 -1.4140
18975TIP3   OH278339   0.703   0.194   0.868 -0.3781 -0.3145 -0.2867
18975TIP3    H178340   0.795   0.208   0.889  0.2072 -1.5519 -1.7995
18975TIP3    H278341   0.680   0.267   0.811  0.4349 -1.2941 -1.9441
18976TIP3   OH278342   2.867   6.588   4.012  0.1821  0.1946  0.0205
18976TIP3    H178343   2.933   6.584   3.943  0.5419 -1.3269  0.4273
18976TIP3    H278344   2.869   6.502   4.053 -2.7109 -0.2602 -0.5614
18977TIP3   OH278345   4.399   5.961  15.348 -0.3026 -0.2124 -0.3925
18977TIP3    H178346   4.445   6.019  15.287 -0.4930 -0.4940 -0.8080
18977TIP3    H278347   4.306   5.976  15.328 -0.3947  0.2494  0.3435
18978TIP3   OH278348   4.746   5.059   5.983 -0.0565 -0.5470 -0.1639
18978TIP3    H178349   4.836   5.071   6.014 -0.7241  2.1128  1.1245
18978TIP3    H278350   4.700   5.024   6.059  0.0198 -2.8775 -1.1283
18979TIP3   OH278351   2.195   1.313   5.378  0.4524 -0.3550  0.1326
18979TIP3    H178352   2.187   1.234   5.324 -0.1367 -1.2366  1.4611
18979TIP3    H278353   2.105   1.334   5.403  0.4871  1.4033 -1.0823
18980TIP3   OH278354   5.456   5.477   3.213  0.4820 -0.2322 -0.0138
18980TIP3    H178355   5.459   5.382   3.200 -0.5698 -0.2692 -0.0675
18980TIP3    H278356   5.510   5.492   3.290  1.3882 -0.7665 -0.5218
18981TIP3   OH278357   4.270   5.130   0.817 -0.8972  0.2741  0.1376
18981TIP3    H178358   4.355   5.143   0.860 -1.4381  1.8317  0.8020
18981TIP3    H278359   4.214   5.090   0.883 -1.4104  1.6525  0.5649
18982TIP3   OH278360   2.758   3.016   5.778  0.0038  0.0320 -0.3099
18982TIP3    H178361   2.839   3.011   5.727 -1.2252  0.1715 -2.3546
18982TIP3    H278362   2.693   3.052   5.718 -1.6425 -0.2157  1.2319
18983TIP3   OH278363   3.612   4.506   0.481 -0.4780 -0.3677  0.2782
18983TIP3    H178364   3.659   4.549   0.552 -0.9996  0.2895  0.2320
18983TIP3    H278365   3.519   4.514   0.505 -0.6706  0.0856 -0.5992
18984TIP3   OH278366   2.046   5.398  14.179  0.2136 -0.5437 -0.0551
18984TIP3    H178367   2.007   5.412  14.266 -0.0405 -0.2361 -0.2152
18984TIP3    H278368   1.971   5.389  14.121  0.3724  0.3256 -0.4107
18985TIP3   OH278369   0.101   1.390   4.463 -0.0490  0.8129  0.2596
18985TIP3    H178370   0.181   1.339   4.452  0.1339  0.8032  1.5028
18985TIP3    H278371   0.050   1.342   4.528 -2.5584 -0.8900 -2.7575
18986TIP3   OH278372   2.020   6.143  13.843 -0.4177  0.1279 -0.0392
18986TIP3    H178373   2.052   6.182  13.762  1.0801 -0.5434  0.2080
18986TIP3    H278374   2.060   6.196  13.912  1.6769 -1.7352  0.3087
18987TIP3   OH278375   4.687   0.739  14.539  0.1161  0.0519  0.4511
18987TIP3    H178376   4.745   0.671  14.503 -0.9080 -0.3729 -0.4242
18987TIP3    H278377   4.640   0.695  14.610 -0.2636 -0.0465  0.1396
18988TIP3   OH278378   3.566   3.930  13.665 -0.0522 -0.4167 -0.1643
18988TIP3    H178379   3.647   3.948  13.713 -1.0669 -1.3992  2.0985
18988TIP3    H278380   3.533   4.016  13.640  0.7656  0.1214  0.5216
18989TIP3   OH278381   4.517   6.163  11.236 -0.3641 -0.6672 -0.1822
18989TIP3    H178382   4.438   6.203  11.272 -0.3137  0.7634 -1.5194
18989TIP3    H278383   4.491   6.074  11.212 -2.0574  0.2109 -1.9321
18990TIP3   OH278384   5.958   3.423   4.462 -0.0246 -0.0585 -0.2583
18990TIP3    H178385   5.917   3.503   4.429 -1.2550 -0.6233 -0.1455
18990TIP3    H278386   5.930   3.417   4.553  2.0791  0.6508  0.5182
18991TIP3   OH278387   1.269   4.190  10.937  0.3733 -0.0556  0.3183
18991TIP3    H178388   1.276   4.182  10.842 -0.5504  2.1341 -0.0024
18991TIP3    H278389   1.278   4.284  10.954 -1.7823 -0.0793  2.1479
18992TIP3   OH278390   3.079   2.256   0.016 -0.6503 -0.1531 -0.2169
18992TIP3    H178391   3.103   2.250   0.109 -3.6682 -0.7616  0.6380
18992TIP3    H278392   3.092   2.348  -0.006  3.3122 -0.5763 -0.2868
18993TIP3   OH278393   4.592   3.478   2.617 -0.0173  0.0337 -0.4222
18993TIP3    H178394   4.643   3.558   2.630  0.9051 -0.7660  1.3038
18993TIP3    H278395   4.502   3.508   2.609  0.4163  1.3011 -0.7496
18994TIP3   OH278396   4.845   6.390  16.084  1.1411  0.1318  0.1877
18994TIP3    H178397   4.885   6.387  16.171  0.7614  1.1664  0.4162
18994TIP3    H278398   4.767   6.334  16.091 -0.4104  2.3094  1.3563
18995TIP3   OH278399   6.239   5.106   5.063  0.2275 -0.5994  0.5186
18995TIP3    H178400   6.180   5.110   4.988  2.7535  1.6390 -1.5648
18995TIP3    H278401   6.281   5.192   5.065  1.3932 -1.0967  3.6219
18996TIP3   OH278402   4.259   5.595   3.947  0.2632 -0.1733 -0.3769
18996TIP3    H178403   4.166   5.599   3.970  0.5823  0.3868  0.9112
18996TIP3    H278404   4.305   5.597   4.031  1.4214 -4.8922 -0.6056
18997TIP3   OH278405   0.833   2.017  17.342 -0.1340  0.3104 -0.4142
18997TIP3    H178406   0.879   1.990  17.421  1.5716  0.6211 -1.2454
18997TIP3    H278407   0.771   2.083  17.372  1.4355  1.4337  0.5044
18998TIP3   OH278408   6.730   0.172  15.572  0.5965 -0.0634  0.1358
18998TIP3    H178409   6.724   0.183  15.477 -0.4127  0.5128  0.2491
18998TIP3    H278410   6.691   0.086  15.588 -0.6365  0.4773  0.1527
18999TIP3   OH278411   1.506   2.591   4.707 -0.1559  0.6187 -0.0944
18999TIP3    H178412   1.447   2.530   4.751  0.2430 -0.3033 -0.8083
18999TIP3    H278413   1.507   2.564   4.616  0.6739  1.1774 -0.2717
19000TIP3   OH278414   1.748   3.893   3.765 -0.1248  0.5027  0.0195
19000TIP3    H178415   1.817   3.960   3.761  1.2568 -0.9339 -1.9460
19000TIP3    H278416   1.693   3.911   3.689  0.6290 -0.9269 -0.8933
19001TIP3   OH278417   1.629   0.843   3.833 -0.5824  0.5396 -0.0726
19001TIP3    H178418   1.680   0.796   3.767 -0.5908 -0.0609  0.3444
19001TIP3    H278419   1.588   0.774   3.885 -2.0496  1.0112 -0.5733
19002TIP3   OH278420   1.241   4.036  12.570 -0.2954  0.0497  0.9009
19002TIP3    H178421   1.170   3.976  12.593  1.0504 -1.4718  1.2534
19002TIP3    H278422   1.281   3.996  12.493  1.6361 -0.4111  2.0922
19003TIP3   OH278423   6.750   1.710   0.125 -0.2455 -0.4938  0.0907
19003TIP3    H178424   6.836   1.669   0.110 -0.6396 -0.7447 -1.7284
19003TIP3    H278425   6.770   1.803   0.132  0.1663 -0.5256 -0.5491
19004TIP3   OH278426   1.075   6.715  17.383 -0.4730  0.4119 -0.4544
19004TIP3    H178427   1.091   6.808  17.363 -2.8601  0.6529 -1.5225
19004TIP3    H278428   1.025   6.717  17.464 -1.0384  0.1016 -0.7940
19005TIP3   OH278429   2.237   0.001   2.275  0.1880  0.4606  0.2088
19005TIP3    H178430   2.324  -0.026   2.303  1.2778  3.0424 -0.4021
19005TIP3    H278431   2.252   0.060   2.202 -2.1997 -0.2261 -0.9639
19006TIP3   OH278432   2.897   3.671   5.681  0.1076 -0.1412 -0.5186
19006TIP3    H178433   2.984   3.657   5.642  0.0381 -2.1972 -0.0208
19006TIP3    H278434   2.916   3.702   5.769  0.3265 -0.2122 -0.5382
19007TIP3   OH278435   3.286   2.709   4.986  0.7294 -0.6706  0.3108
19007TIP3    H178436   3.365   2.746   5.026  1.4410 -1.1305 -0.6633
19007TIP3    H278437   3.289   2.616   5.009 -1.3928 -0.1674  3.3165
19008TIP3   OH278438   2.373   5.858   0.417  0.0366 -0.5216 -0.1741
19008TIP3    H178439   2.443   5.838   0.479  0.1842  0.5261  0.0306
19008TIP3    H278440   2.313   5.914   0.467 -1.0506 -1.5405 -0.2924
19009TIP3   OH278441   0.362   0.686  15.699 -0.4229 -0.3627  0.5485
19009TIP3    H178442   0.404   0.742  15.634 -1.8547 -0.8182 -0.8074
19009TIP3    H278443   0.408   0.603  15.692 -0.0281 -0.1671  0.7350
19010TIP3   OH278444   1.284   4.790  16.536  0.1203  0.2686 -0.2837
19010TIP3    H178445   1.365   4.820  16.577  0.4441  1.0258 -1.4368
19010TIP3    H278446   1.293   4.815  16.444 -2.3156  2.2952 -0.0502
19011TIP3   OH278447   4.989   1.676   3.398  0.0725  0.2727  0.1995
19011TIP3    H178448   4.944   1.710   3.475  1.1784  0.9578  0.5579
19011TIP3    H278449   4.927   1.690   3.326 -0.3046  1.1508  0.6836
19012TIP3   OH278450   0.770   5.021  13.697 -0.1949  0.3358  0.9616
19012TIP3    H178451   0.713   5.034  13.774  1.0867 -0.7946  2.1552
19012TIP3    H278452   0.859   5.025  13.732  0.4090 -1.2747 -0.2823
19013TIP3   OH278453   3.268   0.392   3.524  0.0122 -0.6098 -0.5253
19013TIP3    H178454   3.187   0.439   3.504 -0.7318 -0.2439  2.6892
19013TIP3    H278455   3.238   0.308   3.559  0.7381  0.4236  2.9638
19014TIP3   OH278456   3.979   5.072   3.558 -0.0126 -0.1265 -0.3007
19014TIP3    H178457   3.994   4.978   3.566  0.7909  0.0685  0.9525
19014TIP3    H278458   4.065   5.111   3.577 -0.8463  0.9155  1.7129
19015TIP3   OH278459   1.440   0.619   3.161  0.6161  0.0459  0.0109
19015TIP3    H178460   1.433   0.707   3.123 -0.3949 -0.4178 -0.9422
19015TIP3    H278461   1.534   0.600   3.160  0.8422  1.1049  0.2244
19016TIP3   OH278462   5.454   0.365   2.838  0.0428 -0.7685 -0.6814
19016TIP3    H178463   5.438   0.390   2.747 -2.9442 -0.1887 -0.1176
19016TIP3    H278464   5.367   0.342   2.872  1.0327 -0.8407  2.0579
19017TIP3   OH278465   6.675   5.452  15.250 -0.7457 -0.5961  0.0734
19017TIP3    H178466   6.672   5.475  15.343  1.1810  0.3927 -0.0703
19017TIP3    H278467   6.608   5.384  15.241 -1.7121  0.0345  1.9542
19018TIP3   OH278468   3.225   1.769  12.169  0.1736 -0.2102 -0.1266
19018TIP3    H178469   3.154   1.830  12.189 -1.5259 -2.0772 -0.2096
19018TIP3    H278470   3.295   1.825  12.134 -1.3844  1.6535 -0.4256
19019TIP3   OH278471   1.423   1.322  13.322  0.5108 -0.0541  0.6113
19019TIP3    H178472   1.411   1.380  13.246 -0.3380  0.6151  1.2359
19019TIP3    H278473   1.427   1.234  13.284  0.6315  0.3139 -0.2552
19020TIP3   OH278474   2.873   6.224  16.464 -0.3041  0.6042  0.7738
19020TIP3    H178475   2.928   6.150  16.437 -0.5189 -0.2116  2.4432
19020TIP3    H278476   2.928   6.275  16.522  0.0882  2.2246 -0.9449
19021TIP3   OH278477   6.516   5.062   0.099  0.8873  0.0510  0.4545
19021TIP3    H178478   6.491   5.040   0.189  2.5195  0.2199  0.9712
19021TIP3    H278479   6.611   5.061   0.099  0.9327  0.9633 -1.0573
19022TIP3   OH278480   2.752   3.885  15.237 -0.1055  0.4024 -0.0907
19022TIP3    H178481   2.797   3.906  15.319  0.7198  0.6985 -0.6156
19022TIP3    H278482   2.784   3.950  15.175  0.0853 -0.4905 -0.9362
19023TIP3   OH278483   0.210   6.009   3.876 -0.2068  0.1283  0.0686
19023TIP3    H178484   0.295   6.052   3.883 -0.8085  1.3655  0.0390
19023TIP3    H278485   0.167   6.026   3.960  1.0138 -3.8564  1.7486
19024TIP3   OH278486   2.186   3.009  14.215  0.3890 -0.2450 -0.4627
19024TIP3    H178487   2.156   2.973  14.299  2.8185  0.8139  0.9897
19024TIP3    H278488   2.139   3.092  14.207 -1.7195 -1.4528 -1.4849
19025TIP3   OH278489   0.674   5.801  16.589 -0.1904  0.6370  0.0154
19025TIP3    H178490   0.595   5.825  16.541 -0.8985  1.3883  1.4849
19025TIP3    H278491   0.744   5.801  16.523 -1.4342 -0.2194 -1.3367
19026TIP3   OH278492   5.426   0.595  12.139  0.2715  0.2397  0.4519
19026TIP3    H178493   5.413   0.652  12.063  1.7514 -0.8980 -0.7158
19026TIP3    H278494   5.521   0.593  12.151  0.1648 -0.9779  1.2464
19027TIP3   OH278495   2.896   6.508   1.200 -0.3937 -0.0693  0.4109
19027TIP3    H178496   2.823   6.453   1.172  0.2853 -1.8679  1.9538
19027TIP3    H278497   2.962   6.446   1.230  1.1742  1.5643  0.4897
19028TIP3   OH278498   2.115   5.246  17.019 -0.4335 -0.0386  0.1754
19028TIP3    H178499   2.161   5.307  16.962 -0.3478  1.4449  1.7596
19028TIP3    H278500   2.169   5.242  17.098 -1.5919 -0.4540  0.9637
19029TIP3   OH278501   3.090   5.634   2.238  0.3018 -0.2910  0.3532
19029TIP3    H178502   3.115   5.672   2.322  1.6687  0.2789 -0.3000
19029TIP3    H278503   3.168   5.640   2.184  0.3485 -3.2310 -0.0891
19030TIP3   OH278504   0.849   0.373   0.189 -0.2676 -0.2448 -0.5931
19030TIP3    H178505   0.942   0.350   0.193 -0.6108 -1.6208  0.7863
19030TIP3    H278506   0.808   0.301   0.141 -0.9077 -0.9223  0.8809
19031TIP3   OH278507   5.692   5.425   4.527 -0.0241 -0.0532 -0.5086
19031TIP3    H178508   5.603   5.393   4.541  0.7835 -1.6233  1.5481
19031TIP3    H278509   5.692   5.513   4.565 -0.4483 -0.4429  0.4289
19032TIP3   OH278510   5.260   4.482  16.691 -0.0641 -0.6159 -0.4984
19032TIP3    H178511   5.320   4.475  16.618 -0.6932 -1.1975 -0.9704
19032TIP3    H278512   5.238   4.392  16.714  0.5129 -0.4642  0.7484
19033TIP3   OH278513   3.309   0.376   5.552 -0.3419  0.4960  0.2005
19033TIP3    H178514   3.302   0.441   5.622 -1.0637  0.3275  0.2852
19033TIP3    H278515   3.374   0.314   5.584  0.5619  1.3142  0.0040
19034TIP3   OH278516   3.678   0.050   3.671  0.9456  0.5514  0.4670
19034TIP3    H178517   3.680  -0.012   3.599  1.5079  1.2776 -0.1620
19034TIP3    H278518   3.638   0.002   3.743 -2.6872  0.7884 -1.2141
19035TIP3   OH278519   1.421   1.891   5.791 -0.0004 -0.2856  0.6688
19035TIP3    H178520   1.499   1.848   5.825 -0.3803 -0.8430  0.8605
19035TIP3    H278521   1.450   1.978   5.764  0.3678  0.0619  2.1421
19036TIP3   OH278522   3.632   5.027  16.409  0.1013  0.2635 -0.1489
19036TIP3    H178523   3.586   5.099  16.452  1.9648  0.9398  0.8156
19036TIP3    H278524   3.626   5.047  16.316  0.0880  1.3284  0.0761
19037TIP3   OH278525   2.161   1.254   1.924 -0.2316 -0.1868  0.0589
19037TIP3    H178526   2.145   1.161   1.935  0.0689 -0.4283 -1.3814
19037TIP3    H278527   2.100   1.281   1.856  1.2871  0.1396 -1.2426
19038TIP3   OH278528   6.057   1.844  16.700  0.1824 -0.3647  0.2069
19038TIP3    H178529   6.082   1.751  16.696 -1.6895 -0.8668 -0.7542
19038TIP3    H278530   6.036   1.859  16.792 -1.3361 -1.4334  0.0722
19039TIP3   OH278531   6.233   1.903  12.752  0.2584  0.7472  0.6842
19039TIP3    H178532   6.214   1.809  12.751 -1.6207  1.0441 -1.9103
19039TIP3    H278533   6.315   1.911  12.704  0.1890  0.4761  0.5153
19040TIP3   OH278534   2.544   6.130  12.185  0.2245  0.4193  0.5439
19040TIP3    H178535   2.542   6.106  12.092 -0.5360  1.5362  0.2568
19040TIP3    H278536   2.455   6.159  12.204  0.1769 -0.5042  1.8266
19041TIP3   OH278537   5.439   5.829   0.871 -0.3169 -0.0908  0.0432
19041TIP3    H178538   5.449   5.854   0.963 -0.1589 -1.2234  0.3458
19041TIP3    H278539   5.407   5.738   0.874  1.9724 -0.9978 -1.0157
19042TIP3   OH278540   4.206   3.007   2.482  0.4549 -0.2229  0.5593
19042TIP3    H178541   4.133   2.978   2.537 -0.6528  0.8428 -0.3074
19042TIP3    H278542   4.175   3.087   2.441  2.0236  0.1031 -0.0617
19043TIP3   OH278543   1.471   5.434   5.308  0.0150 -0.0154 -0.1773
19043TIP3    H178544   1.506   5.348   5.287 -2.3204 -0.6202 -2.0773
19043TIP3    H278545   1.512   5.493   5.244  1.7621  0.4080  1.2462
19044TIP3   OH278546   0.686   0.149  16.183 -0.4684 -0.0173 -0.1427
19044TIP3    H178547   0.699   0.058  16.209  1.2925 -0.3228 -1.8650
19044TIP3    H278548   0.718   0.200  16.258  1.2442 -0.8436 -0.2634
19045TIP3   OH278549   0.936   4.223   4.858  0.0511  0.5155  0.3026
19045TIP3    H178550   1.025   4.236   4.822  0.3290  1.0508  1.1522
19045TIP3    H278551   0.899   4.152   4.805  1.5962 -0.8933  1.0092
19046TIP3   OH278552   3.755   3.769  16.226  0.1082 -0.0671 -0.1263
19046TIP3    H178553   3.704   3.741  16.151  0.4057  0.4821 -0.5368
19046TIP3    H278554   3.766   3.863  16.214  0.2313  0.0139  0.5596
19047TIP3   OH278555   1.915   4.601  11.684 -0.5967  0.3046 -0.3572
19047TIP3    H178556   1.965   4.520  11.691  0.0744  0.6574 -0.9043
19047TIP3    H278557   1.924   4.627  11.592 -0.7620  1.0172 -0.1797
19048TIP3   OH278558   2.751   3.887  14.026 -0.6659  0.0632 -0.4663
19048TIP3    H178559   2.741   3.973  13.984  0.9747 -0.3117 -1.6979
19048TIP3    H278560   2.845   3.874  14.033 -0.8471 -2.0873 -1.2901
19049TIP3   OH278561   4.059   5.990   0.839  0.3543  0.2459 -0.0177
19049TIP3    H178562   4.142   5.953   0.810  0.4670  0.8372 -0.4618
19049TIP3    H278563   4.075   6.085   0.843 -0.3238  0.3730 -0.2117
19050TIP3   OH278564   1.733   5.161   4.298  0.2489  0.0945  0.0657
19050TIP3    H178565   1.642   5.184   4.282  0.4721  0.9026 -0.0770
19050TIP3    H278566   1.782   5.209   4.231  0.8202 -0.0005  0.4085
19051TIP3   OH278567   5.528   0.999  15.113 -0.1325 -0.4255 -0.5047
19051TIP3    H178568   5.512   0.926  15.054  0.9173  0.9569 -2.6014
19051TIP3    H278569   5.505   1.077  15.063  1.6273  0.8678  0.5742
19052TIP3   OH278570   4.844   0.598  12.629  0.1449  0.6247 -0.7412
19052TIP3    H178571   4.929   0.556  12.613  0.2373  0.9716 -1.1752
19052TIP3    H278572   4.865   0.668  12.691 -0.0555 -0.1260  0.1996
19053TIP3   OH278573   0.869   2.240  14.282 -0.0988  0.2394  0.6853
19053TIP3    H178574   0.832   2.186  14.352  1.7065 -0.0690  1.4372
19053TIP3    H278575   0.855   2.330  14.311  0.9954  0.1083  1.6476
19054TIP3   OH278576   3.138   5.799   2.459 -0.4668 -0.8311  0.4158
19054TIP3    H178577   3.139   5.889   2.426  0.5552 -1.4242 -1.3319
19054TIP3    H278578   3.180   5.804   2.545  0.1875  0.2673  0.0531
19055TIP3   OH278579   2.510   5.682   4.419  0.0122  0.1298  0.2960
19055TIP3    H178580   2.551   5.605   4.379  0.6922  1.3532 -1.4805
19055TIP3    H278581   2.426   5.690   4.375 -0.5468 -0.2006  1.2676
19056TIP3   OH278582   2.500   1.429  12.333  0.2118  0.3333  0.1366
19056TIP3    H178583   2.426   1.434  12.394 -0.2647  0.1251 -0.4106
19056TIP3    H278584   2.545   1.513  12.344 -0.2321  0.5564  0.3182
19057TIP3   OH278585   0.169   2.394   0.702  0.0468 -0.1333 -0.2526
19057TIP3    H178586   0.208   2.317   0.742 -0.4442 -0.5543 -0.5683
19057TIP3    H278587   0.168   2.374   0.608  1.7947  1.1079 -0.5738
19058TIP3   OH278588   6.378   2.258   5.188  0.2898  0.0070  0.3080
19058TIP3    H178589   6.343   2.309   5.261  2.0251  0.7456  0.6742
19058TIP3    H278590   6.361   2.167   5.211 -0.4076  0.2919  0.9571
19059TIP3   OH278591   4.907   0.781   1.389  0.2940  0.0366  0.4975
19059TIP3    H178592   4.955   0.723   1.449  1.4002  2.1192  1.7551
19059TIP3    H278593   4.975   0.837   1.351 -0.8527  1.5759  0.6051
19060TIP3   OH278594   5.241   1.559  11.842  0.0972  1.0095 -0.1926
19060TIP3    H178595   5.168   1.621  11.845  0.2679  1.2305 -0.5136
19060TIP3    H278596   5.212   1.492  11.779 -0.3620  0.4014  0.6448
19061TIP3   OH278597   0.883   5.424  14.441  0.3244 -0.0318 -0.0777
19061TIP3    H178598   0.801   5.468  14.419  1.4054  1.0329 -2.2895
19061TIP3    H278599   0.925   5.481  14.505 -0.5745 -0.5120  0.9567
19062TIP3   OH278600   0.627   1.719  14.874 -0.8331 -0.5957  0.1177
19062TIP3    H178601   0.596   1.686  14.790  1.1242 -1.3601 -0.3374
19062TIP3    H278602   0.670   1.802  14.853 -2.4635  0.4609  0.7479
19063TIP3   OH278603   0.426   5.765  14.719 -0.2772  0.2901 -0.1003
19063TIP3    H178604   0.426   5.860  14.713 -0.2324  0.2294 -1.1603
19063TIP3    H278605   0.341   5.743  14.755 -0.9654  0.6472 -1.4589
19064TIP3   OH278606   6.679   5.591   1.810 -0.3497 -0.6077  0.7641
19064TIP3    H178607   6.722   5.668   1.848 -1.1987  0.1599  0.2119
19064TIP3    H278608   6.751   5.532   1.787  0.4243  0.5992 -0.0445
19065TIP3   OH278609   1.023   3.366   1.150 -0.0606  0.0233 -0.6073
19065TIP3    H178610   0.960   3.433   1.123  0.0630 -0.0570 -1.0979
19065TIP3    H278611   1.109   3.405   1.133  0.0375  0.3135  0.4997
19066TIP3   OH278612   2.667   2.129  15.992  0.0160  0.3945 -0.4337
19066TIP3    H178613   2.729   2.199  15.971 -0.2589  0.1125 -2.3827
19066TIP3    H278614   2.718   2.048  15.984  0.3762  0.3036  1.9701
19067TIP3   OH278615   2.461   4.138  16.602 -0.2290 -0.3074 -0.4864
19067TIP3    H178616   2.494   4.216  16.646 -1.8033  0.5783 -0.8030
19067TIP3    H278617   2.424   4.085  16.672  0.3209 -0.5029 -0.3406
19068TIP3   OH278618   1.319   0.203  15.689  0.3432 -0.0770  0.4012
19068TIP3    H178619   1.267   0.159  15.621  0.9373 -1.2737  0.6928
19068TIP3    H278620   1.370   0.133  15.728  1.0984  0.8500  1.1020
19069TIP3   OH278621   1.735   2.441  15.518 -0.2432 -0.0059 -0.5919
19069TIP3    H178622   1.807   2.392  15.556 -1.5681 -1.0774  0.6670
19069TIP3    H278623   1.694   2.485  15.592 -0.9024  0.5443 -1.2695
19070TIP3   OH278624   4.196   5.795  11.341 -0.2708 -0.3300 -0.3072
19070TIP3    H178625   4.257   5.829  11.406 -1.1060 -0.3933  0.5222
19070TIP3    H278626   4.251   5.741  11.283  0.4546 -0.3922  0.4194
19071TIP3   OH278627   0.875   6.120  14.871 -0.0545  0.0177 -0.8303
19071TIP3    H178628   0.882   6.028  14.848  0.9073  0.0560 -0.7620
19071TIP3    H278629   0.885   6.166  14.788 -2.6194  0.0380 -1.1825
19072TIP3   OH278630   0.319   5.652   0.103  0.2914 -0.1742 -0.2770
19072TIP3    H178631   0.313   5.652   0.008  1.9099 -0.1304 -0.4053
19072TIP3    H278632   0.346   5.741   0.126 -1.8674  0.3803  0.4100
19073TIP3   OH278633   6.624   4.471   3.346 -0.1058  0.0615 -0.2021
19073TIP3    H178634   6.549   4.491   3.403 -0.1556  1.4904 -0.7369
19073TIP3    H278635   6.695   4.525   3.380  0.2761 -0.1791 -0.6065
19074TIP3   OH278636   5.320   0.234  15.609 -0.6786 -0.2077 -0.0540
19074TIP3    H178637   5.410   0.206  15.591 -0.6988  0.2359 -0.8703
19074TIP3    H278638   5.296   0.186  15.688 -0.1945 -1.3357 -0.5744
19075TIP3   OH278639   3.159   2.639  12.610  0.2131 -0.2061  0.4772
19075TIP3    H178640   3.168   2.663  12.518  1.2290  0.7186  0.7964
19075TIP3    H278641   3.214   2.561  12.619 -0.1900 -0.5219  0.2220
19076TIP3   OH278642   2.031   4.774   2.262  0.2587 -0.1814 -0.2410
19076TIP3    H178643   2.014   4.751   2.354  0.3068 -1.0745 -0.4464
19076TIP3    H278644   1.975   4.715   2.212  0.8802 -0.2908 -0.8099
19077TIP3   OH278645   1.785   4.811   0.102 -0.1302  0.4393  0.6301
19077TIP3    H178646   1.695   4.781   0.087 -0.4650  0.8092  1.8202
19077TIP3    H278647   1.802   4.873   0.031 -1.9166  2.7171  2.0653
19078TIP3   OH278648   1.162   0.782   1.817  0.7925 -0.3358  0.1757
19078TIP3    H178649   1.248   0.757   1.849  0.8154 -1.8788 -1.0047
19078TIP3    H278650   1.155   0.742   1.730 -1.0356 -0.0980  0.1623
19079TIP3   OH278651   0.970   3.392  14.033 -0.2282  0.1514 -0.1058
19079TIP3    H178652   0.985   3.483  14.059 -0.5689 -0.5524  2.9623
19079TIP3    H278653   0.884   3.370  14.070 -0.0147 -1.5071 -0.5049
19080TIP3   OH278654   5.390   4.855  17.238  0.2430  0.5340  0.7074
19080TIP3    H178655   5.305   4.839  17.198  0.5035 -0.4356  0.5070
19080TIP3    H278656   5.389   4.803  17.319  0.4311  0.9761  1.0004
19081TIP3   OH278657   5.425   1.459  16.279  0.1982  0.0885  0.1437
19081TIP3    H178658   5.440   1.373  16.318  1.2070  0.6484  1.0274
19081TIP3    H278659   5.459   1.452  16.190 -2.2771 -1.2558 -0.7878
19082TIP3   OH278660   1.074   1.806  12.479 -0.3323 -0.1380  0.4384
19082TIP3    H178661   1.085   1.713  12.459 -0.6944 -0.0679 -0.1021
19082TIP3    H278662   1.013   1.838  12.413 -1.0538  0.2557  1.2783
19083TIP3   OH278663   3.996   0.274   2.194 -0.0825 -0.1085 -0.5171
19083TIP3    H178664   4.059   0.225   2.141  1.1309  1.8965 -1.0308
19083TIP3    H278665   4.010   0.366   2.170  0.0791  0.8672  2.7705
19084TIP3   OH278666   2.139   0.862   0.532  0.1833 -0.1651  0.1526
19084TIP3    H178667   2.110   0.774   0.506 -0.7886  0.5367 -1.3202
19084TIP3    H278668   2.062   0.917   0.518  1.7526  1.5747 -2.6191
19085TIP3   OH278669   4.635   4.170  10.514  0.0186 -0.2748  0.0291
19085TIP3    H178670   4.651   4.264  10.498  0.2367 -0.5657 -1.6968
19085TIP3    H278671   4.571   4.146  10.448  0.9723 -1.6329 -0.4381
19086TIP3   OH278672   3.276   6.425   0.394  0.2294  0.5237  0.3068
19086TIP3    H178673   3.356   6.477   0.388 -0.1411  1.1745  0.8910
19086TIP3    H278674   3.306   6.336   0.411  0.7980  0.9488  1.6107
19087TIP3   OH278675   3.122   1.712   4.129  0.0453 -0.0137  0.5427
19087TIP3    H178676   3.098   1.621   4.110 -2.0330  0.1468  2.1178
19087TIP3    H278677   3.107   1.722   4.223  2.5478  1.3437  0.8873
19088TIP3   OH278678   2.826   5.596  13.533 -0.4489  0.0667 -0.1392
19088TIP3    H178679   2.913   5.624  13.503  0.4541  0.5780  2.6563
19088TIP3    H278680   2.767   5.666  13.505  0.5449  1.1383  0.3415
19089TIP3   OH278681   1.231   1.845  11.530  0.1379 -0.1576 -0.3977
19089TIP3    H178682   1.277   1.808  11.604 -0.9040  0.6540  0.7076
19089TIP3    H278683   1.142   1.861  11.562  0.3292  2.6057 -0.9667
19090TIP3   OH278684   3.690   0.761  11.475  0.3651  0.0048  0.2199
19090TIP3    H178685   3.626   0.832  11.468  0.5839  0.4708  2.3258
19090TIP3    H278686   3.757   0.794  11.535  0.3275 -2.0395  1.5175
19091TIP3   OH278687   2.619   1.244  13.158  0.0665 -0.7340  0.3925
19091TIP3    H178688   2.703   1.288  13.148  0.4265 -1.4680  0.2002
19091TIP3    H278689   2.570   1.270  13.079  0.4475 -1.0399  0.0493
19092TIP3   OH278690   2.789   4.517  10.958  0.0264 -0.6676  0.0274
19092TIP3    H178691   2.882   4.538  10.964  0.1450 -0.1321 -2.5134
19092TIP3    H278692   2.748   4.596  10.923 -0.7290 -2.0297 -2.4728
19093TIP3   OH278693   2.934   1.308  16.880 -0.1754 -0.3842 -0.3258
19093TIP3    H178694   3.013   1.350  16.914 -1.9978  0.9445  2.6158
19093TIP3    H278695   2.914   1.238  16.942 -1.1181 -0.9722 -1.2429
19094TIP3   OH278696   1.650   4.709  13.366 -0.2268  0.4076 -0.1730
19094TIP3    H178697   1.628   4.646  13.434  2.4713  0.6580  1.0562
19094TIP3    H278698   1.575   4.707  13.306 -2.4939 -0.1762  2.4992
19095TIP3   OH278699   4.889   6.635   2.847 -0.5629 -0.9995 -0.1565
19095TIP3    H178700   4.803   6.650   2.810  0.4283  0.0529 -2.2070
19095TIP3    H278701   4.877   6.563   2.909 -2.6515 -1.7472 -1.3532
19096TIP3   OH278702   0.373   1.607  12.246 -0.3126 -1.0107 -0.1203
19096TIP3    H178703   0.347   1.691  12.284 -1.0406 -0.5439 -1.5905
19096TIP3    H278704   0.468   1.612  12.239 -0.2066 -0.9219  1.1587
19097TIP3   OH278705   2.863   3.487  15.688  0.6464  0.2554 -0.5320
19097TIP3    H178706   2.797   3.431  15.731  0.4594 -0.5867 -1.8672
19097TIP3    H278707   2.945   3.438  15.697  1.4679  1.9132  2.3256
19098TIP3   OH278708   6.167   4.390  13.390  0.1259 -0.1877  0.0279
19098TIP3    H178709   6.154   4.480  13.418 -1.1397 -0.4951  0.4683
19098TIP3    H278710   6.262   4.378  13.393  0.5320  1.7760 -2.1274
19099TIP3   OH278711   2.895   4.380   1.112 -0.2625 -0.1509 -0.2550
19099TIP3    H178712   2.864   4.415   1.195  0.1086  0.3513 -0.3250
19099TIP3    H278713   2.888   4.453   1.051 -1.2578 -0.7257 -0.8596
19100TIP3   OH278714   3.762   5.399   2.715 -0.1700 -0.0374 -0.1227
19100TIP3    H178715   3.734   5.490   2.724 -0.4932 -0.1631  0.1681
19100TIP3    H278716   3.794   5.392   2.625 -1.5081  0.0022 -0.6190
19101TIP3   OH278717   5.465   1.210   4.223  0.5841 -0.4240  0.1590
19101TIP3    H178718   5.465   1.115   4.209 -0.5674 -0.1782 -1.9396
19101TIP3    H278719   5.549   1.240   4.188  0.2480 -0.5090 -0.7499
19102TIP3   OH278720   1.283   3.026  15.577 -0.3073  0.0960 -0.0323
19102TIP3    H178721   1.255   3.016  15.486 -0.2071  1.3433 -0.2300
19102TIP3    H278722   1.273   3.120  15.594  0.6097  0.0376  0.9314
19103TIP3   OH278723   3.411   5.751  11.059 -0.2271 -0.0697  0.3227
19103TIP3    H178724   3.488   5.784  11.011  0.1936 -1.8620 -0.3244
19103TIP3    H278725   3.448   5.702  11.132 -0.8180  0.3538  0.9145
19104TIP3   OH278726   5.532   1.589  11.621 -0.3058  0.0350 -0.3725
19104TIP3    H178727   5.539   1.663  11.681  0.4462 -0.8038  0.6126
19104TIP3    H278728   5.622   1.557  11.613 -0.6847 -1.0413 -0.4192
19105TIP3   OH278729   4.124   4.360   3.800  0.2921  0.1174 -0.3555
19105TIP3    H178730   4.152   4.435   3.852 -1.8413  1.1095 -0.5276
19105TIP3    H278731   4.058   4.316   3.854  0.3194 -0.6634 -0.9330
19106TIP3   OH278732   2.177   6.064  15.918  0.2054 -0.2290  0.0085
19106TIP3    H178733   2.183   6.152  15.954 -0.1193 -0.4797  0.7118
19106TIP3    H278734   2.185   6.075  15.824  1.2763  0.4395  0.1583
19107TIP3   OH278735   0.574   2.908  16.027 -0.2385 -0.0806  0.3116
19107TIP3    H178736   0.575   2.829  16.081  0.7154  0.0946  0.5672
19107TIP3    H278737   0.542   2.977  16.085  0.4479  0.0356  0.5626
19108TIP3   OH278738   6.284   4.785   3.503  0.5877  0.7958  0.0416
19108TIP3    H178739   6.342   4.711   3.488 -1.9951 -1.0870 -1.4543
19108TIP3    H278740   6.309   4.850   3.436  2.6821  1.2554  1.1908
19109TIP3   OH278741   1.972   4.865   4.325  0.2133  0.7224  0.4556
19109TIP3    H178742   2.062   4.851   4.353  0.4718 -2.1252 -1.3657
19109TIP3    H278743   1.919   4.822   4.392  0.1167  2.7062  1.7154
19110TIP3   OH278744   5.186   0.866   1.929 -0.1521 -0.0642  0.3742
19110TIP3    H178745   5.117   0.930   1.949 -0.5079  0.0600 -1.0807
19110TIP3    H278746   5.148   0.812   1.860  0.8487 -0.6335  0.2537
19111TIP3   OH278747   5.175   4.412  12.893 -0.1345  0.3478  0.3563
19111TIP3    H178748   5.241   4.481  12.884  0.2490  0.0069  0.5756
19111TIP3    H278749   5.221   4.331  12.874 -1.1772  0.3367 -2.5893
19112TIP3   OH278750   0.101   3.606  13.370  0.4674 -0.3530  0.0339
19112TIP3    H178751   0.113   3.614  13.275  1.9754  0.0967  0.2198
19112TIP3    H278752   0.043   3.531  13.382  0.4169 -0.5335 -1.2387
19113TIP3   OH278753   3.991   1.377   5.242  0.5874  0.0307 -0.4181
19113TIP3    H178754   3.976   1.466   5.212 -0.1248 -0.8107 -2.8731
19113TIP3    H278755   3.903   1.341   5.256  0.8792  0.3589  2.9778
19114TIP3   OH278756   2.720   2.838   5.373 -0.1806 -0.1928 -0.2131
19114TIP3    H178757   2.797   2.882   5.337 -0.8865  1.5142  0.2873
19114TIP3    H278758   2.754   2.790   5.449  0.3047  1.0877  0.4094
19115TIP3   OH278759   4.817   0.382  13.153 -0.3638 -0.3496 -0.1677
19115TIP3    H178760   4.911   0.379  13.135 -0.0256  2.9670  0.4256
19115TIP3    H278761   4.807   0.343  13.239  0.5003 -0.5457 -0.1501
19116TIP3   OH278762   4.537   5.424  15.832  0.1178  0.6887 -0.1120
19116TIP3    H178763   4.629   5.452  15.834 -0.2258  1.8655  0.7244
19116TIP3    H278764   4.536   5.347  15.775  2.0540 -0.9193  1.8403
19117TIP3   OH278765   2.084   0.455  14.299  1.1069 -0.1180 -0.4855
19117TIP3    H178766   2.009   0.487  14.349  1.8144 -0.7718  1.0698
19117TIP3    H278767   2.062   0.364  14.278  1.4940 -0.3382  0.0504
19118TIP3   OH278768   2.931   2.566   3.509  0.8305  0.1038  0.5497
19118TIP3    H178769   2.876   2.584   3.432  0.2306 -1.6742  0.5171
19118TIP3    H278770   2.868   2.549   3.579  1.2931 -1.6651  0.5821
19119TIP3   OH278771   6.666   0.512  13.872 -0.0140  0.6391  0.3366
19119TIP3    H178772   6.647   0.526  13.779 -1.2754 -0.7944  0.3369
19119TIP3    H278773   6.690   0.420  13.877 -0.0498  0.6821  1.4411
19120TIP3   OH278774   5.509   6.436  16.329  0.2590 -0.3515 -0.1994
19120TIP3    H178775   5.499   6.349  16.289  0.7710 -0.4004 -0.2325
19120TIP3    H278776   5.575   6.424  16.397 -0.1545 -0.1279  0.2410
19121TIP3   OH278777   0.362   1.546  11.939 -0.4027  0.1173  0.7920
19121TIP3    H178778   0.429   1.477  11.942 -0.9086 -0.3707  0.9118
19121TIP3    H278779   0.330   1.551  12.029 -1.4457 -0.5661  0.4756
19122TIP3   OH278780   3.478   1.005  13.595 -0.3707 -0.1894 -0.6980
19122TIP3    H178781   3.445   1.078  13.543 -0.0249 -0.6481 -1.5873
19122TIP3    H278782   3.523   1.047  13.669 -1.4433  0.4591 -0.3858
19123TIP3   OH278783   3.728   4.739  13.431  0.2724 -0.1355  0.2561
19123TIP3    H178784   3.667   4.679  13.474  0.7644 -0.7721  0.0795
19123TIP3    H278785   3.714   4.823  13.476 -1.6219  0.0732 -0.6025
19124TIP3   OH278786   5.029   4.169  16.042  0.1011  0.3870  0.4386
19124TIP3    H178787   4.941   4.178  16.004  0.6482 -0.0112 -0.9714
19124TIP3    H278788   5.027   4.226  16.119 -1.5187  0.0847  0.6682
19125TIP3   OH278789   1.370   0.063  13.634 -0.5721 -0.0128  0.9627
19125TIP3    H178790   1.371   0.129  13.565 -4.3017 -0.9760 -0.2478
19125TIP3    H278791   1.388   0.112  13.715 -0.4657  1.9435 -0.1917
19126TIP3   OH278792   0.036   2.393   5.444 -0.2317  0.1894 -1.3415
19126TIP3    H178793   0.017   2.391   5.350  0.1325 -0.8099 -1.4101
19126TIP3    H278794   0.002   2.310   5.477 -1.3802  1.0193 -0.3653
19127TIP3   OH278795   6.340   0.507  12.546  0.1894  0.1891 -0.1906
19127TIP3    H178796   6.388   0.589  12.531 -0.6092  0.3378 -2.2527
19127TIP3    H278797   6.390   0.441  12.498 -1.2044  0.2163 -1.7637
19128TIP3   OH278798   2.244   2.919  10.972 -0.2831 -0.1676  0.4107
19128TIP3    H178799   2.251   2.912  10.876 -1.3738 -1.1919  0.3923
19128TIP3    H278800   2.317   2.977  10.996  0.4104 -0.4077 -0.9674
19129TIP3   OH278801   3.022   1.664  15.848 -0.3629 -0.4357 -0.3059
19129TIP3    H178802   3.016   1.604  15.922  0.7449  0.7812  0.8326
19129TIP3    H278803   3.031   1.608  15.772 -1.4512 -1.7288  0.4723
19130TIP3   OH278804   4.769   2.249   0.118 -0.1412 -0.6169  0.6493
19130TIP3    H178805   4.855   2.207   0.115 -0.9909 -2.3841 -0.6453
19130TIP3    H278806   4.786   2.339   0.091  1.1796 -1.2268 -0.7409
19131TIP3   OH278807   0.390   6.477  16.872  0.2614 -0.2118 -0.1040
19131TIP3    H178808   0.451   6.493  16.800  0.4453  0.5152  0.2027
19131TIP3    H278809   0.311   6.526  16.846  0.5093  0.4825  0.4235
19132TIP3   OH278810   0.661   6.462   1.738  0.0787 -0.0187 -0.3059
19132TIP3    H178811   0.757   6.461   1.744  0.0806 -0.3897 -0.4206
19132TIP3    H278812   0.633   6.503   1.820  0.3456  0.3861 -0.4126
19133TIP3   OH278813   2.140   1.281  12.152  0.6126  1.2807 -0.0311
19133TIP3    H178814   2.174   1.366  12.126  1.9753  1.5071  2.2610
19133TIP3    H278815   2.105   1.294  12.240 -0.2856 -0.2713 -0.1111
19134TIP3   OH278816   0.379   0.567  12.126  0.6268 -0.6088  0.1572
19134TIP3    H178817   0.339   0.501  12.183  1.2599 -0.3203  0.9706
19134TIP3    H278818   0.307   0.600  12.072 -0.4445  0.4592  2.1137
19135TIP3   OH278819   1.673   5.993  14.396 -0.1399  0.7568 -0.0118
19135TIP3    H178820   1.616   5.999  14.473 -1.5392  2.6973 -1.0853
19135TIP3    H278821   1.623   6.038  14.327  2.1600  1.3850 -1.3599
19136TIP3   OH278822   2.731   5.976  15.501 -0.3565  0.3897  0.3328
19136TIP3    H178823   2.802   5.924  15.464 -1.1748 -0.1513 -0.5188
19136TIP3    H278824   2.772   6.026  15.572  1.1444  1.0395 -0.9343
19137TIP3   OH278825   1.902   0.389  15.387  0.2197  0.0225  0.5232
19137TIP3    H178826   1.919   0.319  15.325 -0.6059  0.8575 -0.7105
19137TIP3    H278827   1.846   0.349  15.453  1.6037 -1.0394  1.0841
19138TIP3   OH278828   4.327   6.356   1.250  0.1024 -0.5003 -0.2880
19138TIP3    H178829   4.282   6.345   1.334 -0.7312 -2.5032 -0.9416
19138TIP3    H278830   4.401   6.295   1.254  1.4021  1.0098 -0.1836
19139TIP3   OH278831   0.428   2.086   2.181  0.1331  0.0168 -0.1491
19139TIP3    H178832   0.436   2.131   2.097 -2.1181 -0.2432 -0.5740
19139TIP3    H278833   0.472   2.002   2.168  0.9599  0.5236 -0.6337
19140TIP3   OH278834   1.879   5.659   0.965 -0.1548  0.0701  0.0417
19140TIP3    H178835   1.795   5.634   1.005  0.5244 -0.1148  1.4405
19140TIP3    H278836   1.903   5.584   0.912 -0.2460 -0.4508  0.7145
19141TIP3   OH278837   1.942   3.085  15.650  0.0888 -0.2738 -0.2317
19141TIP3    H178838   1.995   3.076  15.571 -0.9126 -2.4698 -0.7333
19141TIP3    H278839   1.950   3.000  15.694  0.2892  0.7608  1.8491
19142TIP3   OH278840   1.247   3.423   4.506 -0.5021 -0.2137  0.1154
19142TIP3    H178841   1.177   3.449   4.446 -0.0321 -0.0278 -0.3678
19142TIP3    H278842   1.263   3.501   4.559  0.6078  0.3886 -1.0387
19143TIP3   OH278843   1.378   2.207  17.127 -0.0090 -0.6083  0.5372
19143TIP3    H178844   1.313   2.190  17.058 -0.9805 -1.0340  1.5153
19143TIP3    H278845   1.325   2.218  17.206  0.7861  3.3474  0.6906
19144TIP3   OH278846   1.342   2.938   2.862 -0.3916 -0.2907 -0.1888
19144TIP3    H178847   1.368   3.011   2.917  0.7977 -0.8005 -0.0441
19144TIP3    H278848   1.346   2.862   2.920  1.0487 -0.8662 -0.9867
19145TIP3   OH278849   4.928   5.739  16.700  0.2166 -0.1241  0.1388
19145TIP3    H178850   4.898   5.814  16.750  0.8942  0.4062 -0.2324
19145TIP3    H278851   4.858   5.722  16.638  0.0223  0.1462  0.2805
19146TIP3   OH278852   5.563   5.959  16.232 -0.3124 -0.4907  0.1624
19146TIP3    H178853   5.563   5.891  16.298 -1.0882 -0.3688  0.2996
19146TIP3    H278854   5.605   5.919  16.156  2.1062 -0.1120  1.2140
19147TIP3   OH278855   4.067   2.805  16.695  0.2060 -0.0478 -0.6292
19147TIP3    H178856   3.997   2.810  16.760 -0.2003 -1.4470 -0.9207
19147TIP3    H278857   4.137   2.860  16.730 -0.4760  0.2038  0.3728
19148TIP3   OH278858   6.706   4.508   2.744 -0.0001 -0.2884  0.6610
19148TIP3    H178859   6.679   4.473   2.829  0.1156 -0.0562  0.7971
19148TIP3    H278860   6.626   4.546   2.707  0.0775  0.1543  0.9411
19149TIP3   OH278861   2.700   5.594   2.207  0.4311 -0.0191 -0.0913
19149TIP3    H178862   2.673   5.576   2.297 -0.0307 -0.7880 -0.3739
19149TIP3    H278863   2.672   5.684   2.191 -0.5931 -0.2854  0.1423
19150TIP3   OH278864   0.922   4.388  16.110  0.3380  0.3835  0.1556
19150TIP3    H178865   0.903   4.413  16.200 -2.2053 -0.7020  0.0022
19150TIP3    H278866   0.836   4.370  16.071  1.5164 -2.7622 -1.3855
19151TIP3   OH278867   0.771   0.156   2.073 -0.3599 -0.2101  0.1662
19151TIP3    H178868   0.831   0.228   2.091 -0.9394 -0.1878  2.1935
19151TIP3    H278869   0.693   0.176   2.124 -1.7173 -0.7812 -1.5916
19152TIP3   OH278870   6.562   4.843   2.154  0.4164 -0.0461 -0.2583
19152TIP3    H178871   6.556   4.754   2.188 -1.8712  0.3862  0.5824
19152TIP3    H278872   6.655   4.865   2.162  0.8095 -1.8761  0.7243
19153TIP3   OH278873   4.240   4.911   4.651  0.2204 -0.2201  0.0574
19153TIP3    H178874   4.323   4.894   4.696 -0.2247  0.3860  1.1317
19153TIP3    H278875   4.183   4.948   4.718 -0.5361  0.5131 -0.9568
19154TIP3   OH278876   5.131   6.289  17.149  0.5461 -0.4292  0.2422
19154TIP3    H178877   5.071   6.355  17.114 -0.2510 -1.2116  0.1343
19154TIP3    H278878   5.113   6.288  17.243 -1.1060 -2.1283 -0.0440
19155TIP3   OH278879   2.285   4.399  11.029 -0.4947  0.4251 -0.3228
19155TIP3    H178880   2.320   4.457  11.096 -2.0868 -0.8545  1.7683
19155TIP3    H278881   2.192   4.423  11.023 -0.4807  0.2227 -1.8011
19156TIP3   OH278882   5.614   5.232  11.934  0.1958 -0.3765  0.0934
19156TIP3    H178883   5.598   5.232  12.029 -1.2037 -2.0072 -0.0884
19156TIP3    H278884   5.686   5.294  11.922 -0.9626  1.4581  1.9567
19157TIP3   OH278885   6.455   4.194  16.315 -0.6234  0.0076 -0.6762
19157TIP3    H178886   6.470   4.279  16.275 -0.6794  0.3892  0.0888
19157TIP3    H278887   6.470   4.131  16.245  1.8375  0.5070 -0.6866
19158TIP3   OH278888   4.688   2.053   5.365 -0.6557  0.1231  0.2957
19158TIP3    H178889   4.654   1.992   5.300  1.0220 -0.6875  0.1087
19158TIP3    H278890   4.662   2.016   5.450  0.0098 -0.6780  0.1683
19159TIP3   OH278891   1.241   2.045   4.159 -0.4869 -0.6632  0.9402
19159TIP3    H178892   1.268   2.007   4.075  0.0844  0.2783  0.6805
19159TIP3    H278893   1.160   2.092   4.139 -0.9603 -1.3704  1.1680
19160TIP3   OH278894   5.429   4.921  12.600  0.1586 -0.0260  0.2402
19160TIP3    H178895   5.354   4.863  12.616  0.9032 -0.7783  1.1330
19160TIP3    H278896   5.487   4.869  12.544 -0.8220  1.2834 -2.1729
19161TIP3   OH278897   0.507   2.641  16.160  0.2178 -0.3937 -0.4019
19161TIP3    H178898   0.532   2.551  16.140 -0.4606 -0.4909 -0.8187
19161TIP3    H278899   0.519   2.649  16.254  0.7794 -0.7624 -0.4378
19162TIP3   OH278900   4.731   6.221  15.500  0.1071 -0.0923  0.3348
19162TIP3    H178901   4.815   6.246  15.537  0.5165 -2.0019  0.7786
19162TIP3    H278902   4.734   6.253  15.410 -0.0439  2.7204  1.2354
19163TIP3   OH278903   1.988   2.794   1.240  0.2536  0.1600  0.0036
19163TIP3    H178904   1.948   2.855   1.302 -0.4497  0.9782 -1.2066
19163TIP3    H278905   1.927   2.721   1.235 -0.9381  1.1832 -1.4723
19164TIP3   OH278906   4.193   0.839  14.271 -0.0412 -0.1769 -0.4309
19164TIP3    H178907   4.239   0.774  14.324 -0.8425 -0.9001 -0.5859
19164TIP3    H278908   4.167   0.907  14.333 -0.2619 -0.6164 -0.0339
19165TIP3   OH278909   4.398   6.150  13.320  0.0773 -0.6571 -0.9233
19165TIP3    H178910   4.436   6.237  13.331  1.1128 -1.2490  0.6387
19165TIP3    H278911   4.318   6.164  13.269 -0.3088  1.3519  0.1242
19166TIP3   OH278912   2.834   2.997   1.208  0.5747 -1.0328  0.5588
19166TIP3    H178913   2.923   3.022   1.232 -0.1498  0.5360  1.8646
19166TIP3    H278914   2.783   3.012   1.288 -1.2531  0.3558 -0.7898
19167TIP3   OH278915   0.538   5.559  12.358 -0.3952  0.1759 -0.7551
19167TIP3    H178916   0.526   5.467  12.332  2.2882 -0.5409  0.2214
19167TIP3    H278917   0.494   5.566  12.442  0.7310 -0.7150 -0.0576
19168TIP3   OH278918   6.714   3.776  15.226  0.2108  0.5144 -0.4164
19168TIP3    H178919   6.686   3.734  15.308 -0.3673  0.2231 -0.7563
19168TIP3    H278920   6.686   3.716  15.157 -2.4980  2.3051 -1.0552
19169TIP3   OH278921   4.079   0.336   1.477  0.1372 -0.7209  0.2635
19169TIP3    H178922   4.028   0.397   1.423  0.9139 -1.2254 -1.0748
19169TIP3    H278923   4.013   0.285   1.524 -0.5391  1.2933  1.6414
19170TIP3   OH278924   4.959   6.723   3.195 -0.4749  0.3194  0.2960
19170TIP3    H178925   5.002   6.808   3.204  0.3810 -0.0613 -0.0956
19170TIP3    H278926   4.979   6.677   3.277 -3.3420  1.5059  1.7958
19171TIP3   OH278927   6.180   4.325  11.021  0.0823 -0.5955 -0.1394
19171TIP3    H178928   6.135   4.354  11.100  0.7491 -0.2455  0.1174
19171TIP3    H278929   6.198   4.406  10.973  1.8170 -0.5605  0.5078
19172TIP3   OH278930   4.487   4.871  12.291 -0.3834  0.2508  0.2313
19172TIP3    H178931   4.573   4.831  12.279 -0.4955 -0.3087  1.1939
19172TIP3    H278932   4.446   4.868  12.204  0.1028 -0.5689  0.0253
19173TIP3   OH278933   0.319   4.670   6.295 -0.0387  0.3269 -0.2615
19173TIP3    H178934   0.376   4.658   6.371  0.6277  2.3732 -0.3658
19173TIP3    H278935   0.362   4.621   6.224  0.7042  0.4803  0.0739
19174TIP3   OH278936   3.654   5.767   5.989 -0.2291 -0.3423 -0.2673
19174TIP3    H178937   3.583   5.764   5.925 -1.6419 -1.3915  1.2698
19174TIP3    H278938   3.631   5.701   6.054  2.0737 -0.5753  0.4108
19175TIP3   OH278939   0.291   1.057   2.085 -0.0698 -0.0034 -0.3358
19175TIP3    H178940   0.306   1.091   1.997 -1.3872  3.4175  0.5888
19175TIP3    H278941   0.376   1.024   2.113  1.1350  1.6012 -1.8552
19176TIP3   OH278942   3.576   2.664  13.259  0.6050 -0.1515 -0.4217
19176TIP3    H178943   3.616   2.712  13.332 -0.5787 -0.0004  0.1494
19176TIP3    H278944   3.537   2.732  13.205  0.0981 -0.3809 -0.3423
19177TIP3   OH278945   0.073   5.643   4.084 -0.0441 -0.1642 -0.6638
19177TIP3    H178946   0.060   5.564   4.137 -0.4738  0.2302 -0.1784
19177TIP3    H278947  -0.012   5.687   4.086  1.0328  2.0117  1.8015
19178TIP3   OH278948   3.524   1.324   1.238  0.0322 -0.8385  0.2152
19178TIP3    H178949   3.575   1.404   1.223 -1.1602 -0.4558 -2.2639
19178TIP3    H278950   3.443   1.337   1.189 -0.8901 -2.9330  1.0627
19179TIP3   OH278951   0.176   0.182   3.229  0.1868 -0.4455  0.1809
19179TIP3    H178952   0.155   0.091   3.248 -2.1827 -0.0048 -0.0430
19179TIP3    H278953   0.108   0.232   3.274  1.1678  1.1996 -0.0796
19180TIP3   OH278954   3.535   0.330  11.815 -0.3523  0.2072 -0.2682
19180TIP3    H178955   3.575   0.409  11.778 -2.6441  1.7519  0.3347
19180TIP3    H278956   3.598   0.260  11.796  0.8471  1.7920 -2.6210
19181TIP3   OH278957   3.705   0.979   2.214 -0.3906  0.0372 -0.3137
19181TIP3    H178958   3.769   0.962   2.145  1.6601  1.0289  1.2126
19181TIP3    H278959   3.728   1.066   2.246 -2.6334  0.4734  0.2330
19182TIP3   OH278960   1.622   4.382  11.038 -0.3181  0.5084  0.8457
19182TIP3    H178961   1.611   4.397  10.944  1.2424 -0.9515  0.3648
19182TIP3    H278962   1.678   4.304  11.043 -2.1415 -0.7984  2.9970
19183TIP3   OH278963   1.132   5.583  11.265  0.2107 -0.5511  0.8230
19183TIP3    H178964   1.111   5.599  11.173  2.1118 -0.6189  0.3432
19183TIP3    H278965   1.047   5.588  11.310 -0.4646  1.9450 -0.5399
19184TIP3   OH278966   3.243   6.713   4.984  0.3792 -0.9087  0.2631
19184TIP3    H178967   3.268   6.785   4.926 -0.7139 -0.5130  0.2607
19184TIP3    H278968   3.292   6.638   4.951  0.0646 -0.6025 -0.9409
19185TIP3   OH278969   1.343   5.478  12.589 -0.2481  0.0913 -0.0262
19185TIP3    H178970   1.423   5.432  12.565 -0.8859 -0.6857 -0.7077
19185TIP3    H278971   1.358   5.569  12.563 -0.5923 -0.5317 -2.7665
19186TIP3   OH278972   3.521   2.482   2.359  0.0313 -0.1781 -0.4527
19186TIP3    H178973   3.598   2.535   2.382 -0.9261  1.0330  0.0836
19186TIP3    H278974   3.480   2.462   2.443 -0.1116 -1.0296 -0.7187
19187TIP3   OH278975   3.315   4.284  13.073 -0.1153 -0.1341  0.6876
19187TIP3    H178976   3.320   4.277  13.168  1.6706  0.2060  0.6414
19187TIP3    H278977   3.252   4.216  13.047  0.6601 -1.3794  1.9717
19188TIP3   OH278978   6.508   3.427  14.311 -0.5414 -0.7204  0.0155
19188TIP3    H178979   6.578   3.492  14.318 -1.7632  0.6077  0.3340
19188TIP3    H278980   6.546   3.357  14.257  1.0013 -0.0372  0.1453
19189TIP3   OH278981   2.026   3.552  17.296 -0.3211  0.2888 -0.3552
19189TIP3    H178982   1.971   3.618  17.254  1.5617  2.1269 -0.0698
19189TIP3    H278983   2.059   3.594  17.375  3.4207  0.2472 -1.7096
19190TIP3   OH278984   2.713   3.459  13.412 -0.7067  0.2033  0.5052
19190TIP3    H178985   2.728   3.369  13.441 -0.6281  0.1617  0.3397
19190TIP3    H278986   2.703   3.509  13.492 -0.6984  0.0552  0.5993
19191TIP3   OH278987   0.978   3.482   0.385  0.3910  0.7973  0.4961
19191TIP3    H178988   0.922   3.497   0.309  0.4025 -1.1787  0.0501
19191TIP3    H278989   0.956   3.554   0.445 -0.6179  1.6107 -0.7884
19192TIP3   OH278990   4.069   3.256   1.527 -0.0293 -0.0056 -0.0393
19192TIP3    H178991   4.021   3.278   1.607 -0.0797  0.0235 -0.0774
19192TIP3    H278992   4.115   3.337   1.505 -2.9095  1.2325 -2.1128
19193TIP3   OH278993   1.168   3.347   5.936  0.3703  0.0071  0.2715
19193TIP3    H178994   1.131   3.324   6.022 -0.2916 -0.0946 -0.0345
19193TIP3    H278995   1.255   3.380   5.956  0.5354 -0.7998  0.9058
19194TIP3   OH278996   1.746   2.973   0.001 -0.0528 -0.5684  0.2307
19194TIP3    H178997   1.838   2.992   0.018 -0.2242 -0.0023  0.5520
19194TIP3    H278998   1.743   2.878  -0.007  0.3530 -0.7112  1.5274
19195TIP3   OH278999   2.154   0.049  11.036 -0.4231 -0.2011  0.0697
19195TIP3    H179000   2.084   0.021  10.978 -0.4712 -0.7065  0.3623
19195TIP3    H279001   2.154   0.145  11.031 -0.8979 -0.2162 -0.2040
19196TIP3   OH279002   0.390   4.802  13.630 -0.0006  0.1670  0.1636
19196TIP3    H179003   0.409   4.733  13.566  1.1953  0.3506  0.2967
19196TIP3    H279004   0.363   4.877  13.577 -1.1168 -0.3169  0.0088
19197TIP3   OH279005   4.452   6.003   4.561  0.2483 -0.2744 -0.1237
19197TIP3    H179006   4.418   5.953   4.635 -0.7098  0.1631 -0.2508
19197TIP3    H279007   4.543   5.974   4.552 -0.1131 -1.5891  0.1525
19198TIP3   OH279008   1.278   4.751   0.240 -0.1866  0.2160 -0.2328
19198TIP3    H179009   1.189   4.753   0.276  0.0243 -0.3287  0.3387
19198TIP3    H279010   1.312   4.839   0.254 -1.4736  1.2160 -2.6720
19199TIP3   OH279011   3.873   1.696   3.270 -0.0338 -0.0159 -0.5655
19199TIP3    H179012   3.930   1.644   3.214  0.9322  3.4344 -3.1128
19199TIP3    H279013   3.932   1.743   3.328 -0.7855 -0.6487  0.7670
19200TIP3   OH279014   0.452   3.066   4.105  0.2894  0.3836 -0.4148
19200TIP3    H179015   0.445   2.980   4.147 -0.7244  1.0365  0.8183
19200TIP3    H279016   0.503   3.119   4.167 -0.8692  1.2415 -0.1728
19201TIP3   OH279017   5.704   4.561  12.274 -0.0617  0.2691 -0.2566
19201TIP3    H179018   5.724   4.499  12.345  0.5369  0.9340  0.1697
19201TIP3    H279019   5.610   4.551  12.260  0.2559 -1.8710 -1.2908
19202TIP3   OH279020   5.905   0.685   0.614 -0.1398 -0.3620 -1.0278
19202TIP3    H179021   5.856   0.701   0.695  0.5098 -1.0738 -0.4717
19202TIP3    H279022   5.865   0.607   0.577  0.7811 -1.1817 -0.3656
19203TIP3   OH279023   1.599   1.860   0.044  0.1483 -0.1245  0.3191
19203TIP3    H179024   1.590   1.904   0.129  0.1599 -0.2802  0.4014
19203TIP3    H279025   1.686   1.820   0.048 -0.3898 -1.3126  0.7917
19204TIP3   OH279026   4.096   1.750   1.268 -0.4166  0.3514  0.2096
19204TIP3    H179027   4.060   1.665   1.244  1.2936 -0.1173 -0.9510
19204TIP3    H279028   4.191   1.739   1.257 -0.2188  2.7517 -1.2403
19205TIP3   OH279029   6.072   0.883  11.040 -0.6103  0.3560  0.1417
19205TIP3    H179030   6.118   0.887  10.956 -0.8867  1.7490  0.0250
19205TIP3    H279031   6.087   0.794  11.071  0.6737  0.2314 -0.7224
19206TIP3   OH279032   3.048   2.047   0.480  0.2965  0.3420 -0.1940
19206TIP3    H179033   3.002   2.115   0.529  1.5721 -0.0179  1.5844
19206TIP3    H279034   3.137   2.082   0.468  0.5889 -0.4747 -0.4348
19207TIP3   OH279035   4.229   5.992  17.028  0.3621 -0.4259 -0.6886
19207TIP3    H179036   4.204   6.066  16.973 -0.4918  0.3199  0.6242
19207TIP3    H279037   4.321   6.006  17.049  0.5117 -0.3664 -1.3841
19208TIP3   OH279038   3.714   2.490  10.692  0.1325  0.3893  0.6413
19208TIP3    H179039   3.803   2.522  10.707  1.1618 -0.6597 -2.4631
19208TIP3    H279040   3.658   2.566  10.709  1.8553  1.8075  0.3235
19209TIP3   OH279041   3.249   2.235   4.810  0.1385  0.0875  0.3569
19209TIP3    H179042   3.180   2.194   4.759  0.1370  0.2018  0.2676
19209TIP3    H279043   3.230   2.210   4.901  0.7123 -0.9528  0.2048
19210TIP3   OH279044   3.938   1.331   4.398 -0.2976 -0.0207 -0.5580
19210TIP3    H179045   3.898   1.418   4.406  0.9716  0.5746 -0.4972
19210TIP3    H279046   4.024   1.348   4.360  1.0533 -0.9767  1.9078
19211TIP3   OH279047   5.346   0.675  11.442  0.4646  0.1849 -0.1431
19211TIP3    H179048   5.263   0.687  11.486  0.8009 -0.6901  0.7546
19211TIP3    H279049   5.327   0.693  11.350 -1.0141 -1.2074 -0.1585
19212TIP3   OH279050   4.650   6.270  13.062  0.4438 -0.3495 -0.0669
19212TIP3    H179051   4.556   6.258  13.050  0.3774 -0.4841  0.5590
19212TIP3    H279052   4.671   6.347  13.009 -0.2179  0.3468  0.6590
19213TIP3   OH279053   4.222   2.997  16.805 -0.0400  0.1282  0.0522
19213TIP3    H179054   4.160   3.020  16.875  0.4233  0.4744  0.3555
19213TIP3    H279055   4.308   3.013  16.843  0.2099  0.6708 -0.7159
19214TIP3   OH279056   6.359   5.964   1.939  0.0063  0.0085  0.4738
19214TIP3    H179057   6.437   5.976   1.885 -0.2900  0.7262  0.1992
19214TIP3    H279058   6.311   6.046   1.930 -1.7102 -1.0824 -0.8386
19215TIP3   OH279059   1.123   6.151   3.593  0.6548  0.4443 -0.2427
19215TIP3    H179060   1.100   6.063   3.623  0.4458  0.2924 -0.8342
19215TIP3    H279061   1.082   6.159   3.507  1.0321  0.9621 -0.3820
19216TIP3   OH279062   0.383   4.319  16.999 -0.0857 -0.1991 -0.6469
19216TIP3    H179063   0.462   4.361  16.963 -0.3723 -0.7576 -2.0143
19216TIP3    H279064   0.416   4.256  17.062  0.4829  0.3985 -0.3304
19217TIP3   OH279065   5.843   0.357   5.162  0.3937 -0.1388  0.0596
19217TIP3    H179066   5.766   0.406   5.133 -0.2863 -0.9376  0.4616
19217TIP3    H279067   5.810   0.299   5.231  0.8426 -2.1473 -1.3100
19218TIP3   OH279068   4.685   0.832   0.745 -0.3043 -0.1488 -0.2061
19218TIP3    H179069   4.774   0.837   0.780 -0.2881  0.0463 -0.2745
19218TIP3    H279070   4.638   0.903   0.787 -0.1892  0.3197 -0.8486
19219TIP3   OH279071   1.736   3.633  12.119 -0.0287 -0.6628  0.2644
19219TIP3    H179072   1.762   3.674  12.201 -0.6927 -1.3283  0.8215
19219TIP3    H279073   1.754   3.699  12.052  2.2670 -0.7633  0.6891
19220TIP3   OH279074   1.823   4.019  16.319  0.2979 -0.7460  0.7703
19220TIP3    H179075   1.900   4.071  16.293 -0.6524  1.3495  1.8759
19220TIP3    H279076   1.771   4.079  16.373 -2.4069 -1.8723 -0.3886
19221TIP3   OH279077   3.487   2.685   0.193  0.2523 -0.0445  0.1488
19221TIP3    H179078   3.580   2.704   0.189  0.0921  1.0166  1.0292
19221TIP3    H279079   3.449   2.734   0.119  0.5033 -1.4000 -0.9274
19222TIP3   OH279080   2.127   3.133  11.449 -0.3104  0.0919  0.5536
19222TIP3    H179081   2.139   3.173  11.363 -1.5720  1.4875  0.9788
19222TIP3    H279082   2.145   3.040  11.436  0.1566  0.3897 -1.0606
19223TIP3   OH279083   6.592   5.702   2.622  0.5505 -0.1437 -0.6583
19223TIP3    H179084   6.575   5.669   2.534  0.4112 -2.5322  0.1830
19223TIP3    H279085   6.548   5.787   2.626  0.5776  0.0229 -2.8624
19224TIP3   OH279086   2.457   1.360  11.658  0.8337  0.0310  0.1528
19224TIP3    H179087   2.445   1.287  11.719  1.9496  0.2085  0.6161
19224TIP3    H279088   2.451   1.438  11.713 -1.5786  0.3945 -0.5308
19225TIP3   OH279089   6.603   0.960   1.897 -0.1886 -0.2084 -0.0776
19225TIP3    H179090   6.585   1.033   1.837 -1.3428  0.5187  1.0929
19225TIP3    H279091   6.542   0.892   1.870 -0.2083 -0.1522 -0.1767
19226TIP3   OH279092   2.273   4.533  14.900  0.0719 -0.0362  0.0394
19226TIP3    H179093   2.223   4.535  14.982  0.9916  3.0137  0.6848
19226TIP3    H279094   2.358   4.570  14.924  0.3824  0.9064 -2.2785
19227TIP3   OH279095   2.249   4.215   5.026  0.2589  0.1295 -0.1544
19227TIP3    H179096   2.281   4.277   4.960  1.8579  0.1601  0.5886
19227TIP3    H279097   2.233   4.269   5.103 -0.9804 -0.0012 -0.3074
19228TIP3   OH279098   0.488   6.742   4.798 -0.2118 -0.0344  0.0207
19228TIP3    H179099   0.525   6.789   4.873 -1.3084  1.5288 -0.3612
19228TIP3    H279100   0.563   6.719   4.745  0.4531  0.3220  0.7847
19229TIP3   OH279101   0.484   4.077  13.883  0.0951 -0.4664 -0.0986
19229TIP3    H179102   0.507   4.159  13.838  1.3768 -0.1190  1.1284
19229TIP3    H279103   0.491   4.010  13.815 -0.3689  0.3493 -0.9736
19230TIP3   OH279104   4.013   3.952  13.279 -0.1400  0.1892  0.4366
19230TIP3    H179105   4.027   3.858  13.261  2.8325  0.3060  1.5510
19230TIP3    H279106   3.994   3.956  13.372  1.5762  0.7637  0.7990
19231TIP3   OH279107   0.431   0.002   5.239 -0.0794  0.3389  0.1183
19231TIP3    H179108   0.507  -0.041   5.200  0.0160  1.9635 -1.5730
19231TIP3    H279109   0.387   0.045   5.166 -2.6575 -0.5224  1.0494
19232TIP3   OH279110   4.370   5.786  15.806  0.1728  0.3055  0.4859
19232TIP3    H179111   4.374   5.880  15.822  0.0158  0.6529 -1.2946
19232TIP3    H279112   4.341   5.779  15.715 -0.6513 -1.4856  0.8506
19233TIP3   OH279113   5.621   1.013  13.253  0.2277 -0.2538  0.3996
19233TIP3    H179114   5.578   1.075  13.195 -0.6780 -0.0092  1.2931
19233TIP3    H279115   5.562   1.005  13.328  1.0336 -1.0680  0.9814
19234TIP3   OH279116   2.887   1.055  15.975  0.0107  0.2282 -0.5489
19234TIP3    H179117   2.957   1.005  15.934  2.1723  1.3397  1.5933
19234TIP3    H279118   2.837   0.991  16.026  1.0355 -0.1886 -0.0567
19235TIP3   OH279119   2.824   3.472  15.407  0.2162 -0.0116 -0.8098
19235TIP3    H179120   2.741   3.423  15.404  0.4142 -0.3917 -0.2099
19235TIP3    H279121   2.850   3.470  15.499  1.4584 -0.8591 -1.1499
19236TIP3   OH279122   1.772   6.613   1.923 -0.1663 -0.5114  0.1110
19236TIP3    H179123   1.784   6.542   1.859 -3.2075 -0.8172 -0.2748
19236TIP3    H279124   1.705   6.669   1.884  0.3005  1.1377  1.5883
19237TIP3   OH279125   6.418   0.255   1.899  0.3982  0.3167 -0.4470
19237TIP3    H179126   6.499   0.289   1.860  0.8105 -0.5149 -0.3345
19237TIP3    H279127   6.427   0.160   1.894 -0.0188  0.2059  0.7095
19238TIP3   OH279128   0.861   3.321   5.696  0.1403  0.6895  0.3482
19238TIP3    H179129   0.833   3.409   5.721 -0.7169 -0.0272  2.0651
19238TIP3    H279130   0.783   3.267   5.706  0.5008 -0.1972 -1.2469
19239TIP3   OH279131   5.309   6.634   0.272  0.3651 -0.0051 -0.1671
19239TIP3    H179132   5.291   6.715   0.224  3.3740  0.3983 -0.8221
19239TIP3    H279133   5.359   6.662   0.348  0.5124 -1.1512  0.1720
19240TIP3   OH279134   0.424   4.331  11.685  0.6970  0.6630 -0.0443
19240TIP3    H179135   0.426   4.237  11.667  0.8988  0.8332 -0.9196
19240TIP3    H279136   0.425   4.337  11.781 -1.0363 -0.2690  0.0673
19241TIP3   OH279137   5.134   5.937  12.604  0.1042  0.3349  0.5484
19241TIP3    H179138   5.119   5.901  12.516  0.5399  2.1863 -0.3458
19241TIP3    H279139   5.145   5.860  12.660  0.9840 -0.8992 -1.2228
19242TIP3   OH279140   0.794   3.302   3.508 -0.6993 -0.2930  0.3900
19242TIP3    H179141   0.771   3.210   3.494  0.8624 -0.4036 -1.8006
19242TIP3    H279142   0.890   3.304   3.506 -0.6849  1.7032 -2.3917
19243TIP3   OH279143   5.269   3.202  16.795 -0.7196 -0.5977  1.0039
19243TIP3    H179144   5.217   3.169  16.721  0.8279  0.6233 -0.7457
19243TIP3    H279145   5.206   3.215  16.865 -2.3602 -1.3622 -0.2577
19244TIP3   OH279146   4.268   1.475  14.878  0.7502  0.7136  0.2595
19244TIP3    H179147   4.238   1.474  14.787 -1.1045  3.4210  0.7193
19244TIP3    H279148   4.194   1.510  14.927  1.8922 -0.1666  2.7727
19245TIP3   OH279149   4.859   3.446  16.272 -0.2324 -0.1529  0.1905
19245TIP3    H179150   4.847   3.496  16.353  2.3469  1.6851 -0.4388
19245TIP3    H279151   4.792   3.482  16.212  0.4129  1.3373  0.3196
19246TIP3   OH279152   2.838   0.292  13.743 -0.3952 -0.2337  0.2400
19246TIP3    H179153   2.747   0.266  13.729 -0.2710 -0.4586 -0.1804
19246TIP3    H279154   2.880   0.282  13.657  0.2496 -1.0725  0.6288
19247TIP3   OH279155   4.055   5.996  13.028  0.2067 -0.4936  0.3300
19247TIP3    H179156   3.997   5.938  13.078 -0.7485  0.6150  0.5539
19247TIP3    H279157   4.016   6.001  12.941  0.8717 -1.0090 -0.0023
19248TIP3   OH279158   3.559   3.496   3.261 -1.1815 -0.4248  0.0841
19248TIP3    H179159   3.578   3.545   3.181  0.1546 -0.7619  0.1679
19248TIP3    H279160   3.496   3.429   3.234 -0.9349 -0.3807 -0.6333
19249TIP3   OH279161   3.570   1.544   6.296  0.0778 -0.1030 -0.0150
19249TIP3    H179162   3.656   1.505   6.282 -0.2689 -0.2297 -2.1009
19249TIP3    H279163   3.513   1.470   6.316  0.1764 -0.1927 -0.0650
19250TIP3   OH279164   4.947   0.246  15.874  0.3086  0.0074 -0.1354
19250TIP3    H179165   4.874   0.243  15.936  0.2446 -1.5406 -0.2263
19250TIP3    H279166   4.906   0.259  15.789  0.1067 -0.9365 -0.1963
19251TIP3   OH279167   2.470   3.171  15.661 -0.6972 -1.0224 -0.0055
19251TIP3    H179168   2.493   3.226  15.586 -0.5965 -0.8001  0.1880
19251TIP3    H279169   2.419   3.228  15.719  0.7759 -0.6407  0.9668
19252TIP3   OH279170   0.460   5.805   4.385  0.4602  0.4643  0.1423
19252TIP3    H179171   0.470   5.805   4.290  1.6008  0.2706  0.2518
19252TIP3    H279172   0.422   5.890   4.405 -3.2913 -0.7482 -0.7794
19253TIP3   OH279173   3.111   4.458  17.056 -0.5117 -0.0405  0.5466
19253TIP3    H179174   3.051   4.401  17.008 -0.1276 -0.9910  1.1664
19253TIP3    H279175   3.055   4.523  17.099 -1.1774 -1.3462  1.7044
19254TIP3   OH279176   5.426   2.765  12.560  0.1626  0.3221  0.1647
19254TIP3    H179177   5.405   2.672  12.561  1.4017  0.0225  1.7901
19254TIP3    H279178   5.521   2.768  12.569  0.1105  1.7574  0.4099
19255TIP3   OH279179   5.584   5.580  17.415 -0.1629  0.2573  0.3784
19255TIP3    H179180   5.643   5.628  17.473 -1.1778  1.6959  0.2802
19255TIP3    H279181   5.503   5.631  17.417 -0.5645 -0.2459 -1.4739
19256TIP3   OH279182   1.298   6.622  15.797  0.4256  0.5009 -0.4126
19256TIP3    H179183   1.285   6.677  15.874  1.0399  0.9024 -0.5854
19256TIP3    H279184   1.392   6.605  15.796  0.6387  1.5481 -1.7614
19257TIP3   OH279185   2.167   5.787  11.219  0.4891 -0.3414 -0.0718
19257TIP3    H179186   2.075   5.790  11.191  0.0960 -2.2949  0.7975
19257TIP3    H279187   2.188   5.877  11.243 -1.0438  0.2402 -0.7568
19258TIP3   OH279188   0.280   5.423   4.698  0.9442 -0.7724 -0.6193
19258TIP3    H179189   0.304   5.466   4.616 -1.3857  1.0044 -0.4649
19258TIP3    H279190   0.231   5.345   4.670 -0.8939  0.4659 -0.9871
19259TIP3   OH279191   3.315   3.543  15.834 -0.1684  0.1712 -0.4746
19259TIP3    H179192   3.232   3.502  15.858 -0.7436  1.3000 -0.4945
19259TIP3    H279193   3.294   3.600  15.760  0.9996 -0.9339 -1.7286
19260TIP3   OH279194   3.663   4.717   3.526 -0.2359  0.7715  0.6064
19260TIP3    H179195   3.593   4.755   3.473 -1.1516  0.8933  1.8845
19260TIP3    H279196   3.651   4.622   3.517 -0.1932  0.7899  0.3452
19261TIP3   OH279197   6.352   1.785   5.600 -0.3118  0.1051  0.0863
19261TIP3    H179198   6.366   1.861   5.655 -1.4092 -0.1067  0.7018
19261TIP3    H279199   6.421   1.724   5.624  0.1344  0.6149  0.1110
19262TIP3   OH279200   3.455   0.712  16.406  0.3210  0.3648  0.3328
19262TIP3    H179201   3.475   0.744  16.493  1.2567  0.2288  0.1770
19262TIP3    H279202   3.508   0.632  16.396 -0.3633 -0.0521 -0.0691
19263TIP3   OH279203   3.112   2.125  14.878  0.2193 -0.1357 -0.2917
19263TIP3    H179204   3.043   2.086  14.931  0.9554  1.0291  1.6467
19263TIP3    H279205   3.171   2.052  14.859  0.8970 -0.3229  2.1331
19264TIP3   OH279206   5.426   4.033  13.712 -0.1531  0.3093 -0.7878
19264TIP3    H179207   5.462   4.027  13.623 -3.9467  0.0629 -2.4622
19264TIP3    H279208   5.404   4.126  13.723  2.5986  0.8923  1.0756
19265TIP3   OH279209   6.506   6.243   0.071  0.1319 -0.0891  0.4319
19265TIP3    H179210   6.468   6.253  -0.016  0.4899  0.3671  0.3218
19265TIP3    H279211   6.446   6.185   0.117  0.0296 -0.4802 -0.1765
19266TIP3   OH279212   2.245   1.716   0.514  0.2243 -0.6869 -0.3169
19266TIP3    H179213   2.229   1.668   0.595  0.8117  0.4424  0.5065
19266TIP3    H279214   2.335   1.697   0.491  0.8282  0.8002  0.6217
19267TIP3   OH279215   3.394   3.820  11.292  0.1836 -0.2596  0.0435
19267TIP3    H179216   3.361   3.760  11.358  0.0287 -0.0829  0.1261
19267TIP3    H279217   3.463   3.771  11.247 -0.5043 -0.8055 -0.4455
19268TIP3   OH279218   3.885   6.370   4.774 -0.6397  0.3694 -0.2861
19268TIP3    H179219   3.836   6.445   4.740 -0.3704 -0.1273 -1.8413
19268TIP3    H279220   3.976   6.387   4.749 -0.4851 -0.1933 -0.1139
19269TIP3   OH279221   6.412   0.475   3.588 -0.2327  0.5172  0.2457
19269TIP3    H179222   6.444   0.386   3.572  0.7219  0.7212  0.9458
19269TIP3    H279223   6.393   0.510   3.501  1.1129  0.2596 -0.1703
19270TIP3   OH279224   2.951   3.878   5.137  0.3767 -0.1925 -0.4074
19270TIP3    H179225   3.038   3.843   5.122  0.9181  0.4300  1.1433
19270TIP3    H279226   2.949   3.902   5.230 -1.5476 -0.4831 -0.3133
19271TIP3   OH279227   0.263   1.254   0.741 -0.4241 -0.1314 -0.0015
19271TIP3    H179228   0.284   1.255   0.647 -0.9108  0.3756 -0.1103
19271TIP3    H279229   0.208   1.331   0.754 -0.6882 -0.4190  0.6271
19272TIP3   OH279230   1.298   5.993  10.701  0.2651  0.2261  0.2897
19272TIP3    H179231   1.335   5.934  10.767  1.3507  1.1309  0.5040
19272TIP3    H279232   1.335   6.079  10.721 -2.1415  1.2752  0.6859
19273TIP3   OH279233   4.874   4.955  12.032 -0.8754  0.5201  0.1720
19273TIP3    H179234   4.796   4.947  11.978  0.3167  0.4983 -1.6199
19273TIP3    H279235   4.946   4.927  11.976  0.4303  0.4064  1.8078
19274TIP3   OH279236   5.416   3.859  10.599 -0.2122 -0.2748  0.1855
19274TIP3    H179237   5.498   3.872  10.551  0.0407 -2.0023  0.0745
19274TIP3    H279238   5.370   3.943  10.592  1.7156  0.8782  0.6238
19275TIP3   OH279239   2.077   3.260  14.850  0.6619  0.0160  0.0069
19275TIP3    H179240   1.999   3.284  14.899 -0.5975  0.7410 -2.1867
19275TIP3    H279241   2.141   3.327  14.874  0.0204  0.4598  0.5211
19276TIP3   OH279242   0.087   0.626   4.710 -0.7244  0.3764 -0.1049
19276TIP3    H179243   0.026   0.687   4.668 -2.3122 -1.8736 -1.2964
19276TIP3    H279244   0.039   0.592   4.785  0.1486  0.5995  0.5605
19277TIP3   OH279245   3.329   1.663  16.688 -0.4802  0.4250  0.3348
19277TIP3    H179246   3.372   1.740  16.726  0.8056  0.8124 -1.7323
19277TIP3    H279247   3.343   1.593  16.753  2.6127  0.7616  0.1826
19278TIP3   OH279248   2.585   1.068  11.460 -0.0258  0.0543  0.3719
19278TIP3    H179249   2.639   1.119  11.519  0.3088  0.3480 -0.1824
19278TIP3    H279250   2.621   1.084  11.373 -0.0592 -0.9412  0.1589
19279TIP3   OH279251   5.804   2.348  10.755  0.1760  0.3937 -0.1403
19279TIP3    H179252   5.866   2.275  10.750  0.2315  0.4856 -1.0935
19279TIP3    H279253   5.718   2.306  10.758  0.2314  0.2815 -0.1019
19280TIP3   OH279254   3.256   6.423  15.080 -0.4574  0.6173  0.0063
19280TIP3    H179255   3.223   6.510  15.057 -0.8104  0.8734  1.3788
19280TIP3    H279256   3.187   6.363  15.053  0.2151  0.6253 -1.8903
19281TIP3   OH279257   6.306   5.333   1.183  0.0826 -0.2714  0.2355
19281TIP3    H179258   6.232   5.393   1.183  0.3456  0.0727 -0.5899
19281TIP3    H279259   6.282   5.265   1.121  0.5965  0.0251 -0.2952
19282TIP3   OH279260   4.874   3.592  13.561 -0.3993  0.1377  0.0266
19282TIP3    H179261   4.795   3.559  13.603 -0.2335 -1.2981 -0.7378
19282TIP3    H279262   4.946   3.550  13.608 -0.0577  1.4765  0.7556
19283TIP3   OH279263   5.618   4.146  13.249  0.0518  0.3861 -0.0538
19283TIP3    H179264   5.689   4.201  13.214  0.3353 -0.3785 -0.7145
19283TIP3    H279265   5.540   4.177  13.203  0.3185 -0.1872 -0.9065
19284TIP3   OH279266   2.388   0.762  11.954  0.3488  0.4364 -0.3364
19284TIP3    H179267   2.383   0.675  11.914  0.6521  0.2205  0.0911
19284TIP3    H279268   2.445   0.812  11.896 -1.6232  1.0486 -1.8414
19285TIP3   OH279269   4.265   2.029   1.499 -0.3855  0.0188 -0.0586
19285TIP3    H179270   4.285   2.035   1.593 -0.5999  0.7173 -0.0555
19285TIP3    H279271   4.311   1.950   1.470  1.7624  1.1455  0.1061
19286TIP3   OH279272   1.460   1.127   5.073 -0.4666  0.2902  0.6794
19286TIP3    H179273   1.380   1.177   5.054  0.4190  1.0554 -1.3110
19286TIP3    H279274   1.464   1.124   5.169 -1.7701  2.0672  0.8520
19287TIP3   OH279275   2.682   5.869   3.424  0.3802  0.0529  0.0975
19287TIP3    H179276   2.681   5.939   3.490  0.3249 -0.0545  0.2125
19287TIP3    H279277   2.723   5.796   3.469  1.4288  0.3432 -0.3672
19288TIP3   OH279278   3.869   6.164   1.441 -0.3356 -0.3139 -0.3778
19288TIP3    H179279   3.954   6.192   1.475 -0.8142  1.1713 -0.3086
19288TIP3    H279280   3.806   6.217   1.490 -1.1433  0.7108 -2.3971
19289TIP3   OH279281   6.646   3.596  13.615 -0.0457 -0.2226 -0.0808
19289TIP3    H179282   6.553   3.590  13.638 -0.5364 -0.3607 -1.8870
19289TIP3    H279283   6.680   3.508  13.631 -0.5678 -0.5349 -0.6078
19290TIP3   OH279284   0.434   5.094  11.912 -0.0708  0.0120  0.2091
19290TIP3    H179285   0.340   5.108  11.908  0.1414  1.2264 -2.3223
19290TIP3    H279286   0.458   5.067  11.824  1.9856 -0.2122  0.7796
19291TIP3   OH279287   6.198   6.221  14.827  0.5814  0.3105  0.1488
19291TIP3    H179288   6.145   6.298  14.807 -0.5294 -0.5374 -0.2617
19291TIP3    H279289   6.140   6.165  14.879  0.3058 -1.5314 -1.9665
19292TIP3   OH279290   4.715   2.762   0.949 -0.1967 -0.9651 -0.1343
19292TIP3    H179291   4.809   2.778   0.943 -0.2979 -0.8241 -2.3197
19292TIP3    H279292   4.679   2.802   0.869 -2.7005  2.6816  2.4688
19293TIP3   OH279293   0.005   0.166   3.885 -0.0959 -0.1190  0.7189
19293TIP3    H179294  -0.037   0.237   3.838  0.3587 -0.0931  0.3384
19293TIP3    H279295   0.088   0.203   3.915  0.2404 -0.5428  0.3336
19294TIP3   OH279296   5.407   4.654   0.286 -0.4730  0.4812  0.1093
19294TIP3    H179297   5.474   4.686   0.346 -0.5757  0.8540  0.0270
19294TIP3    H279298   5.348   4.603   0.342  1.1952 -1.9789 -0.1876
19295TIP3   OH279299   6.317   2.280   2.247 -0.1646  0.1415 -0.0346
19295TIP3    H179300   6.260   2.271   2.323  0.4108  2.2962  0.7322
19295TIP3    H279301   6.405   2.266   2.280  0.0655  0.7750 -0.3565
19296TIP3   OH279302   5.586   0.065   3.453  0.0125 -0.3387 -0.5909
19296TIP3    H179303   5.596  -0.029   3.469 -1.6979 -0.6622 -1.1865
19296TIP3    H279304   5.582   0.104   3.540 -0.8545 -1.0290 -0.3076
19297TIP3   OH279305   3.501   1.059  14.556  0.3809 -0.1226  0.0822
19297TIP3    H179306   3.494   1.112  14.636 -0.7796  1.3419 -0.9208
19297TIP3    H279307   3.466   0.974  14.580  0.0013  0.3108  1.1382
19298TIP3   OH279308   6.148   3.537  16.420 -0.2337  0.5653 -0.4496
19298TIP3    H179309   6.111   3.597  16.485 -0.4645  0.3061 -0.3366
19298TIP3    H279310   6.071   3.497  16.379 -0.1033  1.2682 -1.4016
19299TIP3   OH279311   5.118   5.776   0.978 -0.1447  0.1412 -0.3485
19299TIP3    H179312   5.147   5.837   1.046 -0.2728  0.4179 -0.5397
19299TIP3    H279313   5.053   5.825   0.928  1.3818  0.6816 -1.9209
19300TIP3   OH279314   6.608   1.334  13.106 -0.2336  0.0296  0.2668
19300TIP3    H179315   6.590   1.285  13.186 -1.8196  1.5932  0.9524
19300TIP3    H279316   6.521   1.348  13.067  0.0970  2.3198  0.1828
19301TIP3   OH279317   4.621   1.901  12.730  0.1203 -0.3623 -0.0420
19301TIP3    H179318   4.613   1.929  12.821 -2.4517  1.5699 -0.7490
19301TIP3    H279319   4.587   1.811  12.731 -2.4514  0.5095  0.6085
19302TIP3   OH279320   5.596   2.052  17.154 -0.0609  0.1043  0.3319
19302TIP3    H179321   5.554   2.058  17.068 -0.2011 -2.4329  0.1479
19302TIP3    H279322   5.526   2.071  17.216 -0.1097  1.3173 -0.0639
19303TIP3   OH279323   5.270   6.154  13.776 -0.5305 -0.0684 -0.9935
19303TIP3    H179324   5.329   6.096  13.825  0.1927  0.6689 -0.9753
19303TIP3    H279325   5.258   6.230  13.833 -1.3866 -0.1420 -1.0634
19304TIP3   OH279326   1.239   2.529  13.239 -0.4639  0.5787  0.5777
19304TIP3    H179327   1.231   2.454  13.298  0.8187  0.8910  1.1690
19304TIP3    H279328   1.328   2.524  13.206 -0.9473  0.8209 -0.8083
19305TIP3   OH279329   0.788   0.762  11.334 -0.0533  0.1366 -0.4855
19305TIP3    H179330   0.853   0.829  11.359  0.8647 -0.4405 -1.2363
19305TIP3    H279331   0.800   0.751  11.240  0.4123 -1.6728 -0.2617
19306TIP3   OH279332   4.098   6.260   0.827 -0.0337 -0.2426 -0.7648
19306TIP3    H179333   4.156   6.251   0.752  2.2514  0.5792  0.7894
19306TIP3    H279334   4.145   6.318   0.887 -1.2681 -1.6684  1.7548
19307TIP3   OH279335   2.966   6.080   1.736 -0.3671  0.7106 -0.2370
19307TIP3    H179336   2.892   6.124   1.778  0.0588  0.4545  0.8379
19307TIP3    H279337   2.979   6.001   1.789 -0.0616  0.1627 -1.1169
19308TIP3   OH279338   0.961   3.710  16.397  0.6316 -0.0700 -0.0997
19308TIP3    H179339   0.941   3.621  16.425 -1.3124  0.6942  1.1230
19308TIP3    H279340   0.911   3.722  16.316  0.4689  0.0931  0.0261
19309TIP3   OH279341   3.835   6.318  17.255 -0.2241  0.0730  0.2163
19309TIP3    H179342   3.776   6.347  17.185 -0.0380 -1.1390 -0.4645
19309TIP3    H279343   3.780   6.319  17.334 -0.5349  1.1008  0.0042
19310TIP3   OH279344   0.646   6.085  10.804  0.0555 -0.0818 -0.5121
19310TIP3    H179345   0.578   6.053  10.863 -0.6730 -0.2723 -1.4238
19310TIP3    H279346   0.618   6.055  10.717  0.7414  0.7708 -1.0423
19311TIP3   OH279347   0.543   5.507  15.454  0.6329  0.1200 -0.3626
19311TIP3    H179348   0.616   5.494  15.393  0.3898 -0.3423 -0.5607
19311TIP3    H279349   0.561   5.446  15.525  0.4282 -0.0077 -0.4208
19312TIP3   OH279350   1.124   5.271  15.924  0.4309 -0.1324 -0.1337
19312TIP3    H179351   1.052   5.334  15.926  0.1739 -0.4192 -0.3424
19312TIP3    H279352   1.198   5.321  15.888  0.4532  0.2744  0.4628
19313TIP3   OH279353   4.955   4.057  11.319 -0.9402  0.4640  0.2482
19313TIP3    H179354   4.902   4.074  11.398 -0.4931  0.5741  0.5279
19313TIP3    H279355   5.044   4.045  11.352 -0.5703  1.4951 -0.3223
19314TIP3   OH279356   2.390   4.612   5.847  0.3400 -0.0677 -0.0175
19314TIP3    H179357   2.469   4.592   5.897 -0.8926 -2.7722  1.0280
19314TIP3    H279358   2.336   4.533   5.855 -1.0322  0.3640 -3.5482
19315TIP3   OH279359   5.106   0.197  11.736  0.1463 -0.5202  0.0808
19315TIP3    H179360   5.022   0.201  11.690  0.7333  0.5832 -0.9283
19315TIP3    H279361   5.082   0.178  11.827 -1.2644  0.7776  0.0171
19316TIP3   OH279362   6.718   0.785   4.058  0.0142  0.1168 -0.1411
19316TIP3    H179363   6.777   0.827   3.995  0.0779  0.6393  0.2597
19316TIP3    H279364   6.750   0.695   4.064  0.9542  0.4604  0.2741
19317TIP3   OH279365   1.313   3.235   1.099 -0.4886 -0.3149 -0.1582
19317TIP3    H179366   1.312   3.249   1.194 -1.3287 -1.0173 -0.0473
19317TIP3    H279367   1.273   3.313   1.062  0.4457  0.2566  0.0142
19318TIP3   OH279368   5.517   4.245  14.298 -0.4010  0.3908 -0.3899
19318TIP3    H179369   5.510   4.153  14.323  0.3282  0.1310 -1.0957
19318TIP3    H279370   5.608   4.254  14.268 -0.9279  0.9528 -1.8634
19319TIP3   OH279371   0.960   3.553   3.398  0.3243  0.7125 -0.6046
19319TIP3    H179372   0.979   3.460   3.406 -0.2614  0.6730  0.6937
19319TIP3    H279373   1.033   3.596   3.444  0.7076  0.9086 -1.3910
19320TIP3   OH279374   0.332   2.450   2.871  0.5421  0.4079 -0.3024
19320TIP3    H179375   0.340   2.355   2.867 -1.5988  0.0541  1.7621
19320TIP3    H279376   0.412   2.479   2.913  0.2936 -0.7263  1.0004
19321TIP3   OH279377   2.709   0.417   1.827  0.1204 -0.2338  0.3971
19321TIP3    H179378   2.689   0.509   1.844 -0.9434 -0.1910 -0.9069
19321TIP3    H279379   2.708   0.410   1.731  1.6236 -1.3097  0.4190
19322TIP3   OH279380   6.322   5.861  12.203 -0.0425  0.4581 -0.5734
19322TIP3    H179381   6.375   5.811  12.141  1.1369  1.1021 -0.1155
19322TIP3    H279382   6.309   5.802  12.277  1.8062  0.9505  0.2034
19323TIP3   OH279383   0.402   4.811   4.137 -0.0239 -0.1747  0.3866
19323TIP3    H179384   0.482   4.788   4.185 -0.5689 -1.0949  0.8766
19323TIP3    H279385   0.420   4.898   4.101  0.7561  0.1290  1.4606
19324TIP3   OH279386   2.926   4.593   0.911 -0.4045  0.1213  0.1420
19324TIP3    H179387   2.900   4.652   0.840 -2.8792  1.3865  1.9694
19324TIP3    H279388   2.993   4.642   0.959  1.0169 -0.5950 -1.0126
19325TIP3   OH279389   6.649   0.144  15.038 -0.5155  0.0270  0.6814
19325TIP3    H179390   6.701   0.082  14.986  1.0649  0.1687  2.0081
19325TIP3    H279391   6.709   0.216  15.056 -1.9885  1.4313  0.1417
19326TIP3   OH279392   0.407   2.600  13.576  0.4097  0.6409  0.5503
19326TIP3    H179393   0.321   2.567  13.602  0.6161 -2.4099 -2.1083
19326TIP3    H279394   0.469   2.538  13.616  1.1601  0.8249 -0.3089
19327TIP3   OH279395   2.584   3.255   4.413  0.2443 -0.3186  0.2863
19327TIP3    H179396   2.584   3.300   4.328  1.4542 -0.5067  0.1702
19327TIP3    H279397   2.545   3.169   4.394  0.5731 -0.3861 -0.0956
19328TIP3   OH279398   5.599   4.810   5.293  0.1003 -0.6074  0.5547
19328TIP3    H179399   5.648   4.888   5.267 -1.4516  0.1104 -0.3290
19328TIP3    H279400   5.666   4.741   5.300  1.4043  0.6110  0.6877
19329TIP3   OH279401   4.712   0.012   4.161 -0.0792  0.2817  0.2378
19329TIP3    H179402   4.630  -0.008   4.207 -0.3599  0.6540 -0.0963
19329TIP3    H279403   4.731  -0.068   4.111  1.9462 -1.4386  3.4141
19330TIP3   OH279404   4.605   5.082   3.463 -0.6691 -0.1183 -0.5167
19330TIP3    H179405   4.537   5.081   3.530  0.2170 -0.4836  0.3992
19330TIP3    H279406   4.568   5.134   3.392 -0.3517  3.3700  1.6414
19331TIP3   OH279407   6.554   4.097   4.867  0.0510  0.0081 -0.3680
19331TIP3    H179408   6.624   4.034   4.885 -0.5728 -0.9295 -1.1421
19331TIP3    H279409   6.477   4.043   4.851 -0.6251  0.9991 -0.5414
19332TIP3   OH279410   2.851   2.382   5.348  0.3503 -0.1140 -0.0138
19332TIP3    H179411   2.924   2.432   5.383 -0.1644  0.5028  0.2063
19332TIP3    H279412   2.802   2.354   5.425  0.3088 -0.4502 -0.1618
19333TIP3   OH279413   3.755   4.355  12.414 -0.0119  0.8566  0.4682
19333TIP3    H179414   3.730   4.352  12.507 -2.2624 -1.0334 -0.1140
19333TIP3    H279415   3.728   4.441  12.385 -0.8668  0.8452  1.1874
19334TIP3   OH279416   0.865   1.420   6.872  0.0376  0.0950  0.2599
19334TIP3    H179417   0.882   1.390   6.783 -1.4609  0.1783 -0.0655
19334TIP3    H279418   0.907   1.506   6.877  3.3014 -1.3593  0.8192
19335TIP3   OH279419   3.508   0.189  13.233  0.4342 -0.4049 -0.0543
19335TIP3    H179420   3.584   0.135  13.254 -0.0312 -1.1451 -0.2402
19335TIP3    H279421   3.449   0.130  13.186  0.3749  0.5488 -1.2127
19336TIP3   OH279422   4.771   4.449  16.918  0.1860 -0.3651  0.2874
19336TIP3    H179423   4.692   4.406  16.951  0.3566 -0.1135  1.0480
19336TIP3    H279424   4.751   4.470  16.827 -0.7200 -0.0675  0.5493
19337TIP3   OH279425   5.629   4.476   0.046  0.3848 -0.1063  0.2296
19337TIP3    H179426   5.580   4.430   0.114  1.3315 -1.4575  0.0442
19337TIP3    H279427   5.597   4.438  -0.036  1.3901 -0.6816  0.0883
19338TIP3   OH279428   0.702   3.520   5.399  0.0150  0.0854  0.3044
19338TIP3    H179429   0.672   3.441   5.445  0.4533  0.3111  0.9933
19338TIP3    H279430   0.631   3.541   5.339  0.8436 -2.1661 -1.6056
19339TIP3   OH279431   1.351   4.622   2.648  0.2652  0.0686  0.2639
19339TIP3    H179432   1.363   4.688   2.717  0.4995 -0.3491  0.6317
19339TIP3    H279433   1.433   4.573   2.648 -0.7176 -1.6941  1.5827
19340TIP3   OH279434   5.621   1.693   5.042 -0.3836 -0.0434  0.0050
19340TIP3    H179435   5.706   1.730   5.019 -0.7521  0.6149 -0.3502
19340TIP3    H279436   5.618   1.609   4.996  0.6305 -0.7290  1.1500
19341TIP3   OH279437   3.206   3.027   3.299 -0.0190 -0.3919 -0.4640
19341TIP3    H179438   3.251   2.975   3.233 -0.3487 -1.7297  0.3042
19341TIP3    H279439   3.121   3.047   3.260 -0.1605 -1.0598 -0.5168
19342TIP3   OH279440   4.914   2.266  14.955  0.0234  0.1697 -0.1959
19342TIP3    H179441   4.860   2.240  14.880  2.4975 -0.6291 -1.8135
19342TIP3    H279442   4.946   2.184  14.992  0.5319  0.6369  0.4257
19343TIP3   OH279443   0.185   1.074  17.389  0.4945 -0.5507  0.1972
19343TIP3    H179444   0.184   1.155  17.439  1.8052  0.3008 -1.0848
19343TIP3    H279445   0.164   1.101  17.300  0.0660 -1.7661 -0.0904
19344TIP3   OH279446   0.560   1.957   4.662  0.5800 -0.1704 -0.0666
19344TIP3    H179447   0.515   1.874   4.645 -0.4988  0.2164  0.8174
19344TIP3    H279448   0.635   1.956   4.602 -0.3981 -0.9855 -1.3241
19345TIP3   OH279449   2.198   6.552  15.833  0.3385 -0.2321  0.2006
19345TIP3    H179450   2.248   6.475  15.858 -1.7697 -2.0917 -0.9565
19345TIP3    H279451   2.151   6.578  15.912  0.4016 -0.6740  0.3813
19346TIP3   OH279452   1.855   2.142  16.859 -0.1966 -0.0865  0.2359
19346TIP3    H179453   1.783   2.141  16.922  1.4678  2.8061  2.4393
19346TIP3    H279454   1.909   2.067  16.883 -0.6180 -0.1731  0.9382
19347TIP3   OH279455   1.634   5.900  11.888  0.3455 -0.6913  0.2313
19347TIP3    H179456   1.586   5.976  11.855  0.7091  0.1603  1.5886
19347TIP3    H279457   1.567   5.833  11.903 -0.0784 -0.3822 -0.2705
19348TIP3   OH279458   0.821   3.286  14.529  0.3109 -0.1232 -0.3117
19348TIP3    H179459   0.874   3.260  14.454  1.0347  1.8487 -0.5616
19348TIP3    H279460   0.886   3.306  14.597 -0.1155  1.6008 -0.3743
19349TIP3   OH279461   1.103   5.694   2.729 -0.9531  0.4035  0.0725
19349TIP3    H179462   1.046   5.621   2.752  0.2537 -0.1368  1.4724
19349TIP3    H279463   1.168   5.697   2.799  0.1623  1.6217 -0.9632
19350TIP3   OH279464   3.856   2.091  17.186  0.5505  0.3268 -0.4607
19350TIP3    H179465   3.887   2.174  17.150  2.5182  0.9064  2.2479
19350TIP3    H279466   3.782   2.115  17.242 -1.2703 -0.3221 -2.4460
19351TIP3   OH279467   2.822   4.237   0.020  0.0478 -0.1837 -0.0495
19351TIP3    H179468   2.770   4.286  -0.044  0.7448 -0.2540 -0.6806
19351TIP3    H279469   2.873   4.175  -0.032  0.2753 -0.5716  0.6198
19352TIP3   OH279470   0.712   0.018   2.464  0.3676 -0.0377  0.1282
19352TIP3    H179471   0.689   0.105   2.496 -1.4114 -0.8444  1.1894
19352TIP3    H279472   0.685   0.019   2.372 -1.9721 -0.1990  0.7540
19353TIP3   OH279473   4.599   5.776  17.426  0.0424 -0.2771 -0.1436
19353TIP3    H179474   4.649   5.710  17.475  1.4805  0.4535 -0.5691
19353TIP3    H279475   4.573   5.731  17.346  1.4083 -0.2383 -0.6427
19354TIP3   OH279476   5.640   2.825  14.498  0.2227  0.1131 -0.0545
19354TIP3    H179477   5.600   2.910  14.512 -0.8536 -0.5402  0.9629
19354TIP3    H279478   5.590   2.785  14.427  0.3834  0.1112 -0.1685
19355TIP3   OH279479   3.156   2.012   0.191  0.2585  0.8209 -0.3285
19355TIP3    H179480   3.117   1.948   0.131 -0.8020  1.6569 -0.5607
19355TIP3    H279481   3.100   2.010   0.269  1.0890  0.4139  0.2793
19356TIP3   OH279482   1.394   2.731   3.062  0.4890  0.3162 -0.1082
19356TIP3    H179483   1.336   2.761   3.131 -0.7580  1.0567 -1.4081
19356TIP3    H279484   1.390   2.636   3.067 -0.8507  0.3464 -0.1275
19357TIP3   OH279485   1.156   2.409   6.259 -0.4403 -0.0274  0.2460
19357TIP3    H179486   1.149   2.322   6.300 -1.3421 -0.8099 -1.4912
19357TIP3    H279487   1.198   2.463   6.326  0.4478 -1.8756  1.2599
19358TIP3   OH279488   6.140   4.828   0.739  0.2259  0.0625  0.5940
19358TIP3    H179489   6.084   4.843   0.815  1.7585  1.0075  1.6037
19358TIP3    H279490   6.099   4.878   0.668 -0.2056  0.7508  1.3130
19359TIP3   OH279491   4.122   2.834  12.296  0.0113 -0.1641 -0.1352
19359TIP3    H179492   4.079   2.844  12.381 -0.0473 -0.9110 -0.0767
19359TIP3    H279493   4.114   2.741  12.275 -0.4669  0.1016 -1.2219
19360TIP3   OH279494   4.587   4.936  17.098  0.0817  0.0025 -0.1957
19360TIP3    H179495   4.571   4.849  17.060  3.5721 -1.2143  0.7031
19360TIP3    H279496   4.565   4.925  17.190 -0.3633  0.3876 -0.2545
19361TIP3   OH279497   2.362   6.101  14.047  0.1424 -0.0365  0.4635
19361TIP3    H179498   2.453   6.099  14.073 -0.2861 -2.2510  2.0496
19361TIP3    H279499   2.354   6.030  13.983 -0.1499  1.2527 -0.9825
19362TIP3   OH279500   1.207   5.436   1.922 -0.3323 -0.5570  0.4865
19362TIP3    H179501   1.197   5.399   1.834  0.7019 -1.5914  0.7740
19362TIP3    H279502   1.277   5.501   1.914  0.3893 -1.2882  0.7034
19363TIP3   OH279503   2.894   4.982  14.994  0.0086 -0.0062  0.3581
19363TIP3    H179504   2.923   5.040  14.924  1.6732  0.6168  1.4973
19363TIP3    H279505   2.860   5.041  15.062 -1.6437 -0.6011  0.0885
19364TIP3   OH279506   3.349   5.973   1.973  0.2134 -0.5790  0.1780
19364TIP3    H179507   3.270   6.027   1.974 -0.3198 -1.3021 -0.9059
19364TIP3    H279508   3.318   5.885   1.949  1.3078 -0.9382  0.0152
19365TIP3   OH279509   0.833   0.376  14.668 -0.6796  0.3619 -0.4424
19365TIP3    H179510   0.917   0.374  14.620  0.7477 -0.9405  1.9260
19365TIP3    H279511   0.776   0.317  14.618  0.5237 -0.4285 -0.9336
19366TIP3   OH279512   1.756   4.654  15.363 -0.3421  0.2096  0.0753
19366TIP3    H179513   1.847   4.659  15.392 -0.1568  1.7434 -0.6499
19366TIP3    H279514   1.762   4.629  15.271 -0.6725 -0.0009  0.1105
19367TIP3   OH279515   3.460   5.463  15.659  0.4092  0.0504 -0.2159
19367TIP3    H179516   3.507   5.520  15.719  0.2390  0.6032 -0.6026
19367TIP3    H279517   3.449   5.515  15.580  0.6811 -0.6934 -0.7496
19368TIP3   OH279518   6.624   3.746   1.764  0.0223  1.0220  0.1130
19368TIP3    H179519   6.551   3.698   1.725  1.4627 -2.7080  1.5838
19368TIP3    H279520   6.618   3.726   1.858  3.1945  0.0472  0.2051
19369TIP3   OH279521   1.594   0.899   4.913 -0.7433 -0.1665 -0.1661
19369TIP3    H179522   1.538   0.963   4.956 -0.3562 -0.4266  0.7308
19369TIP3    H279523   1.683   0.928   4.934 -0.5356 -0.0501 -1.1529
19370TIP3   OH279524   5.764   0.735   5.296 -0.1570  0.1414  0.3353
19370TIP3    H179525   5.749   0.772   5.383  1.5245  1.1971  0.2169
19370TIP3    H279526   5.823   0.661   5.312 -1.5420 -1.0006  0.2992
19371TIP3   OH279527   1.054   2.506  12.212  0.3564  0.4605  0.3073
19371TIP3    H179528   1.113   2.534  12.142 -0.2273  1.3748  0.1576
19371TIP3    H279529   1.003   2.584  12.232 -0.3215 -0.1274  0.9095
19372TIP3   OH279530   3.084   0.644   5.590 -0.3621  0.3600  0.3043
19372TIP3    H179531   3.160   0.590   5.614 -0.3632 -0.1842 -0.8614
19372TIP3    H279532   3.035   0.653   5.672 -0.2913 -1.3090  0.5619
19373TIP3   OH279533   3.724   0.177   2.969 -0.9408  0.1426 -0.1708
19373TIP3    H179534   3.736   0.148   2.879  0.7761  1.2528 -0.3377
19373TIP3    H279535   3.682   0.263   2.962 -0.5572  0.3540  0.0605
19374TIP3   OH279536   0.735   3.400   1.038  0.7317 -0.3472  0.2581
19374TIP3    H179537   0.674   3.372   0.970  2.7173  0.3773 -1.9287
19374TIP3    H279538   0.696   3.480   1.074  0.6911  0.5235 -1.6279
19375TIP3   OH279539   4.000   2.479   4.873  0.0432 -0.1805  0.8644
19375TIP3    H179540   4.011   2.400   4.926 -0.7020 -1.8884 -1.3653
19375TIP3    H279541   3.908   2.504   4.886 -1.1435 -2.5311 -1.9199
19376TIP3   OH279542   4.438   2.045   3.000 -0.3821 -0.5898 -0.1783
19376TIP3    H179543   4.435   2.046   3.095 -1.1119  0.9982 -0.1809
19376TIP3    H279544   4.359   2.092   2.973  1.1301  1.3498 -1.4815
19377TIP3   OH279545   5.243   5.336  13.760 -0.5092 -0.0909 -0.3097
19377TIP3    H179546   5.327   5.350  13.804 -0.5975  1.4652 -0.5599
19377TIP3    H279547   5.264   5.278  13.687 -0.4426 -3.1220  1.9225
19378TIP3   OH279548   0.671   3.487  11.999  0.5273 -0.7628  0.5225
19378TIP3    H179549   0.660   3.582  12.001  1.0150 -0.7144  2.3131
19378TIP3    H279550   0.700   3.464  12.087 -1.7991 -2.8470  0.8674
19379TIP3   OH279551   2.283   6.098   4.060  0.0479 -0.0154  0.2044
19379TIP3    H179552   2.328   6.053   4.131 -0.7086  0.1573  0.8077
19379TIP3    H279553   2.190   6.093   4.083 -0.4537 -1.9073 -1.8859
19380TIP3   OH279554   5.198   5.581  13.335  0.0232  0.3521  0.2061
19380TIP3    H179555   5.120   5.583  13.391 -0.0770  0.3733  0.0679
19380TIP3    H279556   5.235   5.669  13.342 -1.8325  1.4611 -2.3319
19381TIP3   OH279557   4.204   3.093   4.470  0.3849  0.8470 -0.0992
19381TIP3    H179558   4.189   3.110   4.563  0.0766 -0.4310  0.1103
19381TIP3    H279559   4.225   3.179   4.433 -2.7357  2.0321  0.5222
19382TIP3   OH279560   5.079   3.196   3.471 -0.0055  0.0345  0.0642
19382TIP3    H179561   5.018   3.197   3.545 -1.2218 -0.5853 -0.8897
19382TIP3    H279562   5.111   3.286   3.464 -1.7883  0.6846 -0.1735
19383TIP3   OH279563   5.820   3.895  11.899  0.4902  0.2156  0.0070
19383TIP3    H179564   5.809   3.970  11.957  1.5398  0.4115 -0.0316
19383TIP3    H279565   5.878   3.925  11.830 -2.4261  0.6816 -2.4648
19384TIP3   OH279566   5.076   0.702  13.956 -0.1948  0.1081 -0.2864
19384TIP3    H179567   5.001   0.667  13.907  0.4404 -0.4900 -0.8766
19384TIP3    H279568   5.152   0.659  13.915  0.2707 -1.8888  2.4132
19385TIP3   OH279569   4.870   0.616  16.094  0.1906  0.3416  0.5111
19385TIP3    H179570   4.782   0.627  16.059  0.6971  1.5717 -0.4678
19385TIP3    H279571   4.901   0.706  16.109  1.1453 -0.0838  1.1588
19386TIP3   OH279572   3.165   3.173   6.429  0.2535  0.3296  0.2913
19386TIP3    H179573   3.185   3.127   6.510 -3.1926 -0.2476  0.9319
19386TIP3    H279574   3.232   3.142   6.367  0.5698 -2.3090  1.8183
19387TIP3   OH279575   3.067   4.986  14.088 -0.3316  0.5070 -0.3385
19387TIP3    H179576   3.046   5.013  13.999 -1.1413 -2.1829 -1.0651
19387TIP3    H279577   3.162   4.997  14.094 -0.2250  0.4500 -1.6400
19388TIP3   OH279578   1.914   3.592  11.740  0.0080  0.0106  0.3452
19388TIP3    H179579   1.827   3.607  11.703  0.6365  0.5391 -1.0017
19388TIP3    H279580   1.964   3.552  11.668  1.7674  2.6420 -0.0478
19389TIP3   OH279581   6.101   1.766   0.837 -0.6847  0.1349 -0.0573
19389TIP3    H179582   6.024   1.771   0.894  0.9031  0.6870  2.2235
19389TIP3    H279583   6.155   1.841   0.865  0.9085 -0.5476 -1.1727
19390TIP3   OH279584   3.092   0.608   4.370 -0.1178 -1.0197  0.1938
19390TIP3    H179585   3.044   0.613   4.288  2.3246  1.2096 -1.2670
19390TIP3    H279586   3.101   0.514   4.387  0.1690 -1.6158 -2.6698
19391TIP3   OH279587   1.787   0.121  16.829  0.0749  0.0579 -0.0532
19391TIP3    H179588   1.807   0.049  16.768  0.0418  0.4777 -0.5694
19391TIP3    H279589   1.866   0.129  16.883 -0.8210 -1.9559  1.6396
19392TIP3   OH279590   5.602   5.521  14.625 -0.0470 -0.4216  0.0456
19392TIP3    H179591   5.581   5.507  14.717  0.6655 -1.1104  0.1213
19392TIP3    H279592   5.534   5.579  14.592  0.4752  0.9933  1.3590
19393TIP3   OH279593   0.336   2.324  12.762  0.4096  0.0614 -0.8762
19393TIP3    H179594   0.357   2.406  12.718 -0.4962  1.0077  0.3769
19393TIP3    H279595   0.401   2.316  12.832 -0.7344  0.8033  0.3073
19394TIP3   OH279596   6.456   0.178  12.722 -0.0186  0.3726  0.3550
19394TIP3    H179597   6.474   0.158  12.630 -0.9892  0.8699  0.0383
19394TIP3    H279598   6.524   0.131  12.771  0.7232  0.3889 -0.6314
19395TIP3   OH279599   1.203   4.232   3.586  0.6676 -0.5084 -0.1813
19395TIP3    H179600   1.186   4.158   3.528  1.9562  0.6226 -2.1090
19395TIP3    H279601   1.260   4.197   3.655  2.2338 -1.0886 -1.7230
19396TIP3   OH279602   1.673   5.892   3.968  0.0461 -0.0828 -0.7045
19396TIP3    H179603   1.641   5.981   3.984 -1.0470 -0.8375  1.7888
19396TIP3    H279604   1.760   5.904   3.931 -0.1747  2.0125 -0.6771
19397TIP3   OH279605   0.954   1.894  15.074  0.8173 -0.1366  0.0684
19397TIP3    H179606   0.868   1.861  15.101  1.0659 -0.1735  0.8355
19397TIP3    H279607   0.973   1.847  14.993 -0.4436  0.8075 -0.8045
19398TIP3   OH279608   5.957   0.542   3.454  0.2372  0.2121 -0.2992
19398TIP3    H179609   5.960   0.631   3.488  0.3155 -0.0437  0.3663
19398TIP3    H279610   6.002   0.548   3.369  0.7403  0.6900 -0.0081
19399TIP3   OH279611   0.223   3.294   1.707 -0.2931  0.4021 -0.1583
19399TIP3    H179612   0.161   3.367   1.716 -1.0532 -0.1309 -1.0026
19399TIP3    H279613   0.209   3.261   1.619  2.1207  1.0770 -0.8773
19400TIP3   OH279614   3.345   4.329   3.531  0.5460 -0.2200  0.2718
19400TIP3    H179615   3.333   4.241   3.568  1.3947 -0.2354  0.5369
19400TIP3    H279616   3.404   4.372   3.592 -0.3134  0.7397  0.4416
19401TIP3   OH279617   2.986   1.567  15.257  0.2528 -0.2295  0.3281
19401TIP3    H179618   3.058   1.504  15.255  1.3357  0.9299  0.9478
19401TIP3    H279619   3.010   1.632  15.192  1.2108  1.6133  2.3936
19402TIP3   OH279620   0.544   0.589  14.155  0.1021  0.6377  0.3220
19402TIP3    H179621   0.472   0.590  14.218  1.6127 -0.8577  2.1693
19402TIP3    H279622   0.588   0.674  14.167 -1.2097  1.5066 -0.7314
19403TIP3   OH279623   2.448   3.906   0.086  0.1414 -0.1850  0.2218
19403TIP3    H179624   2.442   3.851   0.008 -1.9347  0.2976 -0.0084
19403TIP3    H279625   2.401   3.986   0.063  2.2058  1.2977  0.9121
19404TIP3   OH279626   5.460   0.018  11.642 -0.0698 -0.2466 -0.5739
19404TIP3    H179627   5.435  -0.074  11.640 -2.0559  0.2539 -0.5696
19404TIP3    H279628   5.403   0.060  11.577  0.1415  1.1252  0.0870
19405TIP3   OH279629   3.050   3.263  10.683 -0.2958  0.5076 -0.4123
19405TIP3    H179630   3.070   3.339  10.628 -0.3047 -0.1596 -1.3638
19405TIP3    H279631   3.068   3.188  10.627 -0.3694 -0.1937  0.4916
19406TIP3   OH279632   5.788   3.444   3.858 -0.0352 -0.2279  0.5006
19406TIP3    H179633   5.856   3.511   3.864  1.3593 -1.6115  0.8352
19406TIP3    H279634   5.829   3.371   3.812 -1.4372 -0.9596  0.3312
19407TIP3   OH279635   0.090   3.301  12.884 -0.2431  0.0777 -0.4858
19407TIP3    H179636   0.083   3.213  12.920  0.2640 -0.3873 -1.4848
19407TIP3    H279637   0.125   3.354  12.957 -2.3830 -0.0960  0.7377
19408TIP3   OH279638   1.656   2.805   1.498 -0.1862 -0.3024  0.1723
19408TIP3    H179639   1.566   2.803   1.530 -0.5323 -0.4870 -0.8002
19408TIP3    H279640   1.709   2.796   1.578 -1.0302 -0.7615  0.7031
19409TIP3   OH279641   3.964   4.959  12.063 -0.2353  0.8122  0.2665
19409TIP3    H179642   4.034   4.993  12.007 -0.8411  1.5342 -0.0609
19409TIP3    H279643   3.907   4.910  12.003  0.5221 -0.6555  0.6979
19410TIP3   OH279644   3.122   4.022   3.031  0.5023  0.3774 -0.5023
19410TIP3    H179645   3.167   4.101   3.001 -0.5652  1.7628  1.2718
19410TIP3    H279646   3.058   4.003   2.962  1.2589  0.6250 -1.2879
19411TIP3   OH279647   0.808   2.622  11.466 -0.3455 -0.2557 -0.3417
19411TIP3    H179648   0.713   2.625  11.469 -0.3450  0.6791 -0.8888
19411TIP3    H279649   0.836   2.662  11.549 -0.4090 -2.0634  0.6048
19412TIP3   OH279650   5.981   6.525   5.260  0.2485 -0.2973  0.2493
19412TIP3    H179651   5.953   6.445   5.306  0.7478 -0.4820  0.2333
19412TIP3    H279652   6.069   6.505   5.229  1.2616  1.0373  2.1321
19413TIP3   OH279653   1.414   4.513  16.798 -0.0619 -0.2543 -0.6894
19413TIP3    H179654   1.496   4.469  16.819 -1.9441 -2.4575  3.1789
19413TIP3    H279655   1.413   4.590  16.855 -0.0816  0.6547 -1.8764
19414TIP3   OH279656   0.666   1.581  12.288  0.4247 -0.2174  0.0048
19414TIP3    H179657   0.711   1.653  12.243 -1.7185  0.2175 -1.6107
19414TIP3    H279658   0.663   1.510  12.225 -2.0523  0.1668 -0.4224
19415TIP3   OH279659   5.965   5.043   1.496  0.1414 -0.2196  0.6368
19415TIP3    H179660   6.051   5.012   1.526  0.6471 -0.1728 -0.6815
19415TIP3    H279661   5.986   5.111   1.431 -0.8643 -1.0840 -0.6259
19416TIP3   OH279662   5.767   4.850   3.865  0.0840  0.1373  0.4849
19416TIP3    H179663   5.784   4.780   3.929 -0.7332 -0.4994  0.0218
19416TIP3    H279664   5.675   4.872   3.878 -1.3291 -2.6813 -2.9621
19417TIP3   OH279665   5.359   2.749  11.866  0.1328  0.7209 -0.2710
19417TIP3    H179666   5.304   2.709  11.799  0.0868 -2.8884  1.6605
19417TIP3    H279667   5.311   2.826  11.895 -2.6531 -0.8380 -0.4621
19418TIP3   OH279668   1.184   5.162   5.799 -0.6346  0.4780 -0.4097
19418TIP3    H179669   1.142   5.237   5.840 -0.0157  0.2782  0.6099
19418TIP3    H279670   1.167   5.089   5.858  0.0650  0.1352 -0.6171
19419TIP3   OH279671   1.646   1.834   5.966  0.3811 -0.1091  0.0759
19419TIP3    H179672   1.684   1.775   6.031  2.0458 -0.3166 -1.0429
19419TIP3    H279673   1.717   1.893   5.942 -0.4725  0.5672 -0.8616
19420TIP3   OH279674   0.842   2.235  11.527 -0.3193  0.0011  0.5630
19420TIP3    H179675   0.753   2.268  11.539  0.2899  1.8843  0.1683
19420TIP3    H279676   0.830   2.145  11.495 -2.0474 -0.0725  1.3135
19421TIP3   OH279677   3.634   2.375  12.742 -0.4510 -0.7415  1.0224
19421TIP3    H179678   3.716   2.394  12.696 -0.3207 -1.0823  1.1152
19421TIP3    H279679   3.603   2.294  12.702 -1.5661  0.2010 -0.1433
19422TIP3   OH279680   4.183   0.751  14.002  0.5911 -0.2026  0.0355
19422TIP3    H179681   4.090   0.728  14.010  1.0438 -2.3722 -0.2973
19422TIP3    H279682   4.203   0.798  14.083 -1.0258  1.3034 -0.3846
19423TIP3   OH279683   0.721   1.279  16.944 -0.1955  0.4360 -0.3942
19423TIP3    H179684   0.678   1.208  16.896 -1.4643  2.1857 -1.9629
19423TIP3    H279685   0.653   1.345  16.957  0.2829  0.4591  3.1845
19424TIP3   OH279686   4.936   6.258  12.064 -0.3230 -0.5289 -0.4895
19424TIP3    H179687   5.004   6.323  12.082  0.4147 -1.2325 -0.6675
19424TIP3    H279688   4.914   6.271  11.972 -1.6885  0.8442  0.0027
19425TIP3   OH279689   6.133   0.180   4.805  0.4573  0.2871 -0.3193
19425TIP3    H179690   6.095   0.190   4.892  1.3284 -0.9105  0.2273
19425TIP3    H279691   6.212   0.234   4.807  2.3283 -2.3027  0.8514
19426TIP3   OH279692   2.581   1.082   0.472 -0.3482  0.0082 -0.4028
19426TIP3    H179693   2.488   1.060   0.470 -0.1140 -1.8459  2.6382
19426TIP3    H279694   2.612   1.061   0.384 -2.8241  1.1967 -1.6842
19427TIP3   OH279695   5.073   2.797   2.524 -0.3157 -0.3740  0.5257
19427TIP3    H179696   5.018   2.869   2.493 -1.5291  0.0759  3.4120
19427TIP3    H279697   5.117   2.765   2.445 -2.1286  1.4622 -1.3669
19428TIP3   OH279698   3.326   4.074   3.622  0.8050 -0.5347  0.9525
19428TIP3    H179699   3.339   4.006   3.556  0.9147  0.6581 -0.3047
19428TIP3    H279700   3.304   4.026   3.702 -0.0271 -2.0051 -0.1080
19429TIP3   OH279701   4.229   5.928   3.913  0.3123 -0.0135  0.2288
19429TIP3    H179702   4.195   5.892   3.995 -1.8174  1.4440  0.0710
19429TIP3    H279703   4.295   5.865   3.885  0.8256 -0.7501  2.8441
19430TIP3   OH279704   2.455   6.619   5.374 -0.0253 -0.0610 -0.3731
19430TIP3    H179705   2.482   6.557   5.442 -0.0626 -1.4663 -1.5625
19430TIP3    H279706   2.445   6.564   5.296  0.6912  1.5835 -1.6791
19431TIP3   OH279707   1.238   0.314  17.045  0.2925 -1.1903 -0.1169
19431TIP3    H179708   1.263   0.395  17.091  0.9710 -0.2871 -1.9696
19431TIP3    H279709   1.308   0.300  16.981 -1.5258 -1.2905 -2.2046
19432TIP3   OH279710   0.250   1.825  13.549  0.1669 -0.7521 -0.7522
19432TIP3    H179711   0.244   1.920  13.551  0.8631 -0.7195  0.6678
19432TIP3    H279712   0.319   1.807  13.484  1.9463 -0.1446  0.8971
19433TIP3   OH279713   4.613   4.103   1.562  0.2231  0.1171  0.0908
19433TIP3    H179714   4.586   4.072   1.475 -0.0680 -0.0860  0.2538
19433TIP3    H279715   4.583   4.035   1.622 -0.5503  0.7674  0.4685
19434TIP3   OH279716   0.544   1.831   0.387  0.1196 -0.1151 -0.1134
19434TIP3    H179717   0.609   1.803   0.452 -0.1391 -1.8316 -0.5444
19434TIP3    H279718   0.461   1.799   0.421 -0.4763  1.6394  0.1818
19435TIP3   OH279719   5.006   3.549  15.200 -0.2226  0.5093  0.2949
19435TIP3    H179720   4.988   3.549  15.106  0.4477 -2.0433  0.0869
19435TIP3    H279721   5.096   3.583  15.207  0.3831 -0.9145 -0.2051
19436TIP3   OH279722   5.255   2.952  12.768  0.2232 -0.3177 -0.2138
19436TIP3    H179723   5.302   2.931  12.848 -0.6629 -1.1200  0.1107
19436TIP3    H279724   5.219   2.869  12.737 -0.1240  0.1061 -1.0043
19437TIP3   OH279725   1.928   3.318   2.065  0.7978 -0.0874  0.2534
19437TIP3    H179726   1.948   3.410   2.052 -2.4033  0.4214 -2.2813
19437TIP3    H279727   1.966   3.274   1.988 -1.0079 -0.2191 -0.6064
19438TIP3   OH279728   4.174   1.868  11.003  0.2032  0.2223 -0.3113
19438TIP3    H179729   4.123   1.935  10.958  0.7577  0.3676 -0.7418
19438TIP3    H279730   4.263   1.904  11.005  0.3855 -0.2442 -0.0284
19439TIP3   OH279731   1.917   1.334  17.389 -0.1657 -0.1001 -0.2277
19439TIP3    H179732   1.829   1.301  17.409  0.3663 -1.5150 -0.1095
19439TIP3    H279733   1.959   1.263  17.340  0.6546  0.8759 -0.9854
19440TIP3   OH279734   3.142   1.087   1.477  0.4912 -0.1495 -0.3423
19440TIP3    H179735   3.139   1.007   1.530  2.0336  0.5168  0.8313
19440TIP3    H279736   3.208   1.068   1.410 -0.5259 -0.5204 -1.2678
19441TIP3   OH279737   6.398   1.550   2.404 -0.3118  0.3377  0.2349
19441TIP3    H179738   6.334   1.607   2.444  2.0160  3.3642  0.0083
19441TIP3    H279739   6.434   1.498   2.476 -0.6702  1.0508  0.9255
19442TIP3   OH279740   6.122   2.333   5.369  0.2356 -0.2857  0.1328
19442TIP3    H179741   6.188   2.369   5.428  0.4286 -1.1795  0.4725
19442TIP3    H279742   6.103   2.405   5.308  1.4799 -0.0028  0.0633
19443TIP3   OH279743   2.520   2.821   5.196  0.1540 -0.1686  0.1253
19443TIP3    H179744   2.529   2.726   5.185  0.1014 -0.1961  0.3160
19443TIP3    H279745   2.595   2.847   5.248 -0.0830 -0.1785  0.4762
19444TIP3   OH279746   4.698   3.779   0.144 -0.0206  0.1502  0.1081
19444TIP3    H179747   4.734   3.809   0.227  0.7687 -0.8402  0.1384
19444TIP3    H279748   4.604   3.797   0.150  0.3462  2.2986  0.2426
19445TIP3   OH279749   0.019   1.190   0.610 -0.2150  0.0575  0.0954
19445TIP3    H179750  -0.014   1.221   0.695 -0.5944  0.6547 -0.2605
19445TIP3    H279751  -0.032   1.239   0.546 -0.9266 -1.4050 -0.5040
19446TIP3   OH279752   5.664   1.831  13.941  0.0365  0.6226  0.2186
19446TIP3    H179753   5.705   1.770  13.880 -0.9287 -1.1480  1.2830
19446TIP3    H279754   5.736   1.859  13.998  0.7498  1.5643 -1.0735
19447TIP3   OH279755   3.827   3.910   5.580  0.0233  0.4823  0.1105
19447TIP3    H179756   3.868   3.994   5.557  1.8521 -0.4887 -0.3336
19447TIP3    H279757   3.871   3.846   5.525 -0.4243 -0.9693  1.3892
19448TIP3   OH279758   4.992   0.164  11.978  0.4213  0.1796 -0.0672
19448TIP3    H179759   4.925   0.217  12.021  0.6728 -0.9101  1.7818
19448TIP3    H279760   4.950   0.079  11.964  0.9517 -0.0531 -0.2694
19449TIP3   OH279761   1.099   0.644  12.301 -0.4187  0.0621 -0.0649
19449TIP3    H179762   1.121   0.628  12.392 -0.5909 -0.6715 -0.1414
19449TIP3    H279763   1.092   0.556  12.262  0.2919  0.3743 -0.9332
19450TIP3   OH279764   3.248   1.469   1.812  0.2748  0.8640 -0.2153
19450TIP3    H179765   3.298   1.536   1.765  1.6100  1.0036  1.2922
19450TIP3    H279766   3.218   1.513   1.892 -1.4963  0.5050 -0.6440
19451TIP3   OH279767   0.222   1.865  16.300  0.3876 -0.1138  0.0797
19451TIP3    H179768   0.238   1.782  16.344 -1.7667  0.7066  2.6792
19451TIP3    H279769   0.169   1.842  16.223  0.9779 -1.2314 -0.0072
19452TIP3   OH279770   0.206   6.258  11.940  0.0318 -0.1100  0.0202
19452TIP3    H179771   0.299   6.275  11.929 -0.0385  0.1256 -0.2241
19452TIP3    H279772   0.176   6.325  12.002 -0.1917  0.5077 -0.7369
19453TIP3   OH279773   6.332   0.351   0.238 -0.3713 -0.3903 -0.2996
19453TIP3    H179774   6.379   0.428   0.204 -1.8376  0.7163  0.0601
19453TIP3    H279775   6.243   0.359   0.202 -1.1762 -0.7056  1.4885
19454TIP3   OH279776   3.827   0.167  12.641  0.0684 -0.3558 -0.1852
19454TIP3    H179777   3.779   0.248  12.627 -0.9879 -1.1352 -1.2646
19454TIP3    H279778   3.913   0.195  12.672 -0.6665  1.1130  0.6591
19455TIP3   OH279779   5.055   3.796  13.078 -0.2021  0.5969  0.1400
19455TIP3    H179780   5.021   3.745  13.005  0.9302  1.7975 -1.2922
19455TIP3    H279781   5.118   3.738  13.122 -0.2108  0.1772 -0.3969
19456TIP3   OH279782   5.708   5.997   2.645  0.1151  0.0180  0.0005
19456TIP3    H179783   5.803   6.010   2.642  0.6833 -2.8992  1.9531
19456TIP3    H279784   5.690   5.937   2.573 -0.1185 -0.1016  0.1590
19457TIP3   OH279785   4.879   4.663   2.216 -0.8552 -0.6088  0.9150
19457TIP3    H179786   4.900   4.736   2.157  0.2481 -0.5301  1.3790
19457TIP3    H279787   4.794   4.632   2.186  0.1851 -1.3745 -1.5759
19458TIP3   OH279788   2.558   0.741  15.116 -0.0742 -0.1665  0.1846
19458TIP3    H179789   2.644   0.716  15.151  0.7412  1.4786 -0.5614
19458TIP3    H279790   2.575   0.763  15.024 -1.2923  0.2591  0.0482
19459TIP3   OH279791   5.019   1.829   4.745 -0.2299  0.5593 -0.0371
19459TIP3    H179792   5.038   1.904   4.801  0.2152  0.2776  0.1947
19459TIP3    H279793   4.947   1.783   4.789 -0.9552  1.2029 -0.5195
19460TIP3   OH279794   3.476   1.205  14.890 -0.4729 -0.6578  0.1636
19460TIP3    H179795   3.534   1.128  14.890  1.2796  0.6054  0.1730
19460TIP3    H279796   3.449   1.215  14.982  0.7250 -0.2579  0.4889
19461TIP3   OH279797   1.262   6.368   3.582 -0.0918 -0.1061  0.1113
19461TIP3    H179798   1.261   6.384   3.487 -1.6250 -0.2878  0.0716
19461TIP3    H279799   1.213   6.286   3.592 -0.8418  0.4616  1.1560
19462TIP3   OH279800   2.161   0.281   4.238  0.4982  0.2567  0.3908
19462TIP3    H179801   2.095   0.257   4.303  0.1540  1.4648  0.5079
19462TIP3    H279802   2.235   0.313   4.289  2.2817 -3.4287  0.4066
19463TIP3   OH279803   3.859   6.697   4.016 -0.4448  0.0889 -0.1002
19463TIP3    H179804   3.886   6.783   3.986 -1.7997 -0.2153 -2.4372
19463TIP3    H279805   3.936   6.641   4.002 -0.0414  0.6017  0.0412
19464TIP3   OH279806   1.440   3.332   0.743  0.1218 -0.1045  0.0769
19464TIP3    H179807   1.443   3.338   0.648 -5.1767  1.0239 -0.3499
19464TIP3    H279808   1.440   3.423   0.773 -1.4316 -0.3187  0.8052
19465TIP3   OH279809   6.103   2.385  17.144 -0.5757 -0.0209  0.1182
19465TIP3    H179810   6.196   2.410  17.143 -0.5083 -0.2780 -0.5729
19465TIP3    H279811   6.084   2.368  17.237 -0.0799  0.5539  0.3368
19466TIP3   OH279812   3.404   5.799  15.679  0.4202  0.2439 -0.0067
19466TIP3    H179813   3.363   5.883  15.656  1.3660  1.3215  1.9482
19466TIP3    H279814   3.444   5.769  15.597 -2.8618 -0.1304 -1.6364
19467TIP3   OH279815   1.309   1.513   0.458 -0.7011 -0.1345  0.1642
19467TIP3    H179816   1.261   1.444   0.411 -0.6569 -0.0369 -0.0246
19467TIP3    H279817   1.399   1.482   0.460 -0.8023 -0.4040  0.6788
19468TIP3   OH279818   4.194   2.317   1.626  0.1114  0.1938 -0.3044
19468TIP3    H179819   4.189   2.365   1.708 -2.1550 -0.0999 -0.2120
19468TIP3    H279820   4.150   2.373   1.562 -0.2708 -0.6196 -0.7792
19469TIP3   OH279821   0.659   4.123  13.335 -0.4125 -0.6450 -0.1519
19469TIP3    H179822   0.608   4.042  13.336 -0.3395 -0.7485 -1.7696
19469TIP3    H279823   0.728   4.109  13.400 -2.0547 -0.7255  1.6534
19470TIP3   OH279824   6.676   6.711   2.019 -0.0599 -0.7062 -0.4643
19470TIP3    H179825   6.761   6.710   1.975 -1.8872 -0.2476 -4.4412
19470TIP3    H279826   6.672   6.627   2.064  1.7735 -1.5608 -1.7505
19471TIP3   OH279827   1.268   4.673  11.769 -0.2963 -0.1705  0.4891
19471TIP3    H179828   1.263   4.580  11.748  1.1207 -0.0072 -0.8081
19471TIP3    H279829   1.360   4.687  11.793 -0.7877  0.6513  1.9712
19472TIP3   OH279830   5.014   5.732   5.813  0.1279 -0.4396 -0.0463
19472TIP3    H179831   5.091   5.711   5.866  0.6712 -1.9791 -1.3656
19472TIP3    H279832   5.025   5.680   5.734 -2.2291 -0.6138 -0.3191
19473TIP3   OH279833   4.278   6.197  11.020  0.4053  0.0063  0.5910
19473TIP3    H179834   4.279   6.242  11.105  0.3696  1.7983 -0.3085
19473TIP3    H279835   4.188   6.209  10.988  1.0266  1.4945 -0.7431
19474TIP3   OH279836   1.239   3.979   3.752 -0.3965  0.1606 -0.2133
19474TIP3    H179837   1.149   3.965   3.723 -0.4385 -0.0686  0.0282
19474TIP3    H279838   1.231   4.006   3.844 -0.2747  1.0660 -0.4571
19475TIP3   OH279839   2.344   1.486   5.209 -0.3058 -0.0733 -0.3949
19475TIP3    H179840   2.279   1.452   5.270 -0.4266  0.9303  0.0668
19475TIP3    H279841   2.425   1.440   5.231 -1.2062 -2.7939 -2.2541
19476TIP3   OH279842   4.305   6.092  13.617  0.0441  0.1561  0.2706
19476TIP3    H179843   4.256   6.173  13.629 -0.0221  0.0082  1.0863
19476TIP3    H279844   4.344   6.100  13.530  1.4857  1.8510  1.0187
19477TIP3   OH279845   3.927   6.058   2.587 -0.7055  0.3528  0.9780
19477TIP3    H179846   3.897   6.072   2.677 -0.0568  1.4932  1.0329
19477TIP3    H279847   3.972   6.139   2.564  0.2237 -0.4028  0.0551
19478TIP3   OH279848   1.667   5.562   1.116  0.2570  0.0853  0.9244
19478TIP3    H179849   1.592   5.522   1.072  0.3121 -0.3329  1.2083
19478TIP3    H279850   1.631   5.641   1.158  0.6486  1.8731 -1.8447
19479TIP3   OH279851   0.837   1.772  13.865  0.2114  0.1804  0.3386
19479TIP3    H179852   0.780   1.820  13.805 -0.8662 -3.2665 -1.7105
19479TIP3    H279853   0.778   1.744  13.936 -0.2112 -1.4407 -0.5981
19480TIP3   OH279854   2.461   6.594   1.290  0.3492 -0.3253 -0.0608
19480TIP3    H179855   2.556   6.592   1.293  0.3548 -1.6606 -0.4281
19480TIP3    H279856   2.438   6.527   1.225 -0.8237  0.2442 -0.2577
19481TIP3   OH279857   0.543   3.038  12.340  0.1328 -0.0481 -0.3427
19481TIP3    H179858   0.484   2.971  12.374 -1.0244 -0.0672 -2.2084
19481TIP3    H279859   0.537   3.029  12.245  1.3795  1.4938 -0.6177
19482TIP3   OH279860   4.501   0.145  13.074  0.2845  0.0474  0.3388
19482TIP3    H179861   4.520   0.227  13.030  0.7784 -0.1421  0.1941
19482TIP3    H279862   4.571   0.085  13.046  0.1652 -0.2991  0.7603
19483TIP3   OH279863   6.418   5.374  13.323 -0.0465 -0.1856  0.2286
19483TIP3    H179864   6.324   5.392  13.318  0.0152  0.7496  1.7526
19483TIP3    H279865   6.424   5.287  13.363 -0.3306  1.0830  3.3871
19484TIP3   OH279866   2.240   5.732  17.363 -0.7768 -0.2139 -0.5556
19484TIP3    H179867   2.158   5.767  17.330 -1.0363  1.3902  1.5683
19484TIP3    H279868   2.259   5.784  17.442  1.0086 -2.1587  0.4176
19485TIP3   OH279869   3.718   3.952   4.622 -0.1831 -0.0866  0.7786
19485TIP3    H179870   3.639   3.899   4.626 -1.0740  1.1706  0.3689
19485TIP3    H279871   3.692   4.032   4.577  1.4514  0.1453  0.1684
19486TIP3   OH279872   6.264   4.575  13.970 -0.1228  0.4547  0.0329
19486TIP3    H179873   6.351   4.605  13.996  0.4994  0.0677 -1.4740
19486TIP3    H279874   6.242   4.505  14.031  0.2584  1.1094  0.9271
19487TIP3   OH279875   4.455   1.352   3.697  0.2290 -0.3032 -0.1880
19487TIP3    H179876   4.429   1.444   3.686  0.9730  0.0607  0.8750
19487TIP3    H279877   4.409   1.305   3.628  0.9867  1.0828 -1.7094
19488TIP3   OH279878   2.603   3.269   5.688  0.5063 -0.3513  0.0540
19488TIP3    H179879   2.565   3.225   5.612  1.3411 -1.0784  0.0439
19488TIP3    H279880   2.642   3.348   5.653 -1.2832  0.6161  0.1181
19489TIP3   OH279881   2.078   4.939  11.754  0.6037  0.4001  0.2105
19489TIP3    H179882   2.007   4.937  11.819  2.8241 -1.5735  2.7906
19489TIP3    H279883   2.095   5.032  11.741 -0.9462  0.8728  1.2166
19490TIP3   OH279884   4.019   2.942   3.529 -0.0844  0.0163  0.3269
19490TIP3    H179885   3.945   2.951   3.589  0.5834 -1.0580  1.3371
19490TIP3    H279886   4.039   3.032   3.502 -1.7154  0.3223  0.0736
19491TIP3   OH279887   1.008   0.798   5.657 -0.4333 -0.0637 -0.5578
19491TIP3    H179888   0.955   0.853   5.716  1.1983  1.8618 -0.7725
19491TIP3    H279889   1.089   0.783   5.705  1.1468  1.9850 -2.4205
19492TIP3   OH279890   3.110   6.570   3.789  0.4882  0.0328  0.0143
19492TIP3    H179891   3.119   6.476   3.805 -2.3141 -0.6283 -1.5941
19492TIP3    H279892   3.162   6.585   3.710  0.5671 -0.2600  0.0062
19493TIP3   OH279893   1.809   6.614  14.538 -0.2136  0.2367  0.1092
19493TIP3    H179894   1.798   6.524  14.569 -1.3875  0.4590  0.3981
19493TIP3    H279895   1.726   6.635  14.494  0.9349  0.3507 -2.1733
19494TIP3   OH279896   0.259   2.537  14.908  0.1725 -0.2055 -0.1369
19494TIP3    H179897   0.237   2.510  14.997  0.7182  1.5889  0.5789
19494TIP3    H279898   0.332   2.481  14.883 -0.6087 -1.3854  0.1641
19495TIP3   OH279899   6.155   4.556  17.354  0.6495  0.0975  0.2243
19495TIP3    H179900   6.168   4.516  17.268 -1.9751  0.3621 -0.3537
19495TIP3    H279901   6.185   4.647  17.342  2.3906 -0.4246  0.2833
19496TIP3   OH279902   2.966   0.215  14.451  0.2459  0.3666  0.3776
19496TIP3    H179903   3.001   0.219  14.362  1.3216  1.3374  0.8268
19496TIP3    H279904   2.970   0.305  14.482 -0.4590  0.0952  1.2957
19497TIP3   OH279905   4.344   4.954  16.643  0.0263  0.7107  0.1251
19497TIP3    H179906   4.254   4.952  16.676  1.2644 -3.4619  4.4239
19497TIP3    H279907   4.393   5.003  16.710  1.4438 -0.3457 -0.0940
19498TIP3   OH279908   3.315   0.257  14.897  0.5098  0.1144 -0.1361
19498TIP3    H179909   3.284   0.337  14.855 -0.8878 -0.3650 -0.0690
19498TIP3    H279910   3.242   0.228  14.951  1.2616 -0.8106  0.4341
19499TIP3   OH279911   4.350   6.578  12.047 -0.4162 -0.2338 -0.9727
19499TIP3    H179912   4.374   6.637  11.976  0.1054 -0.2141 -0.7865
19499TIP3    H279913   4.315   6.501  12.004  0.5418 -0.5107 -1.2861
19500TIP3   OH279914   4.393   1.607  15.099 -0.1428  0.1754  0.0598
19500TIP3    H179915   4.432   1.611  15.012 -0.2102  0.8806  0.0592
19500TIP3    H279916   4.457   1.561  15.153 -0.2399 -0.5492 -0.4331
19501TIP3   OH279917   5.031   1.397   2.637  0.0374  0.1003 -0.4329
19501TIP3    H179918   5.038   1.462   2.567  3.4634  0.5652  0.1752
19501TIP3    H279919   5.028   1.313   2.590 -1.1386  0.5062 -1.1465
19502TIP3   OH279920   1.483   5.236   4.254 -0.5974 -0.9158 -0.4458
19502TIP3    H179921   1.478   5.152   4.207  1.6103 -0.9714 -0.6761
19502TIP3    H279922   1.403   5.282   4.228 -0.9173 -2.1658 -1.8459
19503TIP3   OH279923   6.575   1.642   3.083 -0.2849  0.0112 -0.1595
19503TIP3    H179924   6.617   1.560   3.059  0.3136  0.2774 -0.0253
19503TIP3    H279925   6.498   1.648   3.025  1.6511  1.1358 -2.8035
19504TIP3   OH279926   2.329   1.287  17.360 -0.0433  0.5336  0.7511
19504TIP3    H179927   2.362   1.221  17.299  1.0744  1.7498  0.0068
19504TIP3    H279928   2.255   1.328  17.315  0.7792  1.4285  0.2042
19505TIP3   OH279929   1.281   2.300   4.393  0.0090  0.5392 -0.0986
19505TIP3    H179930   1.272   2.380   4.342  1.0663  1.1931  0.6999
19505TIP3    H279931   1.275   2.329   4.484 -0.2173 -0.3844  0.1952
19506TIP3   OH279932   4.278   6.523   4.092  0.3182 -0.1127 -0.3665
19506TIP3    H179933   4.358   6.531   4.144  0.2945  0.2974 -0.3901
19506TIP3    H279934   4.232   6.606   4.106  0.4087  0.0899 -1.2002
19507TIP3   OH279935   1.969   0.883   6.650  0.4254 -0.4544 -0.0974
19507TIP3    H179936   1.884   0.863   6.613  0.7050 -0.3925 -0.7869
19507TIP3    H279937   2.006   0.798   6.676  0.8290 -0.6533 -1.2914
19508TIP3   OH279938   1.919   1.420  15.194  0.6770 -0.5672 -0.4013
19508TIP3    H179939   1.857   1.404  15.123  0.5321 -2.2926  0.0866
19508TIP3    H279940   1.864   1.425  15.273  0.9209  0.4964 -0.2804
19509TIP3   OH279941   1.912   5.055  17.115  0.5450 -0.1470 -0.2879
19509TIP3    H179942   1.959   5.131  17.147  0.2922 -0.4941  0.9617
19509TIP3    H279943   1.854   5.031  17.188  0.7143 -1.5999 -0.6158
19510TIP3   OH279944   2.496   2.187  11.902 -0.2241  0.1826 -0.1084
19510TIP3    H179945   2.558   2.239  11.851  1.2768 -0.5861  0.8471
19510TIP3    H279946   2.523   2.096  11.886 -1.7065 -0.2340 -0.3877
19511TIP3   OH279947   5.337   4.565  16.271  0.0011 -0.3064  0.3138
19511TIP3    H179948   5.368   4.478  16.246 -2.2049 -1.4131  1.0957
19511TIP3    H279949   5.416   4.615  16.291  1.4585 -1.3412 -2.4555
19512TIP3   OH279950   1.941   6.527  15.455  0.2772 -0.2259 -0.3227
19512TIP3    H179951   1.948   6.462  15.384 -3.3011 -0.1920 -0.9151
19512TIP3    H279952   1.935   6.611  15.410 -0.1925 -0.0316  0.0848
19513TIP3   OH279953   4.356   5.871  13.354  0.1022 -0.2477 -0.5537
19513TIP3    H179954   4.348   5.965  13.373  3.2638  0.1253 -0.5951
19513TIP3    H279955   4.362   5.865  13.259  1.9024 -0.2258 -0.4716
19514TIP3   OH279956   3.392   2.871  13.900  0.1400 -0.3211  0.0318
19514TIP3    H179957   3.392   2.892  13.994  0.7828 -0.7962  0.1484
19514TIP3    H279958   3.336   2.938  13.860 -0.4446 -0.3373  0.8016
19515TIP3   OH279959   5.779   5.664  13.023 -0.1409 -0.2870  0.2688
19515TIP3    H179960   5.769   5.620  12.939  0.4336 -0.0198  0.0529
19515TIP3    H279961   5.777   5.757  13.001 -0.3280 -0.2134  0.5938
19516TIP3   OH279962   1.297   1.207  14.551 -0.1891 -0.1619 -0.5634
19516TIP3    H179963   1.358   1.177  14.619  0.0920  0.0360 -0.7274
19516TIP3    H279964   1.271   1.295  14.579  0.1182  0.0180 -0.8375
19517TIP3   OH279965   1.978   3.428   5.538 -0.4329 -0.0417  0.7075
19517TIP3    H179966   1.973   3.332   5.547 -1.1999 -0.3256 -1.8041
19517TIP3    H279967   2.053   3.454   5.591  0.6013 -2.2051  0.4048
19518TIP3   OH279968   6.313   5.252  13.070  0.1850 -0.1955  0.2622
19518TIP3    H179969   6.288   5.287  13.156  0.8216 -1.2528  0.9073
19518TIP3    H279970   6.395   5.297  13.049  1.4071 -1.7318  1.4398
19519TIP3   OH279971   5.023   2.771   0.234  0.8309  0.1520  0.9701
19519TIP3    H179972   4.996   2.741   0.147  1.6116 -0.4725  0.9339
19519TIP3    H279973   4.963   2.843   0.254 -1.5558 -1.7950  1.3148
19520TIP3   OH279974   0.059   1.019  16.029 -0.5535  0.5686  0.0142
19520TIP3    H179975   0.068   0.946  15.968  1.3878  1.9756 -1.5300
19520TIP3    H279976   0.147   1.032  16.064 -1.3751  0.6179  2.1904
19521TIP3   OH279977   0.766   3.591  10.703 -0.0969  0.3318 -0.7032
19521TIP3    H179978   0.825   3.666  10.711  0.5195 -0.1652 -0.4680
19521TIP3    H279979   0.689   3.625  10.659  1.2635  0.5331 -3.1101
19522TIP3   OH279980   1.767   6.513  11.277  0.1176  0.0262 -0.6634
19522TIP3    H179981   1.794   6.605  11.273  1.1921 -0.2541  0.0178
19522TIP3    H279982   1.715   6.501  11.197 -1.0182  1.5204 -0.1970
19523TIP3   OH279983   5.642   4.766   2.295 -0.2573 -0.0509 -0.1452
19523TIP3    H179984   5.702   4.706   2.250 -0.0829  0.8106 -1.1023
19523TIP3    H279985   5.555   4.729   2.278 -0.0511 -1.1430  1.0032
19524TIP3   OH279986   2.039   5.032   4.114 -0.0915 -0.3412  0.4250
19524TIP3    H179987   2.008   4.974   4.183 -0.6660 -1.5043 -0.7611
19524TIP3    H279988   1.984   5.110   4.122 -1.1787 -1.0778  0.3722
19525TIP3   OH279989   0.895   6.065   2.894  0.0555  0.3661 -0.4075
19525TIP3    H179990   0.806   6.100   2.897 -0.1524 -0.2124  0.8082
19525TIP3    H279991   0.891   5.994   2.829 -0.3902  0.2914 -0.3013
19526TIP3   OH279992   2.890   2.395   4.048 -0.1517 -0.0026  0.1365
19526TIP3    H179993   2.872   2.307   4.081  1.1019 -0.0809  0.6382
19526TIP3    H279994   2.804   2.427   4.017 -0.4328 -1.7949 -1.0767
19527TIP3   OH279995   4.260   0.061  13.409 -0.5949 -0.4302 -0.2376
19527TIP3    H179996   4.203   0.062  13.332 -0.5388 -0.3293 -0.2785
19527TIP3    H279997   4.347   0.081  13.375 -0.8878  1.6309  0.0964
19528TIP3   OH279998   1.582   1.828   2.319  0.1979  0.0375 -0.3029
19528TIP3    H179999   1.494   1.817   2.356 -1.0017  2.9782 -1.8865
19528TIP3    H280000   1.632   1.754   2.353 -2.8430 -1.7218  0.7675
19529TIP3   OH280001   2.901   4.569  13.688  0.8319 -0.8497 -0.3467
19529TIP3    H180002   2.967   4.502  13.710 -0.4785 -1.9941  0.2321
19529TIP3    H280003   2.924   4.644  13.743  1.4713 -1.3401  0.0663
19530TIP3   OH280004   6.488   2.982  12.000  0.6147  0.0977 -0.4543
19530TIP3    H180005   6.581   3.004  12.002  0.3970  1.2098 -1.6271
19530TIP3    H280006   6.443   3.066  11.989 -0.3836 -0.6347 -2.4275
19531TIP3   OH280007   2.470   3.930   1.525  0.6150 -0.1336  0.6140
19531TIP3    H180008   2.494   4.022   1.517 -1.0153  0.2293 -0.8068
19531TIP3    H280009   2.378   3.927   1.498  0.3379 -2.0411  1.5881
19532TIP3   OH280010   2.708   4.824   4.608 -0.4029  0.0759 -0.8251
19532TIP3    H180011   2.686   4.776   4.528 -3.0473 -0.7224  0.2639
19532TIP3    H280012   2.635   4.885   4.620  0.2539  0.6203  0.6472
19533TIP3   OH280013   3.790   6.327  16.086 -0.3231 -0.2934  0.4850
19533TIP3    H180014   3.720   6.275  16.048 -1.0772  0.8387  0.2838
19533TIP3    H280015   3.791   6.408  16.034 -0.1980  0.5380  1.7463
19534TIP3   OH280016   6.090   4.323   1.175  0.1598 -0.0125  0.8485
19534TIP3    H180017   6.047   4.397   1.131 -1.7742 -1.3757  0.3350
19534TIP3    H280018   6.173   4.359   1.207 -0.0619  1.9899 -0.6661
19535TIP3   OH280019   1.691   2.544   6.413  0.0089  0.4355 -0.2272
19535TIP3    H180020   1.701   2.639   6.417  1.0018  0.3195  0.5590
19535TIP3    H280021   1.712   2.514   6.501  0.9536 -0.5999 -0.7742
19536TIP3   OH280022   3.201   6.542  12.689  0.6066 -0.2475 -0.9316
19536TIP3    H180023   3.229   6.584  12.608 -0.8650  0.5155 -1.0680
19536TIP3    H280024   3.273   6.559  12.750  0.8214  0.9503 -1.4867
19537TIP3   OH280025   1.075   4.845  12.601 -0.1991 -0.3484 -0.2470
19537TIP3    H180026   1.137   4.854  12.674 -0.2132  2.6834 -0.4964
19537TIP3    H280027   1.115   4.894  12.529 -1.2923 -1.3111 -1.5790
19538TIP3   OH280028   2.305   4.335   5.781  0.3390 -0.2780  0.2790
19538TIP3    H180029   2.386   4.372   5.745 -0.5151  1.3768 -0.0016
19538TIP3    H280030   2.265   4.290   5.707  1.4101 -1.9240  0.6371
19539TIP3   OH280031   2.267   4.249  15.003 -0.0365  0.0160  0.6068
19539TIP3    H180032   2.178   4.272  15.032 -0.0568  1.6506 -0.6526
19539TIP3    H280033   2.324   4.280  15.073 -0.4531 -1.5484  1.6937
19540TIP3   OH280034   2.330   0.081  17.426 -0.4179 -0.9672 -0.6247
19540TIP3    H180035   2.239   0.053  17.442 -0.2440 -0.4455  1.5256
19540TIP3    H280036   2.371   0.080  17.513  0.9407  1.2337 -1.1718
19541TIP3   OH280037   0.610   3.333  15.038  0.0977 -0.0502 -0.2700
19541TIP3    H180038   0.642   3.245  15.059 -0.0841 -0.4587 -1.5904
19541TIP3    H280039   0.645   3.350  14.950  1.9606  2.0979  0.7700
19542TIP3   OH280040   1.964   1.214  11.535  0.1744 -0.2835 -0.7412
19542TIP3    H180041   1.919   1.222  11.619  0.5251  1.1935 -0.6675
19542TIP3    H280042   1.901   1.170  11.478  0.3445 -2.3329  0.5686
19543TIP3   OH280043   2.102   5.181  11.583 -0.2991 -0.1208  0.2554
19543TIP3    H180044   2.094   5.134  11.500 -1.8551  1.2631 -0.4152
19543TIP3    H280045   2.194   5.169  11.608  0.3557 -0.0810 -1.9597
19544TIP3   OH280046   0.285   4.264   5.365  0.1786 -0.0900 -0.6350
19544TIP3    H180047   0.348   4.327   5.330  1.2669 -0.1834  1.0334
19544TIP3    H280048   0.304   4.260   5.459 -2.3476 -0.1029 -0.0281
19545TIP3   OH280049   2.502   5.069   2.984 -0.4930 -0.5857 -0.0395
19545TIP3    H180050   2.513   5.164   2.981  1.9462 -0.8415 -0.6660
19545TIP3    H280051   2.463   5.053   3.070  1.2886  0.8273  1.1057
19546TIP3   OH280052   1.940   0.546   1.766  0.2273  0.3739 -0.1842
19546TIP3    H180053   2.010   0.611   1.770 -0.0161  0.6333 -0.1191
19546TIP3    H280054   1.933   0.524   1.673 -1.2205  2.1322 -0.5362
19547TIP3   OH280055   4.337   5.748   4.414 -0.4146 -0.4191  0.0978
19547TIP3    H180056   4.382   5.832   4.401  0.3007 -0.6443  1.0554
19547TIP3    H280057   4.275   5.765   4.485 -1.1283 -0.3918 -0.5189
19548TIP3   OH280058   1.777   0.638  16.121  0.2063  0.1963  0.2440
19548TIP3    H180059   1.793   0.694  16.045  1.4415  0.1848  0.4612
19548TIP3    H280060   1.682   0.628  16.125  0.0939  0.5669 -1.0258
19549TIP3   OH280061   0.449   1.463   5.151  0.5401  0.1190 -0.7048
19549TIP3    H180062   0.444   1.428   5.062  0.2661  1.2445 -1.1426
19549TIP3    H280063   0.450   1.385   5.207 -1.1872 -0.5793 -1.5807
19550TIP3   OH280064   4.443   6.490   0.850 -0.4534 -0.5652  0.3785
19550TIP3    H180065   4.439   6.450   0.764 -1.5371 -0.0633  0.1696
19550TIP3    H280066   4.463   6.582   0.833 -1.3474 -0.3175  0.5935
19551TIP3   OH280067   2.695   5.816  11.240  0.3859  0.5688  0.6425
19551TIP3    H180068   2.766   5.764  11.203 -0.8053  1.1039 -2.7205
19551TIP3    H280069   2.687   5.892  11.181 -2.0029  1.2695  1.7232
19552TIP3   OH280070   5.372   5.449  11.151  0.4216  0.2296  0.5916
19552TIP3    H180071   5.356   5.543  11.157  0.0053  0.2529 -0.6796
19552TIP3    H280072   5.319   5.420  11.077 -0.3319 -1.2143  1.6574
19553TIP3   OH280073   6.256   3.182   6.711 -0.0889 -0.2714 -0.1319
19553TIP3    H180074   6.329   3.197   6.651  0.9494 -2.2134  0.5659
19553TIP3    H280075   6.181   3.165   6.654  0.2224  0.6401 -0.8509
19554TIP3   OH280076   0.182   1.495   4.774  0.7201 -0.4321  0.0594
19554TIP3    H180077   0.186   1.549   4.695 -2.7098  0.2517  0.1776
19554TIP3    H280078   0.123   1.423   4.751 -0.4577 -0.1618  1.9499
19555TIP3   OH280079   5.116   5.583  12.125  0.2473 -0.3723 -0.0304
19555TIP3    H180080   5.180   5.654  12.130 -0.1748 -0.0086  0.2077
19555TIP3    H280081   5.158   5.509  12.169  0.3237 -0.0049  0.5074
19556TIP3   OH280082   5.887   1.517  15.462  0.0447 -0.0263 -0.0399
19556TIP3    H180083   5.812   1.458  15.470 -1.1422  1.6020  2.6271
19556TIP3    H280084   5.849   1.599  15.430  0.8756  0.5068  0.3165
19557TIP3   OH280085   5.754   6.418  11.923  0.3788 -0.1220  0.0164
19557TIP3    H180086   5.754   6.371  11.840  2.5781  0.1423 -0.2016
19557TIP3    H280087   5.826   6.481  11.915  1.3475 -0.7861  2.4713
19558TIP3   OH280088   0.721   2.505  15.461 -0.7154 -0.1936 -0.1871
19558TIP3    H180089   0.712   2.411  15.446 -1.2235 -0.4473  1.4625
19558TIP3    H280090   0.815   2.521  15.452 -0.1858 -1.4411  2.2599
19559TIP3   OH280091   6.587   1.614   5.188 -0.2538  0.6572  0.2876
19559TIP3    H180092   6.676   1.582   5.180  0.6416  2.6514  1.4179
19559TIP3    H280093   6.539   1.543   5.230  0.8148 -0.4047 -0.2427
19560TIP3   OH280094   3.405   4.037   1.514  0.0317 -0.0332  0.4497
19560TIP3    H180095   3.351   4.101   1.468 -0.2405  0.9620  2.0863
19560TIP3    H280096   3.380   3.953   1.474 -1.7261  0.5491  0.2224
19561TIP3   OH280097   6.277   2.276   1.328 -0.1687  0.4821 -0.2886
19561TIP3    H180098   6.320   2.315   1.252  1.3680  0.3630  0.4751
19561TIP3    H280099   6.336   2.295   1.401 -0.1349 -1.8817  0.3784
19562TIP3   OH280100   3.806   5.903  11.820  0.2989 -0.8838  0.1247
19562TIP3    H180101   3.871   5.857  11.766  0.3474 -0.4507 -0.1919
19562TIP3    H280102   3.857   5.961  11.876  0.2065 -0.7871  0.1098
19563TIP3   OH280103   6.293   0.420  12.886  0.3528  0.6529  0.6590
19563TIP3    H180104   6.339   0.484  12.832  1.4524 -0.4582  0.2487
19563TIP3    H280105   6.279   0.345  12.829  3.0346 -1.2440  2.2367
19564TIP3   OH280106   5.099   3.201  10.650 -0.3582 -0.0350 -0.0749
19564TIP3    H180107   5.141   3.283  10.677 -0.3729 -0.1307  0.2406
19564TIP3    H280108   5.037   3.228  10.583 -0.8215  0.3038  0.4758
19565TIP3   OH280109   4.284   4.038   0.110 -0.1845  0.6344  0.1531
19565TIP3    H180110   4.323   4.039   0.023  0.9495  2.5662  0.6225
19565TIP3    H280111   4.231   4.118   0.114  0.4262  1.0166  1.4703
19566TIP3   OH280112   4.671   0.173  11.873 -0.1544 -0.5574 -0.0450
19566TIP3    H180113   4.689   0.192  11.781 -3.0919 -2.4983 -1.1583
19566TIP3    H280114   4.705   0.249  11.920  1.4132  0.5238 -2.6957
19567TIP3   OH280115   6.724   6.462  10.706 -0.0401  0.0051 -0.4011
19567TIP3    H180116   6.746   6.503  10.622  1.9302  1.3703  0.6918
19567TIP3    H280117   6.676   6.529  10.754 -0.4472 -0.4764 -0.1234
19568TIP3   OH280118   6.488   2.682  12.630 -0.1032  0.1200  0.1129
19568TIP3    H180119   6.578   2.710  12.644 -0.0530 -0.4478  0.9947
19568TIP3    H280120   6.435   2.751  12.670 -0.0034 -0.4922  1.3390
19569TIP3   OH280121   5.016   3.292  16.994 -0.3102 -0.4906  0.1561
19569TIP3    H180122   4.960   3.329  16.927  0.2373 -1.9214 -1.1488
19569TIP3    H280123   4.958   3.234  17.044 -1.4334  2.6919  2.8869
19570TIP3   OH280124   3.975   2.026  16.375  0.2082  0.2700 -0.5190
19570TIP3    H180125   3.971   2.115  16.409  0.9500  0.4118 -0.7899
19570TIP3    H280126   4.022   1.977  16.443  0.3817  0.2265 -0.6722
19571TIP3   OH280127   6.082   2.120  12.719  0.2404 -0.5831 -0.3202
19571TIP3    H180128   6.172   2.153  12.714  0.2112 -0.7067 -3.3117
19571TIP3    H280129   6.091   2.025  12.724  0.2301 -0.5270  1.7688
19572TIP3   OH280130   0.876   6.277  13.738 -0.7145 -0.5569 -0.1621
19572TIP3    H180131   0.958   6.237  13.768 -1.6640 -0.5999  2.6674
19572TIP3    H280132   0.821   6.203  13.711 -0.8358 -0.7779  0.6837
19573TIP3   OH280133   2.173   3.485  13.008 -0.1133  0.1388 -0.5472
19573TIP3    H180134   2.179   3.389  13.015  0.8361  0.2904  1.3892
19573TIP3    H280135   2.264   3.515  13.008 -0.3245  1.0125 -2.8712
19574TIP3   OH280136   4.447   0.109  11.184  0.0246 -0.6209  0.0946
19574TIP3    H180137   4.370   0.109  11.127  0.7577  0.9513 -0.9637
19574TIP3    H280138   4.518   0.076  11.128  0.5692  0.0797  0.3550
19575TIP3   OH280139   1.587   3.613  12.955 -0.4549 -0.0498  0.1314
19575TIP3    H180140   1.585   3.614  13.051 -0.8594 -0.0115  0.1238
19575TIP3    H280141   1.534   3.688  12.929  0.0835  0.2439 -0.1201
19576TIP3   OH280142   6.294   2.878   4.182 -0.0945 -0.1189  0.7419
19576TIP3    H180143   6.235   2.915   4.248 -0.1743  0.6034  0.2693
19576TIP3    H280144   6.240   2.815   4.134 -0.4968  0.5643  0.2879
19577TIP3   OH280145   6.189   2.860  12.778 -0.5774  0.6685 -0.1379
19577TIP3    H180146   6.119   2.922  12.797 -0.7201 -0.1130  2.1902
19577TIP3    H280147   6.146   2.775  12.772  0.0234  0.3303  0.2023
19578TIP3   OH280148   6.390   5.265   2.046  0.1318  0.7163 -0.8126
19578TIP3    H180149   6.401   5.360   2.055 -0.3981  0.7541 -0.5340
19578TIP3    H280150   6.308   5.246   2.090  0.2271  0.1243 -0.8809
19579TIP3   OH280151   0.133   2.639  14.683  0.0408  0.5776 -0.4721
19579TIP3    H180152   0.105   2.569  14.741  0.4244  0.5342 -0.3402
19579TIP3    H280153   0.222   2.659  14.709  0.4978  0.0290 -1.5444
19580TIP3   OH280154   6.598   5.981  17.043  0.2330 -0.0052 -0.6379
19580TIP3    H180155   6.565   5.900  17.082 -0.1845  0.6621  0.4594
19580TIP3    H280156   6.524   6.014  16.992 -0.7842  1.2775  1.4893
19581TIP3   OH280157   2.381   1.504  12.577  0.4296 -0.3881  0.2253
19581TIP3    H180158   2.433   1.557  12.638  2.2806 -1.5462 -0.2489
19581TIP3    H280159   2.366   1.422  12.624  2.6419 -1.6432 -1.0846
19582TIP3   OH280160   1.717   0.880   2.452 -0.1933 -0.0981 -0.7370
19582TIP3    H180161   1.788   0.843   2.401 -0.5378  0.1536 -1.4155
19582TIP3    H280162   1.655   0.808   2.465 -0.4119 -0.0003 -1.2342
19583TIP3   OH280163   6.371   4.044  15.240  0.1619 -0.3950  0.0978
19583TIP3    H180164   6.441   4.103  15.269  2.2454 -1.6021 -2.0547
19583TIP3    H280165   6.327   4.091  15.169  0.6540 -0.6926 -0.4159
19584TIP3   OH280166   6.492   0.241  10.897 -0.6145  0.2143  0.3005
19584TIP3    H180167   6.464   0.162  10.850  0.8170 -0.5695  0.6929
19584TIP3    H280168   6.545   0.289  10.832  0.1206 -0.1296  0.6289
19585TIP3   OH280169   3.667   5.411   4.487 -0.2015 -0.1016  0.0602
19585TIP3    H180170   3.753   5.452   4.484 -0.0107 -0.3462  1.4428
19585TIP3    H280171   3.658   5.382   4.577 -1.6820 -0.2056 -0.0998
19586TIP3   OH280172   5.944   4.352   4.500  0.2556  0.4059  0.2675
19586TIP3    H180173   5.956   4.335   4.594  2.2465 -0.2924 -0.0712
19586TIP3    H280174   6.006   4.294   4.457 -0.2245  1.1279 -1.4670
19587TIP3   OH280175   1.895   5.684  16.664  0.2546  0.0705  0.2096
19587TIP3    H180176   1.809   5.693  16.706 -0.2205 -0.4911 -0.6169
19587TIP3    H280177   1.882   5.716  16.575  1.3607  1.6537  0.5693
19588TIP3   OH280178   1.321   2.676   5.124  0.5163  0.2569  0.0235
19588TIP3    H180179   1.396   2.642   5.173  0.9625 -0.0577 -0.8380
19588TIP3    H280180   1.245   2.635   5.164  0.8859 -0.1532  0.3155
19589TIP3   OH280181   2.624   4.761   1.813 -0.0525  0.4954 -0.1490
19589TIP3    H180182   2.643   4.684   1.868  0.4890  0.7826  0.0708
19589TIP3    H280183   2.630   4.835   1.873  3.1771  1.1063 -1.0672
19590TIP3   OH280184   4.810   0.841   3.305  0.4651  0.1190 -0.0689
19590TIP3    H180185   4.789   0.920   3.355 -0.5681 -0.2623  0.1181
19590TIP3    H280186   4.726   0.797   3.293  0.3009  1.1094 -3.7602
19591TIP3   OH280187   4.377   3.551   4.098 -0.0142 -0.0415  0.5217
19591TIP3    H180188   4.374   3.580   4.189  0.1058 -2.8670  1.5366
19591TIP3    H280189   4.396   3.458   4.104 -0.4558 -0.4062 -2.4148
19592TIP3   OH280190   0.486   3.936   3.923  0.2523  0.3679 -0.1318
19592TIP3    H180191   0.493   3.885   3.841 -1.0205  1.8790 -1.2373
19592TIP3    H280192   0.479   4.027   3.894 -2.6730  0.7779  1.4844
19593TIP3   OH280193   0.719   1.980  13.187  1.0298  0.0119 -0.0485
19593TIP3    H180194   0.752   1.933  13.110  3.4414  0.7810  0.4249
19593TIP3    H280195   0.685   1.912  13.244  0.2918 -0.6861 -1.2757
19594TIP3   OH280196   6.012   3.019  16.530  0.4139 -0.3339 -0.1076
19594TIP3    H180197   6.094   2.971  16.529  0.6110  0.0030 -0.7276
19594TIP3    H280198   5.950   2.960  16.573  0.7453 -0.9784 -0.4967
19595TIP3   OH280199   5.345   4.380   0.076  0.7299  0.1869  0.3407
19595TIP3    H180200   5.345   4.315   0.006  1.1460  1.4087 -0.8584
19595TIP3    H280201   5.379   4.334   0.153  1.3294 -0.9077 -0.5518
19596TIP3   OH280202   0.207   6.107   1.314 -0.1858 -0.3350 -0.4254
19596TIP3    H180203   0.134   6.168   1.329  0.0416  0.3195 -1.8394
19596TIP3    H280204   0.174   6.046   1.248  0.5034 -0.0772 -1.0248
19597TIP3   OH280205   5.175   1.107   4.430 -0.7153  0.0830 -0.2133
19597TIP3    H180206   5.218   1.145   4.506 -2.8745 -0.3814  1.3479
19597TIP3    H280207   5.091   1.077   4.463 -1.5184 -0.6481 -2.6979
19598TIP3   OH280208   3.989   4.425   4.848 -0.3467  0.0182  0.0766
19598TIP3    H180209   4.077   4.388   4.842 -0.7860 -0.9082 -1.1254
19598TIP3    H280210   3.966   4.419   4.940 -0.4500 -2.9431 -0.0566
19599TIP3   OH280211   2.514   6.059   5.132 -0.0566 -0.4382  0.1473
19599TIP3    H180212   2.475   6.145   5.120 -0.4629 -0.8702 -2.1740
19599TIP3    H280213   2.608   6.074   5.130 -0.1265 -0.0560 -0.2511
19600TIP3   OH280214   4.472   2.850   3.428  0.2312 -0.8659  0.2462
19600TIP3    H180215   4.451   2.835   3.521 -3.0297  2.3714  0.2748
19600TIP3    H280216   4.414   2.790   3.381  0.5724 -1.2330  0.2899
19601TIP3   OH280217   1.146   2.969  14.565 -0.7523  0.1093 -0.0648
19601TIP3    H180218   1.141   3.025  14.643 -0.5665  1.3117 -0.8860
19601TIP3    H280219   1.240   2.956  14.551 -0.7772  0.1222 -0.2414
19602TIP3   OH280220   4.888   3.371  13.385  0.3369  0.2552  0.4764
19602TIP3    H180221   4.898   3.457  13.427 -1.4108  0.3304  0.7978
19602TIP3    H280222   4.800   3.343  13.408  0.1047 -0.6773 -1.3830
19603TIP3   OH280223   3.897   4.025  15.648 -0.3559 -0.1423 -0.4089
19603TIP3    H180224   3.984   4.058  15.670  0.0683 -0.4201 -1.5639
19603TIP3    H280225   3.837   4.097  15.670  0.0949 -0.1760  0.9547
19604TIP3   OH280226   5.042   1.628  13.638 -0.2307  0.0894 -0.8449
19604TIP3    H180227   5.006   1.580  13.563 -0.9424 -0.6624 -0.0461
19604TIP3    H280228   5.088   1.562  13.689 -0.9111  0.3015  0.0735
19605TIP3   OH280229   5.023   1.911  12.290 -0.2788 -0.0252 -0.0103
19605TIP3    H180230   5.064   1.988  12.251  2.2636 -0.3742  1.7333
19605TIP3    H280231   5.085   1.840  12.275 -2.3174 -1.7055 -1.0993
19606TIP3   OH280232   4.938   1.804  14.092  0.0514  0.1823  0.0926
19606TIP3    H180233   5.015   1.803  14.035  0.1385 -1.4225  0.1902
19606TIP3    H280234   4.921   1.896  14.108  1.5494  0.5864 -0.4910
19607TIP3   OH280235   0.377   1.379  14.225  0.3455  0.6001 -0.6716
19607TIP3    H180236   0.313   1.307  14.233  1.9049 -0.6494  1.8678
19607TIP3    H280237   0.450   1.340  14.177  0.4005  1.1214 -1.0134
19608TIP3   OH280238   4.401   1.000  11.035 -0.6675  0.1660 -0.1654
19608TIP3    H180239   4.317   1.029  11.069  0.1254  2.7044 -0.1895
19608TIP3    H280240   4.400   1.025  10.943  0.0468  0.0515 -0.2120
19609TIP3   OH280241   0.195   2.166   1.909  0.6178 -0.1963  0.2044
19609TIP3    H180242   0.126   2.214   1.862  1.1447 -0.0966 -0.4920
19609TIP3    H280243   0.264   2.231   1.922 -0.3230  0.3791  3.0199
19610TIP3   OH280244   1.500   2.106   4.268 -0.0767  0.1547  0.0345
19610TIP3    H180245   1.441   2.052   4.215  0.0519 -1.9675  1.9113
19610TIP3    H280246   1.443   2.169   4.311 -0.2906  1.3374 -1.8395
19611TIP3   OH280247   1.900   3.347   5.890 -0.5948 -0.2216  0.5505
19611TIP3    H180248   1.964   3.387   5.948 -2.1864  0.6999  1.7685
19611TIP3    H280249   1.912   3.253   5.902  1.0759 -0.0964  0.0752
19612TIP3   OH280250   4.520   3.299   0.402  0.4915  0.1222  0.3005
19612TIP3    H180251   4.485   3.363   0.464 -0.7109  0.5041 -0.7073
19612TIP3    H280252   4.456   3.227   0.404  1.9144 -1.1677  1.5437
19613TIP3   OH280253   5.193   4.715   4.067 -0.0025 -0.2739 -0.3638
19613TIP3    H180254   5.100   4.701   4.085 -0.1064  0.8585  0.0401
19613TIP3    H280255   5.195   4.749   3.977 -0.4987  4.3122  1.0961
19614TIP3   OH280256   3.892   4.466   0.827  0.4583  0.1875  0.0375
19614TIP3    H180257   3.956   4.489   0.895  0.4633  1.2033 -0.2913
19614TIP3    H280258   3.843   4.547   0.812 -1.2330 -0.7027  0.6110
19615TIP3   OH280259   1.618   4.016  11.620  0.1736  0.3450 -0.2218
19615TIP3    H180260   1.615   3.947  11.554  1.7809 -0.2259  0.2453
19615TIP3    H280261   1.594   4.096  11.572  0.7322 -0.1503 -1.3702
19616TIP3   OH280262   2.243   2.393   0.562  0.0760  0.6381 -0.4382
19616TIP3    H180263   2.250   2.440   0.645  0.5826 -0.3296  0.0776
19616TIP3    H280264   2.321   2.420   0.513  1.1629 -0.7661  0.4506
19617TIP3   OH280265   3.244   4.899   4.350 -0.0229 -0.0167  0.3668
19617TIP3    H180266   3.261   4.962   4.421 -1.6897 -0.4187  1.1585
19617TIP3    H280267   3.157   4.923   4.317  0.8982  0.4839 -1.9336
19618TIP3   OH280268   2.363   2.609   2.334 -0.6332  0.1244 -0.7222
19618TIP3    H180269   2.342   2.578   2.246 -1.5139  1.9602 -1.2072
19618TIP3    H280270   2.290   2.579   2.388 -0.9137  0.3693 -0.9594
19619TIP3   OH280271   1.271   3.853  16.640 -0.4250 -0.7758  0.7632
19619TIP3    H180272   1.232   3.918  16.700  1.5476  0.3230  0.9364
19619TIP3    H280273   1.232   3.874  16.555  0.4842  0.9904  0.7221
19620TIP3   OH280274   2.105   6.291  14.330 -0.2415 -0.1655 -0.5438
19620TIP3    H180275   2.066   6.375  14.352 -1.5913 -1.4976  2.8101
19620TIP3    H280276   2.187   6.288  14.379 -0.9531 -1.3298  0.6520
19621TIP3   OH280277   6.594   0.308  17.420 -0.2568 -0.1249 -0.2114
19621TIP3    H180278   6.625   0.229  17.375  2.3617  1.2471 -1.0548
19621TIP3    H280279   6.625   0.380  17.365 -0.8055  1.5311  1.5624
19622TIP3   OH280280   1.678   2.430   1.333  0.0776  0.0577  0.0892
19622TIP3    H180281   1.608   2.460   1.390  0.4030  1.0419 -0.0207
19622TIP3    H280282   1.647   2.448   1.245 -0.6965 -2.0326 -0.1234
19623TIP3   OH280283   0.470   1.843   2.858  0.6430  0.0290 -0.1521
19623TIP3    H180284   0.419   1.797   2.791 -0.3573 -0.2890  0.7992
19623TIP3    H280285   0.410   1.910   2.891  1.7320  1.3772 -0.7956
19624TIP3   OH280286   4.084   2.154   5.536  0.0996  0.0449  0.7547
19624TIP3    H180287   4.051   2.209   5.606  1.4651  2.8674 -0.6791
19624TIP3    H280288   4.178   2.172   5.532  0.5563 -2.1305 -0.0794
19625TIP3   OH280289   0.795   0.423   2.966 -0.2635 -0.6343  0.5295
19625TIP3    H180290   0.766   0.472   2.889 -1.1568 -1.6777  0.1737
19625TIP3    H280291   0.847   0.351   2.931 -1.4139 -1.6364  0.7976
19626TIP3   OH280292   1.073   5.584   3.223  0.4951 -0.1847 -0.5188
19626TIP3    H180293   1.144   5.564   3.284  1.1792 -0.2710 -1.3218
19626TIP3    H280294   1.041   5.498   3.195  0.9125 -0.1500 -1.1064
19627TIP3   OH280295   4.474   2.217  13.248  0.0782  0.0810  0.3570
19627TIP3    H180296   4.429   2.283  13.194 -0.7110  0.0592  0.9639
19627TIP3    H280297   4.563   2.251  13.259 -0.8107  2.0610  2.2411
19628TIP3   OH280298   1.636   5.984   0.362  0.5715 -0.1117 -0.5415
19628TIP3    H180299   1.659   6.032   0.442  0.4484 -0.4380 -0.3112
19628TIP3    H280300   1.562   6.032   0.326 -0.4385 -0.9033  0.4103
19629TIP3   OH280301   4.434   0.665   2.194 -0.2287  0.2087 -0.0942
19629TIP3    H180302   4.417   0.672   2.288 -1.3265  1.1332 -0.3407
19629TIP3    H280303   4.395   0.581   2.169  0.1668 -0.0941  0.2864
19630TIP3   OH280304   3.913   0.950  11.569  0.2084  0.0939  0.0988
19630TIP3    H180305   3.990   0.988  11.611 -0.2432  2.2464 -0.9087
19630TIP3    H280306   3.839   0.993  11.613 -0.3404 -0.0758 -0.6522
19631TIP3   OH280307   3.157   4.850   4.068  0.5774 -0.0722 -0.0076
19631TIP3    H180308   3.245   4.886   4.061 -0.2844  1.8466 -2.3122
19631TIP3    H280309   3.103   4.924   4.094 -0.3971 -1.2552  1.5242
19632TIP3   OH280310   2.229   2.920   3.890  0.3158  0.4906 -0.2403
19632TIP3    H180311   2.156   2.859   3.898 -1.3014  2.1007 -1.6962
19632TIP3    H280312   2.222   2.977   3.967  0.5792  0.1182  0.0627
19633TIP3   OH280313   6.068   0.590   4.162 -0.5074 -0.2148 -1.1797
19633TIP3    H180314   6.142   0.544   4.123 -0.1609 -0.1416 -0.6192
19633TIP3    H280315   6.099   0.679   4.177 -0.6615 -0.2172 -0.8188
19634TIP3   OH280316   6.131   6.409  13.469 -0.0536  0.4314 -0.4812
19634TIP3    H180317   6.147   6.448  13.382 -0.8678 -1.7595 -1.6859
19634TIP3    H280318   6.212   6.362  13.489  0.4401  1.6051  0.3641
19635TIP3   OH280319   2.412   0.065   2.896 -0.0663 -0.3020  0.2316
19635TIP3    H180320   2.374   0.017   2.823  1.7062  0.2905 -1.1524
19635TIP3    H280321   2.448   0.145   2.857  0.2431  0.4208  1.8847
19636TIP3   OH280322   6.089   2.214   1.019 -0.1192 -0.5913 -0.0384
19636TIP3    H180323   6.160   2.269   0.984 -1.4477  0.8051 -0.6361
19636TIP3    H280324   6.120   2.189   1.106  0.5959  1.0486  0.2388
19637TIP3   OH280325   4.396   3.239  10.333  0.2363  0.0938  0.5243
19637TIP3    H180326   4.490   3.248  10.343  0.4759 -1.6643  0.2682
19637TIP3    H280327   4.367   3.199  10.415 -0.1216 -0.2648  0.2302
19638TIP3   OH280328   1.558   2.711   2.336 -0.3264  0.0981  0.0212
19638TIP3    H180329   1.587   2.620   2.343 -0.0236 -0.1294 -2.7479
19638TIP3    H280330   1.634   2.762   2.363  0.4119 -0.5135 -0.8077
19639TIP3   OH280331   3.436   2.505  15.377  0.1772 -0.7834  0.3988
19639TIP3    H180332   3.453   2.597  15.393 -0.9581 -0.5697  0.4348
19639TIP3    H280333   3.520   2.470  15.347  0.4849  0.3810 -0.1535
19640TIP3   OH280334   0.851   4.020  14.878 -0.2061 -1.0155  0.1383
19640TIP3    H180335   0.808   4.104  14.868 -0.0439 -1.1614 -2.4379
19640TIP3    H280336   0.828   3.991  14.966  0.2485  1.9741  1.3385
19641TIP3   OH280337   0.989   2.738   1.993  0.6035 -0.3141 -0.5370
19641TIP3    H180338   0.934   2.662   2.010 -0.2923  0.8412  2.3876
19641TIP3    H280339   0.974   2.795   2.068  0.0881  3.4726 -3.2780
19642TIP3   OH280340   6.653   2.656  13.833 -0.0216 -0.6152  0.1880
19642TIP3    H180341   6.720   2.684  13.771 -0.7913 -1.7945 -1.2438
19642TIP3    H280342   6.670   2.707  13.912  1.2985  0.5789 -0.8258
19643TIP3   OH280343   0.075   3.551   5.394  0.2100  0.0081 -0.2432
19643TIP3    H180344  -0.016   3.530   5.372 -0.3341  0.7966  1.1344
19643TIP3    H280345   0.098   3.624   5.337 -0.8758  1.4410  1.0657
19644TIP3   OH280346   1.016   2.715   6.302 -0.0910 -0.2228 -0.0381
19644TIP3    H180347   0.929   2.746   6.329 -1.2739 -2.1847 -1.3265
19644TIP3    H280348   1.039   2.649   6.368 -0.6582 -1.3244 -0.8991
19645TIP3   OH280349   5.806   2.076  16.296  0.2473 -0.0447 -0.1579
19645TIP3    H180350   5.762   2.102  16.377 -0.0747 -0.8462 -0.0667
19645TIP3    H280351   5.899   2.081  16.317  0.1916  0.6394 -0.0285
19646TIP3   OH280352   3.373   1.086  14.115  0.1981  0.2988 -0.0319
19646TIP3    H180353   3.375   1.035  14.196 -2.3014 -0.2760 -0.2490
19646TIP3    H280354   3.387   1.022  14.046 -0.0809  0.3784 -0.1641
19647TIP3   OH280355   5.538   2.808  16.117 -0.4704  0.0652 -0.3366
19647TIP3    H180356   5.614   2.752  16.127 -1.4630 -1.3832 -0.5994
19647TIP3    H280357   5.543   2.869  16.190  0.3779 -0.6941  0.2580
19648TIP3   OH280358   3.957   0.453  17.304 -0.7941 -0.6249 -0.2960
19648TIP3    H180359   3.963   0.530  17.249 -3.9898  0.8256  1.0880
19648TIP3    H280360   3.910   0.483  17.382  0.7186 -3.2675  1.8300
19649TIP3   OH280361   6.330   2.227  16.344  0.2305 -0.0308  0.2300
19649TIP3    H180362   6.334   2.279  16.424  2.1481 -0.9511  0.7812
19649TIP3    H280363   6.313   2.138  16.374  0.3841 -0.2971 -0.4398
19650TIP3   OH280364   0.966   5.344   4.803  0.0700  0.5702  1.2218
19650TIP3    H180365   0.876   5.333   4.772  0.9183 -2.9918 -0.4758
19650TIP3    H280366   0.966   5.308   4.891 -0.0726 -0.1604  0.9344
19651TIP3   OH280367   0.100   6.245   3.682 -0.1526  0.2593 -0.3687
19651TIP3    H180368   0.150   6.177   3.728 -0.3224  0.2252 -0.2332
19651TIP3    H280369   0.073   6.306   3.750  1.1853  1.2334 -0.6648
19652TIP3   OH280370   4.337   2.578  16.822 -0.4737  0.0963  0.1923
19652TIP3    H180371   4.331   2.612  16.911  0.2967 -0.6810  0.5560
19652TIP3    H280372   4.249   2.546  16.803 -0.0954 -2.0853  1.6770
19653TIP3   OH280373   5.534   2.222   5.037 -0.5933 -0.0706 -0.7565
19653TIP3    H180374   5.465   2.234   5.103 -0.5890  0.7405 -0.8870
19653TIP3    H280375   5.616   2.234   5.085 -0.4578 -2.2699 -0.3349
19654TIP3   OH280376   3.843   1.188  12.440 -0.3023  0.5437 -0.2583
19654TIP3    H180377   3.844   1.223  12.529  1.9741  1.7324 -0.6639
19654TIP3    H280378   3.752   1.194  12.413 -0.8680  1.1618  1.6152
19655TIP3   OH280379   3.166   2.838  13.722 -0.9731 -0.1999 -0.0543
19655TIP3    H180380   3.086   2.882  13.750 -1.5522 -0.8704 -0.6412
19655TIP3    H280381   3.188   2.780  13.795  0.2301  1.5652  1.0714
19656TIP3   OH280382   1.706   3.439   5.706 -0.1076  0.3841 -0.2638
19656TIP3    H180383   1.759   3.447   5.627 -0.4893 -0.9827 -0.6924
19656TIP3    H280384   1.766   3.406   5.772 -0.0567  0.3856 -0.3090
19657TIP3   OH280385   5.537   2.370  11.106 -0.2471 -0.2985 -0.2544
19657TIP3    H180386   5.498   2.382  11.020  0.7595 -2.5820 -1.0977
19657TIP3    H280387   5.582   2.453  11.124  2.6494 -0.9065 -3.6329
19658TIP3   OH280388   4.193   0.481  16.355  0.0166  0.6543  0.0405
19658TIP3    H180389   4.169   0.392  16.379 -0.5710  0.8503  0.2065
19658TIP3    H280390   4.213   0.477  16.261  0.1487  0.3176  0.0846
19659TIP3   OH280391   3.173   1.877   6.187  0.2445  0.4867 -0.3600
19659TIP3    H180392   3.145   1.921   6.106  0.7408  0.9711 -0.2800
19659TIP3    H280393   3.236   1.938   6.226  0.4688 -0.0199  0.0804
19660TIP3   OH280394   0.871   2.021  14.512  0.0758 -0.6267  0.2643
19660TIP3    H180395   0.872   2.009  14.417  0.2991  0.2263  0.1457
19660TIP3    H280396   0.960   2.051  14.533 -0.6267  1.5570  0.3872
19661TIP3   OH280397   4.314   3.059  12.287 -0.2834  0.1937  0.3249
19661TIP3    H180398   4.257   3.133  12.267 -0.5641 -0.0013  0.4015
19661TIP3    H280399   4.255   2.991  12.320 -0.0292 -0.0662  0.2502
19662TIP3   OH280400   3.243   4.827  16.063  0.4745  0.2421  0.2393
19662TIP3    H180401   3.219   4.741  16.026 -0.2953  1.1319 -1.4693
19662TIP3    H280402   3.313   4.808  16.124  0.6297 -1.5697 -0.4285
19663TIP3   OH280403   1.512   5.821  16.474  0.1943  0.2731  0.1728
19663TIP3    H180404   1.460   5.886  16.426  1.3156  1.5526  0.6295
19663TIP3    H280405   1.465   5.808  16.556 -1.1033 -1.0395 -0.7375
19664TIP3   OH280406   2.614   6.681   3.273  0.1629 -0.1684  0.3612
19664TIP3    H180407   2.679   6.614   3.294 -1.8002 -1.9994  0.9801
19664TIP3    H280408   2.625   6.747   3.341  2.1363  0.1644 -0.2456
19665TIP3   OH280409   6.355   1.881  13.962  0.3018 -0.0983  0.2735
19665TIP3    H180410   6.324   1.938  13.891 -1.8363  0.2450  1.3908
19665TIP3    H280411   6.286   1.814  13.970  1.5837 -1.4313  0.6046
19666TIP3   OH280412   5.722   6.516  12.815  0.3858 -0.4193  0.2715
19666TIP3    H180413   5.713   6.607  12.845 -2.4518 -0.2672 -0.7480
19666TIP3    H280414   5.730   6.465  12.895  1.2164  0.6445  0.8957
19667TIP3   OH280415   4.254   2.663   1.276  0.5688  0.1314 -0.0051
19667TIP3    H180416   4.182   2.699   1.328 -0.3272 -0.5692 -0.7296
19667TIP3    H280417   4.253   2.569   1.294  0.6780 -0.0267 -0.7612
19668TIP3   OH280418   6.273   5.434  12.544  0.2439  0.1643  0.2722
19668TIP3    H180419   6.293   5.350  12.503 -1.7128 -0.7798  1.1166
19668TIP3    H280420   6.303   5.425  12.635  1.4321  0.9875 -0.0078
19669TIP3   OH280421   5.587   5.105   4.114 -0.0104 -0.4453 -0.5459
19669TIP3    H180422   5.681   5.116   4.131 -0.0966 -0.3463 -0.1365
19669TIP3    H280423   5.547   5.100   4.201 -0.5074  0.5456 -0.7050
19670TIP3   OH280424   0.742   4.961  15.751  0.3597  0.3804 -0.2595
19670TIP3    H180425   0.804   5.034  15.752  1.2483 -0.3636  0.2176
19670TIP3    H280426   0.709   4.957  15.841  0.2475  0.2465 -0.3062
19671TIP3   OH280427   0.698   6.300  11.338  0.4552 -0.5324  0.2184
19671TIP3    H180428   0.644   6.319  11.261 -0.9299  0.2366  1.3194
19671TIP3    H280429   0.690   6.205  11.349 -0.0751 -0.5316 -0.0797
19672TIP3   OH280430   1.747   2.028  14.604 -0.0103  0.1126 -0.3989
19672TIP3    H180431   1.674   2.016  14.543  0.1788 -1.4856 -0.3526
19672TIP3    H280432   1.762   2.122  14.605 -1.8893  0.4462 -0.6245
19673TIP3   OH280433   2.486   0.517  11.023 -0.9083 -0.4107 -0.7586
19673TIP3    H180434   2.482   0.525  10.928 -1.3300 -1.2654 -0.8189
19673TIP3    H280435   2.432   0.589  11.055 -0.8285 -0.1632 -1.1664
19674TIP3   OH280436   2.872   1.510  15.534 -0.0939 -0.2175  0.0601
19674TIP3    H180437   2.929   1.496  15.459 -1.3958  0.8322 -1.1806
19674TIP3    H280438   2.854   1.423  15.568  0.8407 -0.6784 -0.5931
19675TIP3   OH280439   3.843   3.280   3.985  0.6614  0.1663 -0.3279
19675TIP3    H180440   3.799   3.345   4.039 -0.7208  0.7065 -2.0074
19675TIP3    H280441   3.773   3.222   3.954  1.4081 -0.1868 -1.4492
19676TIP3   OH280442   1.390   0.708  11.393  0.2996 -0.0081  0.1323
19676TIP3    H180443   1.404   0.801  11.375  0.5723 -0.4499 -2.3400
19676TIP3    H280444   1.346   0.706  11.477  2.2266  2.2292  1.3264
19677TIP3   OH280445   4.070   0.777   3.263  0.9243  0.1369  0.1389
19677TIP3    H180446   4.092   0.690   3.295  0.7270  0.1325  0.2626
19677TIP3    H280447   4.154   0.821   3.253  1.1573 -0.6227 -1.5242
19678TIP3   OH280448   6.477   5.892  16.057  0.3983  0.2453  0.2272
19678TIP3    H180449   6.414   5.823  16.080  0.7517  0.0130  0.4996
19678TIP3    H280450   6.556   5.845  16.032  0.3570  0.5271 -0.4630
19679TIP3   OH280451   6.709   1.580  11.648 -0.4110 -0.1882  0.0435
19679TIP3    H180452   6.692   1.672  11.668 -3.2249 -0.6260  0.0998
19679TIP3    H280453   6.672   1.567  11.561 -0.3587 -1.3404  0.1760
19680TIP3   OH280454   3.915   0.939  13.899 -0.1252  0.1236  0.0081
19680TIP3    H180455   3.963   0.947  13.982  0.6728 -2.0282 -0.1586
19680TIP3    H280456   3.823   0.930  13.925 -0.0229  0.6854  0.5849
19681TIP3   OH280457   1.565   5.789   1.189 -0.0576  0.3772 -0.1736
19681TIP3    H180458   1.487   5.800   1.243 -0.3313  1.9177 -0.8309
19681TIP3    H280459   1.584   5.877   1.156  2.7874  0.3575  1.0956
19682TIP3   OH280460   0.193   4.284   2.903 -0.1648  0.0436  0.3140
19682TIP3    H180461   0.115   4.319   2.945 -0.5252  1.2739 -1.2463
19682TIP3    H280462   0.249   4.254   2.975 -2.1472 -1.1027  1.4482
19683TIP3   OH280463   0.518   2.630   4.449  0.5077 -0.1509 -0.0250
19683TIP3    H180464   0.533   2.590   4.535  1.1528  1.6647  0.7715
19683TIP3    H280465   0.441   2.585   4.415  0.8623 -1.6335  1.0366
19684TIP3   OH280466   1.296   5.951  12.453 -0.4315 -0.3547  0.4572
19684TIP3    H180467   1.262   6.032  12.415 -1.4643  0.2987  2.6294
19684TIP3    H280468   1.309   5.972  12.546  3.4300 -1.3865  0.3238
19685TIP3   OH280469   3.410   0.438   5.257 -0.3274  0.0459 -0.1582
19685TIP3    H180470   3.404   0.490   5.337 -0.4386 -1.0039  0.5337
19685TIP3    H280471   3.424   0.348   5.288 -0.2174 -0.3488 -1.3213
19686TIP3   OH280472   0.423   6.075  14.299  0.2914  0.3813  0.2715
19686TIP3    H180473   0.349   6.071  14.359 -1.5807 -0.3537 -1.9491
19686TIP3    H280474   0.394   6.027  14.221  1.8953  2.7147 -1.9449
19687TIP3   OH280475   2.087   4.611   3.298 -0.1215  0.2730 -0.3532
19687TIP3    H180476   2.133   4.688   3.265 -0.2880  0.6176  0.1992
19687TIP3    H280477   1.999   4.643   3.320  0.2091  0.2383  1.1238
19688TIP3   OH280478   4.191   3.233  11.227  0.2899 -0.1354  0.0946
19688TIP3    H180479   4.127   3.217  11.158 -1.7425  2.2777  1.2324
19688TIP3    H280480   4.275   3.212  11.187 -0.9214 -0.3672 -2.5600
19689TIP3   OH280481   0.513   6.292  11.906  0.0886  0.7543  0.1811
19689TIP3    H180482   0.590   6.348  11.893 -0.3613  1.2899 -0.2467
19689TIP3    H280483   0.485   6.311  11.996  0.7178  0.2099  0.5039
19690TIP3   OH280484   5.661   5.727   5.304 -0.2283 -0.1890  0.5537
19690TIP3    H180485   5.628   5.694   5.388  1.1538  2.4511  2.2646
19690TIP3    H280486   5.729   5.790   5.328 -1.8467  2.9876 -2.3899
19691TIP3   OH280487   0.714   2.742   1.877 -0.0624 -0.0048  0.5829
19691TIP3    H180488   0.742   2.809   1.940  1.4893 -0.7543  0.7246
19691TIP3    H280489   0.759   2.662   1.905 -0.1431 -0.5965 -0.8843
19692TIP3   OH280490   5.106   2.512  11.941  0.0430 -0.6321 -0.2036
19692TIP3    H180491   5.057   2.569  11.999  0.7073  0.2973 -0.5410
19692TIP3    H280492   5.040   2.478  11.880 -0.3124  0.0209 -0.1912
19693TIP3   OH280493   5.940   4.241  14.034 -0.2468  0.2959  0.1538
19693TIP3    H180494   6.005   4.259  13.966  0.8649 -0.5003  0.9602
19693TIP3    H280495   5.873   4.188  13.990  0.0523  0.4682 -0.5137
19694TIP3   OH280496   5.159   3.026   2.683 -0.4652  0.4796 -0.0190
19694TIP3    H180497   5.121   2.985   2.605 -1.9690 -1.0895  1.4660
19694TIP3    H280498   5.240   2.977   2.698 -1.1278 -0.4929  0.4615
19695TIP3   OH280499   6.725   4.626  11.926 -0.2080 -0.4079  0.0304
19695TIP3    H180500   6.717   4.532  11.941 -1.0871 -0.1237  1.5091
19695TIP3    H280501   6.644   4.662  11.961  0.0817  0.9031 -0.6000
19696TIP3   OH280502   1.340   2.815   3.780  0.4748 -0.4524 -0.0995
19696TIP3    H180503   1.249   2.820   3.749 -0.6190 -1.6099  2.6418
19696TIP3    H280504   1.343   2.737   3.834  3.0221 -0.1807  0.2606
19697TIP3   OH280505   0.465   2.896  15.371  0.0161  0.3108  0.4307
19697TIP3    H180506   0.503   2.811  15.347 -1.6559 -0.6882  1.1736
19697TIP3    H280507   0.493   2.955  15.301 -1.1549 -1.5234 -1.7043
19698TIP3   OH280508   6.144   1.690   1.459 -0.2515 -0.5353  0.4057
19698TIP3    H180509   6.066   1.689   1.404  0.2212 -0.1306 -0.2873
19698TIP3    H280510   6.216   1.670   1.399  0.1886 -0.8328  1.0220
19699TIP3   OH280511   0.773   5.299  10.712  0.0739 -0.2494  0.6933
19699TIP3    H180512   0.708   5.257  10.655  0.7551 -0.5092  0.0980
19699TIP3    H280513   0.857   5.270  10.678  0.5356  0.8426  0.8654
19700TIP3   OH280514   4.373   6.121  12.415 -0.0867  0.3654 -0.8752
19700TIP3    H180515   4.394   6.203  12.371  1.9011  0.7607  0.6800
19700TIP3    H280516   4.379   6.141  12.509 -0.8757 -1.2417 -0.4402
19701TIP3   OH280517   1.547   4.579  16.041 -0.3065 -0.5937 -0.1767
19701TIP3    H180518   1.524   4.535  16.122  0.7022 -1.8406 -0.5418
19701TIP3    H280519   1.466   4.576  15.989 -0.5211 -1.1728  0.1785
19702TIP3   OH280520   5.129   2.838   0.733  0.2044  0.2044 -0.5853
19702TIP3    H180521   5.041   2.870   0.753 -0.9401 -2.4520 -1.0021
19702TIP3    H280522   5.187   2.910   0.759 -2.0739  2.2008 -0.6905
19703TIP3   OH280523   3.288   4.197  11.234  0.4904 -0.5353  0.0633
19703TIP3    H180524   3.235   4.261  11.281  1.4585  0.3326  0.0193
19703TIP3    H280525   3.351   4.167  11.300  0.4419 -0.9702 -0.0888
19704TIP3   OH280526   5.746   5.815  11.364  0.0186  0.0764 -0.1135
19704TIP3    H180527   5.664   5.804  11.318  0.4059 -0.3466 -0.7088
19704TIP3    H280528   5.803   5.745  11.331  0.2363 -0.3742  1.1558
19705TIP3   OH280529   0.420   4.579  14.627 -0.1556 -0.1729 -0.3264
19705TIP3    H180530   0.372   4.661  14.619 -1.4718 -0.8281  0.4678
19705TIP3    H280531   0.506   4.605  14.661 -0.9544  0.8066  1.0819
19706TIP3   OH280532   2.107   5.572  12.699  0.2876 -0.3580 -0.0623
19706TIP3    H180533   2.190   5.527  12.718  0.4705 -0.5005 -1.1475
19706TIP3    H280534   2.059   5.511  12.643 -0.4672 -0.1827  0.3847
19707TIP3   OH280535   5.444   0.130  12.684 -0.4812 -0.9483  0.3230
19707TIP3    H180536   5.506   0.201  12.701 -2.3265  0.2181  2.8129
19707TIP3    H280537   5.446   0.119  12.589  0.2137  2.1622 -0.1285
19708TIP3   OH280538   4.987   2.509   3.266  0.1320 -0.4162  0.2999
19708TIP3    H180539   5.005   2.422   3.230 -0.4988  0.1222 -1.3960
19708TIP3    H280540   5.073   2.541   3.294  0.8698 -0.4496 -1.7692
19709TIP3   OH280541   5.922   6.388  16.674  0.3366 -0.1804 -1.0334
19709TIP3    H180542   5.900   6.389  16.581  0.0263  2.3212 -0.9866
19709TIP3    H280543   5.847   6.430  16.717  0.6733 -0.8946  0.3096
19710TIP3   OH280544   4.851   2.685  15.660  0.1706 -0.2219  0.1244
19710TIP3    H180545   4.907   2.656  15.732  0.6556 -0.6447 -0.4133
19710TIP3    H280546   4.823   2.773  15.685  0.9020 -0.0922  0.5042
19711TIP3   OH280547   2.348   3.050   6.404 -0.3145 -0.0859 -0.3965
19711TIP3    H180548   2.432   3.078   6.367 -1.0385  1.8413 -0.6655
19711TIP3    H280549   2.359   3.057   6.498 -0.0259 -0.3168 -0.4112
19712TIP3   OH280550   4.683   4.572  13.570  0.2657 -0.7523 -0.5238
19712TIP3    H180551   4.704   4.486  13.535 -1.1607 -1.1149 -0.5664
19712TIP3    H280552   4.696   4.564  13.665 -0.9363 -1.3830 -0.3900
19713TIP3   OH280553   2.144   1.537   0.702  0.1205 -0.4598 -0.1468
19713TIP3    H180554   2.074   1.471   0.700  0.7363 -1.1039 -0.7854
19713TIP3    H280555   2.158   1.554   0.795 -0.2058 -1.0670  0.0207
19714TIP3   OH280556   3.755   4.812  11.869  0.0585  0.1559 -0.2229
19714TIP3    H180557   3.680   4.872  11.873 -0.4844 -0.5747  1.0639
19714TIP3    H280558   3.778   4.808  11.776 -1.7868  0.0735 -0.7083
19715TIP3   OH280559   0.828   1.994  11.120 -0.0067 -0.2781 -0.0962
19715TIP3    H180560   0.733   2.005  11.117  0.1862  2.4518  1.0190
19715TIP3    H280561   0.846   1.963  11.209  0.1707 -0.8912 -0.3376
19716TIP3   OH280562   3.591   1.590  11.148  0.1365  0.5594  0.0689
19716TIP3    H180563   3.614   1.539  11.070 -0.0430 -0.9339  0.9457
19716TIP3    H280564   3.543   1.665  11.115 -3.0191 -1.7655 -1.1329
19717TIP3   OH280565   0.994   5.949  13.644 -0.2349 -0.6924  0.0301
19717TIP3    H180566   1.025   5.859  13.642  0.5650 -0.4528  0.9448
19717TIP3    H280567   0.950   5.961  13.560 -0.1537 -1.8585 -0.1964
19718TIP3   OH280568   2.558   4.292  13.913  0.5603  0.3226  0.1447
19718TIP3    H180569   2.579   4.253  13.998  0.8993  0.4842  0.1399
19718TIP3    H280570   2.541   4.218  13.855  0.2279  0.2156  0.3803
19719TIP3   OH280571   6.507   5.664  12.111 -0.4240 -0.1005 -0.0833
19719TIP3    H180572   6.432   5.637  12.164  0.9314 -0.2039  1.8666
19719TIP3    H280573   6.564   5.710  12.172  1.2542 -0.2845 -1.4485
19720TIP3   OH280574   1.676   0.221   2.095  0.0778 -0.2044 -0.3524
19720TIP3    H180575   1.643   0.253   2.179  0.4528 -0.2031 -0.2037
19720TIP3    H280576   1.687   0.300   2.041  0.5135 -0.1341 -0.1609
19721TIP3   OH280577   5.638   2.186   0.107  0.0784  0.3514  0.1815
19721TIP3    H180578   5.652   2.206   0.199 -0.3069  0.0680  0.3070
19721TIP3    H280579   5.555   2.229   0.086  0.4489  0.8969 -0.1877
19722TIP3   OH280580   3.311   1.819   5.760  0.0093  0.4423  0.1950
19722TIP3    H180581   3.334   1.874   5.835  0.6215  0.7653 -0.2218
19722TIP3    H280582   3.251   1.754   5.796 -1.9404  2.2531  0.4312
19723TIP3   OH280583   0.894   6.326   2.463 -0.1191  0.1585  0.6973
19723TIP3    H180584   0.878   6.390   2.532  1.2691  2.3071 -0.8786
19723TIP3    H280585   0.981   6.346   2.430 -0.8344 -0.5395 -1.9121
19724TIP3   OH280586   2.755   0.201   2.820 -0.3069 -0.1137 -0.3615
19724TIP3    H180587   2.667   0.232   2.798 -0.1368  0.2856 -0.4785
19724TIP3    H280588   2.814   0.271   2.792 -0.1730  1.3198  2.9835
19725TIP3   OH280589   2.646   5.915   0.289 -0.4275  0.2440  0.8194
19725TIP3    H180590   2.557   5.929   0.321  0.4267  2.8715  2.3139
19725TIP3    H280591   2.657   5.981   0.220  0.0008 -0.8887 -0.2355
19726TIP3   OH280592   0.148   0.894  12.697  0.1797  0.2407  0.1978
19726TIP3    H180593   0.190   0.909  12.782 -1.7929 -0.0056  1.2863
19726TIP3    H280594   0.105   0.976  12.676  0.7909  0.3516 -0.6792
19727TIP3   OH280595   0.020   1.241  12.915  0.2543  0.4462 -0.0778
19727TIP3    H180596   0.095   1.258  12.972  0.2991  3.6427 -0.9078
19727TIP3    H280597  -0.054   1.280  12.961 -0.2902  0.1931 -0.7318
19728TIP3   OH280598   0.533   4.291  13.725 -0.1651  0.0012 -0.2208
19728TIP3    H180599   0.578   4.371  13.752 -0.2934 -0.4016  1.2542
19728TIP3    H280600   0.493   4.313  13.641 -0.0333  1.4298  0.0679
19729TIP3   OH280601   6.345   6.203  15.491  0.1738  0.0147 -0.2230
19729TIP3    H180602   6.250   6.190  15.499 -0.0824  1.0696 -1.2452
19729TIP3    H280603   6.360   6.291  15.527  0.8484 -0.3587  0.4203
19730TIP3   OH280604   5.552   1.974   3.459  0.3737 -0.6252  0.4744
19730TIP3    H180605   5.546   2.022   3.377  0.4895  0.6044  1.1685
19730TIP3    H280606   5.564   1.882   3.432  1.1981 -0.1498 -0.8738
19731TIP3   OH280607   1.506   1.916   0.832 -0.5581 -0.2751  0.1317
19731TIP3    H180608   1.593   1.884   0.810 -0.4540 -0.4036  0.7140
19731TIP3    H280609   1.520   1.988   0.893 -0.7954  0.9359 -1.1953
19732TIP3   OH280610   0.245   2.453  15.443 -0.8091  0.5051 -0.3830
19732TIP3    H180611   0.243   2.359  15.460  1.4608  0.6302  1.0668
19732TIP3    H280612   0.277   2.491  15.524 -2.3149  2.6373 -0.7193
19733TIP3   OH280613   3.490   6.534  14.608 -0.3296 -0.3375  0.9242
19733TIP3    H180614   3.506   6.447  14.646 -1.9767 -0.7497  0.7579
19733TIP3    H280615   3.566   6.550  14.552 -0.0763 -1.7549  0.8163
19734TIP3   OH280616   3.231   3.886  11.736 -0.1518  0.5213  0.1962
19734TIP3    H180617   3.264   3.802  11.767 -1.5715 -0.2233 -0.2534
19734TIP3    H280618   3.303   3.947  11.752  0.4248 -0.5047  1.7498
19735TIP3   OH280619   3.284   5.569   3.810  0.1875  0.1211  0.4572
19735TIP3    H180620   3.254   5.479   3.821 -1.0263  0.3311 -0.8036
19735TIP3    H280621   3.219   5.622   3.858 -0.8292  0.4913 -1.2366
19736TIP3   OH280622   5.724   0.481   2.149  0.0674 -0.2486 -0.3168
19736TIP3    H180623   5.797   0.508   2.093 -0.5028  1.9280 -0.0603
19736TIP3    H280624   5.734   0.386   2.155  3.1526  0.0030  0.0960
19737TIP3   OH280625   5.129   4.814   1.219 -0.3686 -0.2506  0.3531
19737TIP3    H180626   5.189   4.821   1.293 -1.4803 -1.4758  1.4400
19737TIP3    H280627   5.098   4.723   1.222  0.4261 -0.7087 -2.3579
19738TIP3   OH280628   6.657   1.689   1.091 -0.5033  0.3130  0.3387
19738TIP3    H180629   6.670   1.605   1.134  0.4698  1.3084  2.1068
19738TIP3    H280630   6.564   1.690   1.067 -0.7628 -0.8411  1.2117
19739TIP3   OH280631   2.876   5.840  13.221  0.0496 -0.0313 -0.4414
19739TIP3    H180632   2.879   5.930  13.252 -0.6779 -0.3593  0.6623
19739TIP3    H280633   2.967   5.819  13.197  0.1874  1.0409 -0.8915
19740TIP3   OH280634   1.719   2.516  16.901 -0.3116  0.4864  0.3592
19740TIP3    H180635   1.625   2.506  16.888 -0.1189 -0.2273 -0.6395
19740TIP3    H280636   1.740   2.458  16.974 -0.6030  0.4602  0.4252
19741TIP3   OH280637   2.343   5.905  14.231 -0.2207 -0.0326  0.1339
19741TIP3    H180638   2.271   5.849  14.203 -1.8294  0.9997  1.9814
19741TIP3    H280639   2.349   5.972  14.163  2.2329 -2.6198 -2.5205
19742TIP3   OH280640   4.957   5.823   2.202 -0.7454  0.0372 -0.6586
19742TIP3    H180641   4.890   5.857   2.144 -0.7720  0.5180 -0.3479
19742TIP3    H280642   5.026   5.889   2.202 -0.4747 -0.2371 -0.6092
19743TIP3   OH280643   1.051   3.214   4.060 -0.0680  0.1011  0.2124
19743TIP3    H180644   1.072   3.121   4.059 -2.9135 -0.6864  1.9409
19743TIP3    H280645   0.987   3.226   3.990  1.0565  1.0174 -0.6919
19744TIP3   OH280646   1.088   1.282  17.340 -0.0449 -1.0167  0.6713
19744TIP3    H180647   1.082   1.214  17.408  0.2275  0.4292  2.2132
19744TIP3    H280648   1.013   1.264  17.283 -0.5700 -2.0142  1.6111
19745TIP3   OH280649   3.805   3.781   2.137  0.3796 -0.2061  0.1095
19745TIP3    H180650   3.870   3.846   2.164  0.1666  0.9963 -2.0834
19745TIP3    H280651   3.846   3.736   2.063 -1.1923  0.4833 -1.2209
19746TIP3   OH280652   3.827   4.209   5.482 -0.7271  0.1611  0.5725
19746TIP3    H180653   3.839   4.284   5.540 -0.0710 -0.2840  1.0291
19746TIP3    H280654   3.761   4.237   5.419  0.9382  1.8816 -0.5165
19747TIP3   OH280655   1.994   4.882   4.781 -0.3604  0.2874 -0.0929
19747TIP3    H180656   1.968   4.901   4.871 -0.6265  0.4572 -0.2061
19747TIP3    H280657   1.946   4.945   4.728  0.0272  0.3822 -0.3308
19748TIP3   OH280658   3.309   1.008   1.249  0.5754 -0.6806  0.1953
19748TIP3    H180659   3.365   0.971   1.180  0.4553  0.6744 -0.6538
19748TIP3    H280660   3.277   1.090   1.213 -0.8027 -0.7179  1.2562
19749TIP3   OH280661   0.467   3.389   5.579 -0.0084  0.2513 -0.3779
19749TIP3    H180662   0.375   3.381   5.603  0.3286 -1.4553  0.5610
19749TIP3    H280663   0.512   3.404   5.662  0.6706 -0.3609 -0.6157
19750TIP3   OH280664   3.582   0.239   4.219  0.4664  0.0432 -0.6748
19750TIP3    H180665   3.656   0.297   4.201 -0.1204  0.5309 -1.6060
19750TIP3    H280666   3.508   0.298   4.234 -0.1320 -0.4547 -1.5883
19751TIP3   OH280667   2.467   1.538  13.065  0.3682  0.1054 -0.0034
19751TIP3    H180668   2.534   1.603  13.042 -0.8292  1.0209 -1.0553
19751TIP3    H280669   2.487   1.462  13.011  0.6911  0.3006 -0.1601
19752TIP3   OH280670   6.118   5.297   2.741  0.2216 -0.3952 -0.2504
19752TIP3    H180671   6.067   5.282   2.661  0.4173  1.5068 -0.7652
19752TIP3    H280672   6.096   5.222   2.797  0.2991 -1.9388 -2.1683
19753TIP3   OH280673   5.117   6.356   4.796 -0.2111 -0.4649 -0.7145
19753TIP3    H180674   5.148   6.387   4.881 -2.3937 -1.1363  0.3966
19753TIP3    H280675   5.074   6.432   4.757  0.7745 -0.1616 -1.2442
19754TIP3   OH280676   1.367   5.131  14.962 -0.2861 -0.0522 -0.7051
19754TIP3    H180677   1.340   5.092  14.879 -3.1890 -0.2929  0.2213
19754TIP3    H280678   1.300   5.197  14.980  0.6646  0.4862  1.0998
19755TIP3   OH280679   5.945   1.180  14.819  0.0207 -0.4092 -0.3884
19755TIP3    H180680   5.907   1.108  14.769 -0.6438 -0.8382  0.6975
19755TIP3    H280681   6.035   1.187  14.788  0.2241 -2.0038 -0.2003
19756TIP3   OH280682   2.580   6.384   4.999 -0.0752 -0.1761  0.1517
19756TIP3    H180683   2.518   6.318   4.967 -0.6855  0.1738  0.5859
19756TIP3    H280684   2.664   6.359   4.959 -0.4385 -0.7996 -0.2526
19757TIP3   OH280685   4.805   0.657   1.166 -0.0877  0.8255 -0.3799
19757TIP3    H180686   4.866   0.709   1.218  2.1207  0.8214 -2.7552
19757TIP3    H280687   4.738   0.719   1.139  0.1218  1.3943  0.3669
19758TIP3   OH280688   0.755   2.567  14.699 -0.3276  0.0140 -0.2363
19758TIP3    H180689   0.710   2.649  14.718 -0.4478  0.1585 -1.1294
19758TIP3    H280690   0.848   2.588  14.706 -0.3438  0.3766 -1.0505
19759TIP3   OH280691   5.401   0.994   0.420  0.3619  0.1060  0.4142
19759TIP3    H180692   5.495   1.008   0.406  0.3443 -0.4775 -0.3556
19759TIP3    H280693   5.365   0.984   0.332 -0.3996  0.1785  0.7114
19760TIP3   OH280694   2.178   2.062  17.129 -0.3271 -0.7488  0.5411
19760TIP3    H180695   2.234   2.107  17.066 -0.7190 -1.0187 -0.0087
19760TIP3    H280696   2.201   2.101  17.214 -1.7688  1.6659 -0.0827
19761TIP3   OH280697   0.811   4.756  13.707  0.1088  0.0469  0.0141
19761TIP3    H180698   0.809   4.848  13.681  0.0908  0.1449  0.3575
19761TIP3    H280699   0.860   4.713  13.637  0.7437  0.4392  0.2073
19762TIP3   OH280700   0.769   5.191   6.351  0.4576  0.0767  0.1688
19762TIP3    H180701   0.786   5.097   6.346  0.8531  0.0957  1.0837
19762TIP3    H280702   0.677   5.201   6.326  0.8876 -0.3550 -1.7415
19763TIP3   OH280703   4.106   1.953  10.556  0.0678 -0.1401 -0.2764
19763TIP3    H180704   4.118   2.025  10.495 -0.9889 -0.1117 -0.4619
19763TIP3    H280705   4.098   1.995  10.642  0.6546 -0.1259 -0.2226
19764TIP3   OH280706   3.280   6.065  12.893 -0.2019 -0.0021  0.6394
19764TIP3    H180707   3.251   6.101  12.977 -0.4213 -0.2066  0.6524
19764TIP3    H280708   3.207   6.080  12.834 -0.4763 -0.8221  0.7576
19765TIP3   OH280709   4.768   4.752   2.937 -0.0525  0.0189 -0.3179
19765TIP3    H180710   4.686   4.734   2.891  0.0730 -1.1634 -0.0917
19765TIP3    H280711   4.800   4.667   2.966  0.6903  0.5724  0.5820
19766TIP3   OH280712   1.195   1.140  12.542  0.3468  0.5137  0.3339
19766TIP3    H180713   1.133   1.088  12.594 -0.5420  1.4073  0.1940
19766TIP3    H280714   1.193   1.226  12.582  0.6438  0.8597 -0.3856
19767TIP3   OH280715   0.019   3.041  11.983 -0.6505 -0.0484  0.2492
19767TIP3    H180716   0.070   3.105  12.033 -0.8336  0.1955  0.1244
19767TIP3    H280717   0.064   3.036  11.898 -0.9083  0.2587  0.0954
19768TIP3   OH280718   2.947   2.622   1.417 -0.0179 -0.2851 -0.5333
19768TIP3    H180719   2.925   2.618   1.510 -1.3449  1.4902 -0.7166
19768TIP3    H280720   2.982   2.535   1.396 -2.2940 -1.6590  1.0012
19769TIP3   OH280721   3.160   6.163   3.418 -1.8980  0.5948 -0.4858
19769TIP3    H180722   3.222   6.232   3.445 -0.0857 -0.8702 -0.6593
19769TIP3    H280723   3.132   6.189   3.330  2.0334 -0.7922 -2.4190
19770TIP3   OH280724   4.823   0.764  15.627  0.2734  0.0845 -0.4045
19770TIP3    H180725   4.909   0.758  15.585  0.0338 -0.2268 -0.8544
19770TIP3    H280726   4.777   0.685  15.599 -0.9131  1.2208 -1.8945
19771TIP3   OH280727   2.707   0.035  16.833  0.7215  0.3918 -0.4480
19771TIP3    H180728   2.715  -0.003  16.920  0.4720  1.1154 -0.0986
19771TIP3    H280729   2.771  -0.013  16.780  2.9065  1.7412  0.7662
19772TIP3   OH280730   3.447   1.995  13.310  0.0482 -0.0948  0.2552
19772TIP3    H180731   3.413   2.082  13.329 -1.4730 -0.1208 -1.9529
19772TIP3    H280732   3.540   2.008  13.291 -0.2595  1.1277 -0.4621
19773TIP3   OH280733   3.758   2.186   4.122  0.5496 -0.3768  0.3270
19773TIP3    H180734   3.809   2.206   4.043 -1.3838  1.6229 -0.5501
19773TIP3    H280735   3.697   2.260   4.130 -1.6308 -2.1896  1.7638
19774TIP3   OH280736   6.325   6.070  12.041 -0.4955  0.1627  0.2904
19774TIP3    H180737   6.410   6.059  11.999  0.6646  0.0435  2.5523
19774TIP3    H280738   6.306   5.985  12.080 -1.5854  0.2373 -0.0378
19775TIP3   OH280739   5.988   0.566  16.830 -0.0462 -0.3858 -0.6316
19775TIP3    H180740   5.905   0.613  16.815 -0.3208  0.1540  2.0749
19775TIP3    H280741   5.964   0.473  16.823 -1.0500 -0.2558  0.6451
19776TIP3   OH280742   4.492   6.303   4.656 -0.2608 -0.0973 -0.2716
19776TIP3    H180743   4.517   6.307   4.748 -1.8700 -0.0486  0.1962
19776TIP3    H280744   4.500   6.211   4.633  3.6174  0.3173 -1.1762
19777TIP3   OH280745   6.337   0.337   2.607  0.1151 -0.0845  0.2362
19777TIP3    H180746   6.416   0.285   2.622  0.1854 -0.0830 -0.1272
19777TIP3    H280747   6.313   0.319   2.516  1.5232  2.3386 -0.7162
19778TIP3   OH280748   3.295   0.625  15.876 -0.0716  0.6423  0.7953
19778TIP3    H180749   3.292   0.529  15.880  1.0697  0.6157  1.4075
19778TIP3    H280750   3.386   0.645  15.854 -0.1534  1.6061  1.2798
19779TIP3   OH280751   4.966   1.800   0.664 -0.7562  0.3229  0.4434
19779TIP3    H180752   4.958   1.791   0.759  0.6983  0.1913  0.5679
19779TIP3    H280753   5.007   1.885   0.651 -1.5072  0.6148 -0.1169
19780TIP3   OH280754   3.468   5.680  12.675 -0.3111 -0.3280  0.3587
19780TIP3    H180755   3.468   5.587  12.698  1.4500 -0.4959 -0.1572
19780TIP3    H280756   3.403   5.687  12.606  0.8214 -1.5829 -0.9127
19781TIP3   OH280757   0.729   1.749  15.126  0.3018 -0.1474  0.2886
19781TIP3    H180758   0.775   1.672  15.159 -0.6903 -0.4554  1.0205
19781TIP3    H280759   0.704   1.726  15.036 -2.1239 -1.7222  1.2688
19782TIP3   OH280760   0.857   0.909   5.862  0.0525 -0.1385 -0.3609
19782TIP3    H180761   0.769   0.874   5.850 -0.0963  0.3689 -0.7563
19782TIP3    H280762   0.846   1.003   5.868  0.2812 -0.2196  2.3770
19783TIP3   OH280763   2.083   4.602   1.885 -0.2075 -0.8796 -0.2770
19783TIP3    H180764   2.176   4.582   1.877  0.2417  1.2354 -0.9483
19783TIP3    H280765   2.073   4.687   1.844 -2.1744 -0.3226  1.1954
19784TIP3   OH280766   0.978   3.103   0.392  0.9422  0.2732 -0.5494
19784TIP3    H180767   1.005   3.152   0.470 -2.2116 -0.1443  0.9759
19784TIP3    H280768   0.913   3.042   0.424 -2.4751  1.7898 -3.8075
19785TIP3   OH280769   6.135   3.799  17.303 -0.2558  0.5061  0.1466
19785TIP3    H180770   6.228   3.781  17.300 -0.2161  0.8318 -1.3253
19785TIP3    H280771   6.094   3.715  17.323  0.3428  0.3336  0.6474
19786TIP3   OH280772   5.793   3.251  10.285  0.0171  1.1463  0.6296
19786TIP3    H180773   5.758   3.266  10.197 -0.9035  0.7034  0.9037
19786TIP3    H280774   5.780   3.157  10.300  2.2596  0.7329  0.3680
19787TIP3   OH280775   5.557   0.292   6.218  0.7767  0.3844  0.1336
19787TIP3    H180776   5.479   0.345   6.234  1.8152  2.1106 -0.3178
19787TIP3    H280777   5.622   0.354   6.187  1.9792 -1.2189 -0.6745
19788TIP3   OH280778   4.745   5.807   5.759 -0.2247  0.1677  0.8168
19788TIP3    H180779   4.840   5.815   5.748 -0.2469 -0.5819 -0.0176
19788TIP3    H280780   4.717   5.755   5.684 -1.4989  1.6351  0.2155
19789TIP3   OH280781   4.172   3.525  13.794  0.0848 -0.0274 -0.7838
19789TIP3    H180782   4.117   3.603  13.806 -0.4987 -0.5492  0.0027
19789TIP3    H280783   4.149   3.494  13.706  0.4562  0.7755 -1.1810
19790TIP3   OH280784   1.484   5.359   4.834  0.5705  0.5110  0.2489
19790TIP3    H180785   1.479   5.267   4.859 -0.9694  0.6977  0.7536
19790TIP3    H280786   1.540   5.360   4.756 -3.0610 -1.5516 -2.7183
19791TIP3   OH280787   4.306   3.837  14.440  0.1135 -0.2259  0.0841
19791TIP3    H180788   4.235   3.774  14.444 -0.1634 -0.0556 -1.4948
19791TIP3    H280789   4.363   3.805  14.370  1.8746 -0.6148  1.6208
19792TIP3   OH280790   3.440   6.035  14.698  0.4471  0.2128 -0.4058
19792TIP3    H180791   3.499   5.960  14.688  0.4575  0.3974 -1.9879
19792TIP3    H280792   3.443   6.078  14.612  1.2123  2.5948  0.7450
19793TIP3   OH280793   4.109   5.514   0.734 -0.6660 -0.1483  0.2039
19793TIP3    H180794   4.158   5.543   0.657 -0.7823  0.5184  0.3730
19793TIP3    H280795   4.161   5.545   0.809 -0.6211 -0.6748  0.3911
19794TIP3   OH280796   0.831   1.267  17.185 -0.2728 -0.3353 -0.0441
19794TIP3    H180797   0.830   1.362  17.173 -0.0493 -0.2723  0.4285
19794TIP3    H280798   0.782   1.233  17.110  1.9635 -0.0183 -1.7468
19795TIP3   OH280799   6.410   1.562  13.999 -0.0676 -0.4748  0.1715
19795TIP3    H180800   6.414   1.628  13.930  0.6924  0.2778  0.9183
19795TIP3    H280801   6.334   1.508  13.976 -1.5808  1.4753  0.2507
19796TIP3   OH280802   3.388   2.630   4.352 -0.3247 -0.0344  0.1921
19796TIP3    H180803   3.467   2.643   4.299 -0.4290 -0.1568  0.0039
19796TIP3    H280804   3.401   2.546   4.395 -0.2681  0.0352  0.3112
19797TIP3   OH280805   3.640   1.777  15.849  0.2733  0.0101 -0.4326
19797TIP3    H180806   3.616   1.845  15.911  0.5625 -0.5368  0.2919
19797TIP3    H280807   3.564   1.718  15.847  0.0185  0.3536 -1.0651
19798TIP3   OH280808   2.668   3.984   6.408  0.0462 -0.4313 -0.7526
19798TIP3    H180809   2.753   4.028   6.412  0.0776 -0.5020 -0.6326
19798TIP3    H280810   2.604   4.054   6.420  0.0833 -0.3640 -0.9352
19799TIP3   OH280811   0.129   6.732  13.576 -0.2725 -0.0811 -0.0114
19799TIP3    H180812   0.154   6.817  13.612  0.4336 -1.3517  2.7789
19799TIP3    H280813   0.194   6.715  13.507  0.1066  1.2179 -0.0033
19800TIP3   OH280814   0.912   1.819   4.995  0.2404 -0.0524 -0.5057
19800TIP3    H180815   0.853   1.894   4.994 -0.5983 -0.5553  2.5630
19800TIP3    H280816   0.857   1.745   4.967 -0.6766 -0.4764  2.1212
19801TIP3   OH280817   1.929   6.295   0.080 -0.3817  0.6655  0.5711
19801TIP3    H180818   1.965   6.361   0.139 -0.3162  0.0287  1.2548
19801TIP3    H280819   1.835   6.315   0.078 -0.4171  0.5688  1.0570
19802TIP3   OH280820   0.652   5.453  16.385  0.5757  0.6438 -0.1065
19802TIP3    H180821   0.724   5.392  16.368  0.2125 -0.7118  2.6194
19802TIP3    H280822   0.687   5.539  16.364  2.3496 -0.1652 -0.6007
19803TIP3   OH280823   3.397   6.640  14.149  0.6922 -0.4618 -0.1509
19803TIP3    H180824   3.303   6.629  14.137  0.6900 -2.1748  1.0153
19803TIP3    H280825   3.407   6.727  14.187 -0.5411 -0.6842  0.7407
19804TIP3   OH280826   0.648   5.626   3.798 -0.5214 -0.1826 -0.1623
19804TIP3    H180827   0.581   5.668   3.852 -0.5246  0.7475 -0.8738
19804TIP3    H280828   0.680   5.553   3.852  0.9800  1.9477  2.0268
19805TIP3   OH280829   2.026   4.367   4.612  0.2481 -0.2806 -0.2861
19805TIP3    H180830   1.963   4.301   4.586 -3.2727  1.4162  2.9915
19805TIP3    H280831   1.995   4.448   4.571  0.1558  0.6046  1.4384
19806TIP3   OH280832   2.015   5.633   5.611 -0.0247  0.0329  0.3043
19806TIP3    H180833   2.000   5.721   5.646 -0.2546 -0.6919  2.1469
19806TIP3    H280834   1.932   5.587   5.627  0.2153 -0.6270 -0.3213
19807TIP3   OH280835   5.389   2.843   2.709  0.1853  0.6475  0.0106
19807TIP3    H180836   5.445   2.841   2.632  1.3446 -0.4273  0.8299
19807TIP3    H280837   5.449   2.833   2.783 -1.0454 -0.3507  0.9364
19808TIP3   OH280838   5.958   6.661   5.497  0.0021 -0.5807  0.3247
19808TIP3    H180839   6.026   6.612   5.543 -0.6037 -2.1961 -0.4043
19808TIP3    H280840   5.975   6.643   5.404 -1.1676 -0.7053  0.1149
19809TIP3   OH280841   4.893   0.060  16.868  0.8147 -0.3736  0.3518
19809TIP3    H180842   4.956   0.063  16.797  1.0309  0.7269  0.5831
19809TIP3    H280843   4.813   0.025  16.828  0.9057  0.3259 -0.4471
19810TIP3   OH280844   0.005   5.091   3.537  0.0189  1.1537 -0.1786
19810TIP3    H180845   0.014   5.182   3.510  1.2842  0.8727 -0.7552
19810TIP3    H280846   0.006   5.041   3.455 -2.0323  0.6839  0.0207
19811TIP3   OH280847   5.891   4.857   4.129  0.1141 -0.0544 -0.5066
19811TIP3    H180848   5.853   4.771   4.109 -1.2981  0.6272 -0.9256
19811TIP3    H280849   5.985   4.843   4.126 -0.0706 -1.3372 -1.7228
19812TIP3   OH280850   1.881   3.417  11.278 -0.1833  0.3133 -0.1145
19812TIP3    H180851   1.966   3.458  11.291 -0.0657  0.0958 -0.1925
19812TIP3    H280852   1.901   3.333  11.235 -0.5485  1.0069 -1.7076
19813TIP3   OH280853   0.090   6.516  16.472 -0.3939 -0.9306  0.1595
19813TIP3    H180854   0.063   6.558  16.553 -2.0934 -0.1394 -0.7547
19813TIP3    H280855   0.065   6.424  16.482  0.7941 -1.1791  1.0815
19814TIP3   OH280856   2.452   0.364  13.999  0.3201  0.3167 -0.8035
19814TIP3    H180857   2.504   0.444  13.997  1.0394 -0.0785  0.6173
19814TIP3    H280858   2.497   0.304  13.939 -0.9229  1.3111 -2.8731
19815TIP3   OH280859   1.674   4.424  12.771  0.0608 -0.0736 -0.1477
19815TIP3    H180860   1.754   4.395  12.816  0.3357  0.4855 -0.2732
19815TIP3    H280861   1.705   4.477  12.698 -0.4206 -0.0370 -0.3293
19816TIP3   OH280862   0.050   3.922   0.255  0.1785  0.1391 -0.9755
19816TIP3    H180863   0.009   3.992   0.204  0.5359  0.2741 -1.0855
19816TIP3    H280864   0.090   3.967   0.329 -0.2983 -0.0526 -0.5971
19817TIP3   OH280865   6.049   4.188  15.730 -0.5696  0.2616 -0.8232
19817TIP3    H180866   5.967   4.237  15.724 -1.5123 -1.0343  0.7294
19817TIP3    H280867   6.032   4.121  15.796  1.2604 -1.0085 -1.5673
19818TIP3   OH280868   6.236   5.719   6.032  0.4516 -0.2492 -0.4646
19818TIP3    H180869   6.220   5.709   6.126 -0.8200  1.3138 -0.4592
19818TIP3    H280870   6.330   5.735   6.025  0.4184  0.6055  0.6759
19819TIP3   OH280871   5.525   4.672   4.572 -0.1843  0.6513  0.9922
19819TIP3    H180872   5.464   4.708   4.507 -1.5693 -1.8203  0.7991
19819TIP3    H280873   5.603   4.648   4.520 -0.8720 -0.3562  0.3940
19820TIP3   OH280874   2.742   6.109  11.420  0.0802  0.7161  0.2602
19820TIP3    H180875   2.692   6.166  11.362  0.1568  0.4297 -0.0931
19820TIP3    H280876   2.676   6.053  11.461  0.1696 -0.2008 -0.8063
19821TIP3   OH280877   6.476   2.588   2.618  0.3270 -0.4229 -0.2327
19821TIP3    H180878   6.443   2.527   2.551  1.0914 -0.2657 -0.7600
19821TIP3    H280879   6.487   2.533   2.696 -2.4890 -0.2226  0.4225
19822TIP3   OH280880   0.879   4.743   0.843  0.0340  0.2136  0.0604
19822TIP3    H180881   0.860   4.690   0.920  0.7953  0.2883  0.3053
19822TIP3    H280882   0.900   4.679   0.775 -3.5426 -0.0458 -0.9944
19823TIP3   OH280883   2.103   2.595  12.752 -0.0079 -0.3686  1.3092
19823TIP3    H180884   2.124   2.686  12.733 -0.7105 -0.0868  1.8471
19823TIP3    H280885   2.182   2.561  12.794  1.3775 -0.8533 -1.4241
19824TIP3   OH280886   3.350   3.150   4.037 -0.7284 -0.3194 -0.2789
19824TIP3    H180887   3.337   3.078   4.099  2.8445 -1.7595 -0.9049
19824TIP3    H280888   3.324   3.113   3.952 -2.4395  0.5008 -0.1486
19825TIP3   OH280889   1.217   0.146  10.884  0.2591 -0.5526  0.1941
19825TIP3    H180890   1.276   0.176  10.815  1.0302 -0.3654  0.9160
19825TIP3    H280891   1.130   0.148  10.844  0.8470 -1.8876 -1.2523
19826TIP3   OH280892   1.135   1.481  11.153 -0.1127 -0.4809  0.2792
19826TIP3    H180893   1.219   1.512  11.120 -0.8470  1.0241 -0.2899
19826TIP3    H280894   1.125   1.525  11.238 -0.0882 -1.0638  0.5847
19827TIP3   OH280895   5.504   3.699   1.664  0.2839  0.3086  0.2368
19827TIP3    H180896   5.503   3.761   1.591 -2.1766  2.8260  2.1937
19827TIP3    H280897   5.426   3.644   1.650 -0.0548  0.6339  0.8118
19828TIP3   OH280898   6.061   4.274   0.637  0.0461 -0.1845  0.2206
19828TIP3    H180899   6.030   4.327   0.711 -2.2850 -1.3433  0.1659
19828TIP3    H280900   6.139   4.320   0.605 -0.9802  2.3383  1.1260
19829TIP3   OH280901   3.922   3.073   5.017 -0.1137 -0.0904  0.0017
19829TIP3    H180902   3.993   3.049   5.077 -0.0420 -0.3552 -0.1800
19829TIP3    H280903   3.893   2.989   4.981  0.1328  0.0888 -0.6484
19830TIP3   OH280904   6.396   4.943   3.310 -0.5491 -0.3809 -0.1179
19830TIP3    H180905   6.481   4.902   3.292  0.3313  1.4757 -0.4294
19830TIP3    H280906   6.418   5.030   3.343 -2.3397 -0.1543  0.6080
19831TIP3   OH280907   6.575   2.697   4.291  0.1102  0.1323  0.1874
19831TIP3    H180908   6.577   2.741   4.207 -2.0175  0.9610  0.5234
19831TIP3    H280909   6.625   2.616   4.277  0.2661  0.5148 -1.6849
19832TIP3   OH280910   1.069   5.145   0.721 -0.3589  0.1568  0.5227
19832TIP3    H180911   0.998   5.135   0.785 -0.2126 -1.3460  0.5002
19832TIP3    H280912   1.097   5.055   0.703 -1.2948  0.4013 -2.6848
19833TIP3   OH280913   5.366   3.089   3.149  0.3857 -0.1296 -0.1766
19833TIP3    H180914   5.448   3.042   3.165  0.8844 -0.0518 -2.1574
19833TIP3    H280915   5.303   3.048   3.208  1.2653 -1.9590 -0.4170
19834TIP3   OH280916   6.639   3.848  13.471  0.9669 -0.1538 -0.2318
19834TIP3    H180917   6.616   3.819  13.383  1.8925 -0.3762 -0.4093
19834TIP3    H280918   6.646   3.768  13.522 -1.0398  0.0473  0.4427
19835TIP3   OH280919   3.600   4.864   1.173  0.2888 -0.4029 -0.4819
19835TIP3    H180920   3.670   4.920   1.203  0.9857  0.5700 -3.5566
19835TIP3    H280921   3.570   4.904   1.091 -3.4247 -1.1427  0.3304
19836TIP3   OH280922   6.401   2.052   5.700 -0.9055 -0.2373  0.4019
19836TIP3    H180923   6.478   2.059   5.756 -0.1046 -1.0187 -0.5598
19836TIP3    H280924   6.347   2.128   5.723  0.1662  0.3414  1.0743
19837TIP3   OH280925   6.152   6.526   5.698 -0.7497 -0.1857  0.0615
19837TIP3    H180926   6.223   6.496   5.641  0.7416  1.4405  0.9577
19837TIP3    H280927   6.192   6.594   5.752 -2.3223 -1.0460  2.4635
19838TIP3   OH280928   4.705   5.542  12.318 -0.0687  0.6571 -1.0385
19838TIP3    H180929   4.626   5.509  12.274 -0.2440 -2.1223  1.1269
19838TIP3    H280930   4.774   5.480  12.293 -0.0664 -0.7250  2.0049
19839TIP3   OH280931   5.843   1.249  15.602  0.6900  0.2350 -0.1240
19839TIP3    H180932   5.819   1.232  15.511  0.5762 -0.5582  0.0418
19839TIP3    H280933   5.875   1.164  15.634 -1.6199 -0.1671  1.3027
19840TIP3   OH280934   2.960   5.159  13.123  0.3599  0.4121 -0.0740
19840TIP3    H180935   2.956   5.132  13.214 -1.0236  0.0758 -0.2205
19840TIP3    H280936   3.009   5.242  13.124  1.7146 -0.3700  0.7651
19841TIP3   OH280937   1.236   0.672  13.939 -0.2806 -0.4912 -0.5048
19841TIP3    H180938   1.219   0.713  14.024 -0.1656  1.3979 -1.3541
19841TIP3    H280939   1.205   0.582  13.950 -0.1074 -0.3603  1.5852
19842TIP3   OH280940   5.997   0.935  13.415  0.6736 -0.4602 -0.4467
19842TIP3    H180941   5.993   0.996  13.488 -0.1357 -1.6945  0.5714
19842TIP3    H280942   6.071   0.878  13.435  0.1289 -1.1343 -0.2999
19843TIP3   OH280943   3.448   5.035   1.619 -0.5063 -0.1672  0.4855
19843TIP3    H180944   3.396   4.958   1.595 -1.2178 -0.0599  1.6375
19843TIP3    H280945   3.386   5.094   1.660 -0.3208  1.7286 -1.7386
19844TIP3   OH280946   6.464   0.031   5.667  0.0972 -0.2906  0.7301
19844TIP3    H180947   6.524   0.091   5.710  0.1616 -0.5848  1.0501
19844TIP3    H280948   6.472  -0.051   5.716 -0.6476 -0.2988  0.8459
19845TIP3   OH280949   5.950   4.483  14.740 -0.4317 -0.3528 -0.1783
19845TIP3    H180950   5.880   4.508  14.800  1.4779 -1.1733  2.5960
19845TIP3    H280951   5.905   4.449  14.663 -3.0510 -0.3439  1.2361
19846TIP3   OH280952   0.457   0.527   4.745  0.0862  0.3108  0.1034
19846TIP3    H180953   0.524   0.522   4.677 -0.7559 -2.5529 -0.6469
19846TIP3    H280954   0.506   0.527   4.827  1.0436  0.2575 -0.4484
19847TIP3   OH280955   6.503   4.739  12.034  0.5608  0.6663 -0.1010
19847TIP3    H180956   6.431   4.713  12.091  0.0365  0.1291 -0.9778
19847TIP3    H280957   6.562   4.790  12.090  1.0996 -1.5278  1.4458
19848TIP3   OH280958   1.489   6.147  10.823 -0.1557  0.8688 -0.2516
19848TIP3    H180959   1.560   6.086  10.842 -0.7584 -0.8436 -2.9065
19848TIP3    H280960   1.505   6.221  10.881  1.4354 -1.1666  2.1401
19849TIP3   OH280961   1.643   3.454  11.425 -0.0898 -1.1875  0.2414
19849TIP3    H180962   1.727   3.412  11.407 -0.1464 -1.5508  0.7833
19849TIP3    H280963   1.606   3.472  11.339  1.8470  1.7247 -0.0984
19850TIP3   OH280964   4.907   4.277   5.214  1.1370 -0.3485 -0.6339
19850TIP3    H180965   4.923   4.364   5.251 -1.7484  1.1497 -2.5574
19850TIP3    H280966   4.939   4.282   5.124  0.3321 -1.0319 -0.9723
19851TIP3   OH280967   2.424   3.745  13.690 -0.6183 -0.4067 -0.1532
19851TIP3    H180968   2.449   3.747  13.782 -0.7662  0.1426 -0.1198
19851TIP3    H280969   2.329   3.757  13.691 -0.6865 -0.8974 -0.3553
19852TIP3   OH280970   4.659   3.124  14.055  0.3383  0.6398 -0.5394
19852TIP3    H180971   4.755   3.123  14.046  0.4686  0.3330  0.7124
19852TIP3    H280972   4.634   3.033  14.066 -0.2140  0.6292 -1.6837
19853TIP3   OH280973   2.138   1.033   4.394  0.7808 -0.3012  0.1024
19853TIP3    H180974   2.152   1.059   4.485 -1.3025 -0.4574  0.4958
19853TIP3    H280975   2.141   1.115   4.345  1.4582 -0.1679  0.3536
19854TIP3   OH280976   2.254   4.721   4.215 -0.2260  0.2348 -0.0450
19854TIP3    H180977   2.250   4.804   4.167  0.1089  0.4911  0.3639
19854TIP3    H280978   2.232   4.745   4.305 -3.8392 -0.6918 -0.5554
19855TIP3   OH280979   0.145   2.436  12.003  0.1397 -0.1751  0.3013
19855TIP3    H180980   0.082   2.380  12.049  1.0920 -0.3016  1.5248
19855TIP3    H280981   0.109   2.524  12.009  0.0310 -0.2571  0.9323
19856TIP3   OH280982   3.080   1.806  16.220  0.1816 -0.2363 -0.6609
19856TIP3    H180983   3.119   1.728  16.182  1.5430  1.2913 -2.6545
19856TIP3    H280984   2.987   1.787  16.226 -0.0291 -0.9725 -4.1061
19857TIP3   OH280985   0.041   0.300   2.510 -0.4716  0.1768  0.3053
19857TIP3    H180986   0.053   0.359   2.584  0.8418  2.2088 -1.4328
19857TIP3    H280987  -0.053   0.283   2.509 -1.0964  3.1069  0.3003
19858TIP3   OH280988   5.213   3.560  11.458  0.5235  0.3154  0.4974
19858TIP3    H180989   5.194   3.479  11.412  1.7228  1.1502 -1.6098
19858TIP3    H280990   5.164   3.554  11.540 -2.4317 -0.8894 -1.2377
19859TIP3   OH280991   6.288   3.564  16.987  0.6103 -0.1016  0.0407
19859TIP3    H180992   6.259   3.655  16.988 -2.4739 -0.9588  0.4429
19859TIP3    H280993   6.354   3.559  17.057  0.3720  1.6761  0.4436
19860TIP3   OH280994   6.078   6.045  14.981 -0.4449 -0.1336 -0.0814
19860TIP3    H180995   6.154   6.013  15.029 -0.7400  1.4321  1.5538
19860TIP3    H280996   6.014   5.975  14.987  0.1030 -0.6010  0.4151
19861TIP3   OH280997   6.687   5.724  14.401  0.5681 -0.1356 -0.1115
19861TIP3    H180998   6.650   5.711  14.488  4.6518 -0.7217  1.7479
19861TIP3    H280999   6.675   5.818  14.384  0.1938  0.0998  1.3195
19862TIP3   OH281000   6.213   4.684  12.873 -0.5802  0.2720  0.2958
19862TIP3    H181001   6.233   4.625  12.801 -3.3873 -1.7924  1.0685
19862TIP3    H281002   6.180   4.764  12.831  0.2571  0.1178 -0.6964
19863TIP3   OH281003   0.417   2.883  11.418  0.2851  0.0289 -0.4562
19863TIP3    H181004   0.322   2.896  11.419  0.3618  0.6119 -0.1077
19863TIP3    H281005   0.451   2.951  11.476  0.9243 -0.1286 -0.6367
19864TIP3   OH281006   6.026   0.176   5.071 -0.2020 -0.6077 -0.4336
19864TIP3    H181007   6.093   0.183   5.139 -0.0172  2.2845 -0.7650
19864TIP3    H281008   5.965   0.247   5.091 -1.5736 -1.3491 -1.8144
19865TIP3   OH281009   0.405   6.313  12.150  0.3566  0.4237  0.0581
19865TIP3    H181010   0.405   6.217  12.152 -0.1776  0.3627 -1.1834
19865TIP3    H281011   0.322   6.337  12.191 -0.1502  0.2673 -0.8250
19866TIP3   OH281012   4.512   6.057   6.036 -0.0668 -0.0945  0.0784
19866TIP3    H181013   4.448   6.002   6.081  0.2694 -1.1613 -0.7288
19866TIP3    H281014   4.458   6.115   5.981 -0.4145  0.3437  0.8621
19867TIP3   OH281015   6.580   6.623  15.363  0.0047  0.1981 -0.1135
19867TIP3    H181016   6.574   6.569  15.284 -1.2170 -0.5366  0.4538
19867TIP3    H281017   6.558   6.711  15.333 -0.7553 -0.1269 -0.5507
19868TIP3   OH281018   0.756   3.881   0.814  0.2774  0.0467  0.2450
19868TIP3    H181019   0.766   3.855   0.905  0.8466 -1.0226 -0.1075
19868TIP3    H281020   0.844   3.908   0.787  0.6213 -1.7000 -0.5724
19869TIP3   OH281021   6.744   6.607  17.426  0.3016 -0.3793 -0.0958
19869TIP3    H181022   6.788   6.587  17.509  1.2677  1.1147 -0.2016
19869TIP3    H281023   6.651   6.605  17.447  0.5356  0.2327  1.1069
19870TIP3   OH281024   5.451   0.189  13.467 -0.0662  0.5264  0.1928
19870TIP3    H181025   5.509   0.231  13.531 -1.2874  1.4097  0.7748
19870TIP3    H281026   5.460   0.242  13.388 -0.0552  0.6490  0.2750
19871TIP3   OH281027   1.555   2.745  12.880  0.0276  0.3222  0.4411
19871TIP3    H181028   1.552   2.654  12.910  0.5342  0.0698 -0.2262
19871TIP3    H281029   1.525   2.796  12.954  1.7620 -0.2215  1.5880
19872TIP3   OH281030   5.511   2.408  14.299  0.4795 -0.2841  0.6449
19872TIP3    H181031   5.465   2.327  14.275  0.0362 -0.1364  0.9668
19872TIP3    H281032   5.446   2.477  14.285  1.0983  0.1173 -0.3794
19873TIP3   OH281033   6.458   3.052  17.005 -0.0695  0.0305  0.2047
19873TIP3    H181034   6.396   3.112  16.963 -0.0481  0.8944  1.3619
19873TIP3    H281035   6.410   3.017  17.080  0.2907 -0.5776  0.1575
19874TIP3   OH281036   6.321   0.390  14.719 -0.1785  0.5481  0.0595
19874TIP3    H181037   6.381   0.378  14.792  1.5214 -1.9070 -1.5884
19874TIP3    H281038   6.237   0.358  14.751  0.7726 -1.4597  0.7137
19875TIP3   OH281039   3.175   2.550  13.498  0.4979 -0.0599  0.1053
19875TIP3    H181040   3.247   2.502  13.539  1.4341  1.8172  0.7723
19875TIP3    H281041   3.112   2.563  13.570  0.2451 -0.2830 -0.0743
19876TIP3   OH281042   1.159   4.631   3.764  0.3891 -0.6931  0.1136
19876TIP3    H181043   1.097   4.576   3.718 -0.0155 -0.4324  0.3429
19876TIP3    H281044   1.244   4.610   3.725 -0.1853  1.0733 -2.2791
19877TIP3   OH281045   3.482   2.280  15.574  0.7737 -0.2840 -0.1530
19877TIP3    H181046   3.413   2.345  15.589 -0.0974 -1.6788  2.4786
19877TIP3    H281047   3.560   2.333  15.554 -0.3995  1.4418 -0.4155
19878TIP3   OH281048   5.593   2.938  13.122 -0.0811  0.6001  0.0891
19878TIP3    H181049   5.593   2.927  13.217  1.1415 -1.9350 -0.1372
19878TIP3    H281050   5.535   2.869  13.090 -0.2409  1.2382 -1.0377
19879TIP3   OH281051   5.596   1.168   4.855 -0.5541 -0.0968  0.8310
19879TIP3    H181052   5.675   1.115   4.868  0.0298  0.3188 -0.7039
19879TIP3    H281053   5.534   1.135   4.919  0.2586 -1.6917  0.8590
19880TIP3   OH281054   1.216   1.843   2.699  0.2049 -0.7440  0.0149
19880TIP3    H181055   1.183   1.790   2.772 -0.2776  1.3318  1.3908
19880TIP3    H281056   1.291   1.890   2.734 -1.3481  1.9871 -0.0337
19881TIP3   OH281057   5.051   5.716   3.161  0.2143 -0.2027  0.0423
19881TIP3    H181058   4.971   5.735   3.209 -0.6369 -2.6106 -0.3075
19881TIP3    H281059   5.063   5.792   3.103 -0.9337  0.8859  1.1712
19882TIP3   OH281060   3.504   4.505   4.968 -0.2610 -0.6732  0.6037
19882TIP3    H181061   3.565   4.440   4.934  0.9145  0.4099  0.5852
19882TIP3    H281062   3.475   4.554   4.891 -2.5042 -2.1828  0.3485
19883TIP3   OH281063   4.426   2.334   2.689 -0.1219 -0.6863 -0.1019
19883TIP3    H181064   4.513   2.375   2.685  0.2777 -1.3803  0.9608
19883TIP3    H281065   4.416   2.308   2.781 -1.4738 -0.6000 -0.2046
19884TIP3   OH281066   1.093   1.687   2.419 -0.1795 -0.0102 -0.1094
19884TIP3    H181067   1.009   1.643   2.429 -0.9904  1.2781 -0.8768
19884TIP3    H281068   1.075   1.778   2.445  1.3405 -0.0163  1.0784
19885TIP3   OH281069   4.654   1.228   4.710  0.1788  0.3185  0.1524
19885TIP3    H181070   4.653   1.267   4.623  0.2957 -1.1598 -0.5448
19885TIP3    H281071   4.728   1.269   4.755  0.2378  0.9516 -0.5136
19886TIP3   OH281072   6.188   1.553  10.913  0.0733  0.3318 -0.2922
19886TIP3    H181073   6.165   1.634  10.869  0.3904  0.1216 -0.8563
19886TIP3    H281074   6.263   1.575  10.968 -0.1921  0.5473 -0.0151
19887TIP3   OH281075   5.409   4.123  15.867 -0.4598  0.0915  0.3626
19887TIP3    H181076   5.416   4.201  15.921  0.2132  1.3666 -1.4475
19887TIP3    H281077   5.319   4.125  15.833 -0.8751 -0.6943  1.3647
19888TIP3   OH281078   1.974   0.708   3.877  0.0840 -0.4304  0.2455
19888TIP3    H181079   1.978   0.720   3.972 -2.0319 -0.1532  0.3446
19888TIP3    H281080   2.041   0.643   3.859  0.0838 -1.0026  2.0293
19889TIP3   OH281081   0.988   4.089   2.166 -0.1950  0.3028  0.3901
19889TIP3    H181082   0.934   4.165   2.144  0.5167  1.2304  1.7479
19889TIP3    H281083   1.002   4.096   2.260  1.2449 -0.6257  0.2675
19890TIP3   OH281084   4.735   2.933  15.767 -0.2803  0.2065  0.0433
19890TIP3    H181085   4.643   2.924  15.741 -0.9498 -0.0799  2.3102
19890TIP3    H281086   4.753   3.027  15.760 -0.1966  0.0814 -1.9892
19891TIP3   OH281087   6.299   3.520   0.885 -0.0891 -0.1065  0.0099
19891TIP3    H181088   6.366   3.455   0.862 -0.1303  0.4077 -1.7141
19891TIP3    H281089   6.341   3.604   0.870 -0.9046  0.2288 -0.4642
19892TIP3   OH281090   6.675   3.308   6.358  0.9527 -0.5435  0.0643
19892TIP3    H181091   6.703   3.393   6.391 -0.5508 -0.6682  1.8296
19892TIP3    H281092   6.709   3.246   6.423 -0.5783 -0.9690  0.4915
19893TIP3   OH281093   3.765   2.968  12.927  0.1566  0.2954 -0.6899
19893TIP3    H181094   3.693   2.911  12.952 -0.9984  2.4643  1.3808
19893TIP3    H281095   3.732   3.017  12.852 -0.1398  0.5183 -0.4192
19894TIP3   OH281096   2.387   4.034  16.233 -0.5614 -0.3691  0.2078
19894TIP3    H181097   2.427   3.952  16.263 -1.2452 -0.6538  0.3568
19894TIP3    H281098   2.293   4.019  16.242 -0.6806  0.6486  0.7982
19895TIP3   OH281099   1.072   4.776   4.664  0.4767 -0.2770 -0.1726
19895TIP3    H181100   1.021   4.818   4.595  0.0050 -1.0338 -0.2913
19895TIP3    H281101   1.054   4.828   4.742  0.9007  0.4966 -0.5724
19896TIP3   OH281102   5.050   6.078  11.598 -0.2525 -0.4061  0.2232
19896TIP3    H181103   5.003   6.058  11.517 -1.3635  1.5750  0.3285
19896TIP3    H281104   5.133   6.116  11.569  0.2429 -1.5680  0.0488
19897TIP3   OH281105   1.747   3.968   0.063  0.3227 -0.2843  0.1742
19897TIP3    H181106   1.745   4.063   0.064  1.9215 -0.1855 -1.1356
19897TIP3    H281107   1.837   3.946   0.089  0.4918 -1.3277 -1.1577
19898TIP3   OH281108   0.719   3.377  14.171  0.1000 -0.1873 -0.3898
19898TIP3    H181109   0.712   3.286  14.198 -0.2346 -0.5237 -1.5197
19898TIP3    H281110   0.628   3.405  14.159  0.1739  0.4890  0.5192
19899TIP3   OH281111   6.423   3.441  13.744  0.3921 -0.5837  0.4238
19899TIP3    H181112   6.389   3.521  13.703  1.6620 -0.2794 -0.0759
19899TIP3    H281113   6.376   3.434  13.827 -0.3853  0.1837  0.0601
19900TIP3   OH281114   0.308   5.674  16.036  0.4996 -0.8296 -0.0047
19900TIP3    H181115   0.281   5.719  15.957  0.0283  0.7081  0.9900
19900TIP3    H281116   0.313   5.743  16.102  1.4364 -1.9820  1.1654
19901TIP3   OH281117   2.271   3.375  10.415 -0.5440 -0.1837  0.1152
19901TIP3    H181118   2.264   3.305  10.480 -0.2014  0.8274  1.2962
19901TIP3    H281119   2.279   3.330  10.331  0.8119 -1.5846  0.9477
19902TIP3   OH281120   0.070   3.645   0.279  0.4870  0.0412  0.1788
19902TIP3    H181121   0.065   3.739   0.265  0.3263  0.2208  1.2877
19902TIP3    H281122  -0.004   3.626   0.337 -0.5001 -1.0577 -1.3888
19903TIP3   OH281123   4.280   1.066  15.837  0.0909  0.3943 -0.0662
19903TIP3    H181124   4.195   1.041  15.873 -1.1077  1.8490 -1.7115
19903TIP3    H281125   4.311   1.136  15.895 -0.8260  1.2672 -0.6012
19904TIP3   OH281126   3.822   6.598  16.989 -0.4276  0.2032 -0.2833
19904TIP3    H181127   3.858   6.656  16.922  0.4571 -1.6351 -1.5090
19904TIP3    H281128   3.851   6.635  17.072 -1.0541  2.2212 -0.9212
19905TIP3   OH281129   3.581   5.501  15.118  0.2011  0.2067  0.1454
19905TIP3    H181130   3.526   5.427  15.093 -0.4549  0.7609 -0.0682
19905TIP3    H281131   3.555   5.521  15.208 -2.3238  2.5184 -0.9662
19906TIP3   OH281132   0.818   3.160  14.892 -0.0528  0.0764  0.3116
19906TIP3    H181133   0.787   3.077  14.927  0.5219 -0.3472 -0.1611
19906TIP3    H281134   0.824   3.146  14.798 -0.0300  0.6834  0.2181
19907TIP3   OH281135   4.209   3.713  17.073 -0.0623 -0.5049  0.0763
19907TIP3    H181136   4.276   3.652  17.104 -1.6355 -0.9478  2.8888
19907TIP3    H281137   4.175   3.754  17.152 -1.4552  1.5400 -1.4641
19908TIP3   OH281138   3.019   3.052   4.046 -0.1078 -0.1682 -0.3590
19908TIP3    H181139   2.994   3.080   4.134  0.5302  1.2583 -0.5977
19908TIP3    H281140   3.020   3.133   3.994  2.3211 -0.4930 -0.9746
19909TIP3   OH281141   5.620   1.882   4.250  0.1477  0.2236  0.1511
19909TIP3    H181142   5.643   1.901   4.341  3.5433 -0.8075 -0.3423
19909TIP3    H281143   5.683   1.815   4.223 -0.1875  1.0864 -3.2242
19910TIP3   OH281144   6.673   4.043  15.131  0.7480 -0.7090  0.4392
19910TIP3    H181145   6.701   4.112  15.191 -3.7576  1.3628  0.5300
19910TIP3    H281146   6.672   3.964  15.184 -0.2035  0.4732  2.2650
19911TIP3   OH281147   2.625   3.269  13.697  0.0550 -0.1980  0.1765
19911TIP3    H181148   2.678   3.343  13.727  0.9719 -1.1533  1.0211
19911TIP3    H281149   2.667   3.241  13.616  0.8490 -0.9166  0.8140
19912TIP3   OH281150   0.103   5.943   1.110 -0.0427  0.0696  0.2530
19912TIP3    H181151   0.063   5.860   1.133 -1.6762  0.6885 -0.2025
19912TIP3    H281152   0.109   5.941   1.014  0.6666  0.1486  0.2909
19913TIP3   OH281153   0.975   4.599   1.054  0.0143  0.2087 -0.2191
19913TIP3    H181154   1.012   4.681   1.085 -0.5869  0.0171  1.0500
19913TIP3    H281155   0.950   4.552   1.133 -0.1122 -0.9902 -0.9428
19914TIP3   OH281156   3.710   6.321  15.686 -0.0471 -0.4569  0.5023
19914TIP3    H181157   3.730   6.380  15.759 -0.8784  0.7551 -0.2014
19914TIP3    H281158   3.795   6.283  15.663  0.6146  0.8159  0.7126
19915TIP3   OH281159   5.019   3.785   0.602 -0.0429  0.2014  0.4941
19915TIP3    H181160   5.067   3.841   0.663  0.7984  0.3221 -0.2564
19915TIP3    H281161   5.071   3.705   0.596 -0.4012 -0.0212  0.3465
19916TIP3   OH281162   3.952   0.936  14.184  0.6828 -0.3069  0.1080
19916TIP3    H181163   4.037   0.896  14.204  1.4070  1.5839  1.1171
19916TIP3    H281164   3.927   0.982  14.264 -1.6610 -1.3563  0.0674
19917TIP3   OH281165   4.130   1.783   1.575 -0.2513  0.0963 -0.2701
19917TIP3    H181166   4.153   1.779   1.482  0.3381 -1.2617 -0.0929
19917TIP3    H281167   4.061   1.850   1.580 -0.9667 -0.4751 -1.8275
19918TIP3   OH281168   1.336   5.969  11.085  0.4512  0.5747  0.2008
19918TIP3    H181169   1.385   5.919  11.020 -0.0503 -0.0985  0.3272
19918TIP3    H281170   1.301   6.044  11.036  1.9636  1.3191  0.2164
19919TIP3   OH281171   6.284   2.266  14.332 -0.5271 -0.4288  0.3216
19919TIP3    H181172   6.243   2.204  14.271  1.8154 -1.0165 -0.8119
19919TIP3    H281173   6.215   2.288  14.394 -2.6803 -0.8363 -1.7564
19920TIP3   OH281174   5.949   0.874   0.882 -0.0905  0.1007  0.0089
19920TIP3    H181175   5.911   0.786   0.878  1.6070 -0.6934  0.5667
19920TIP3    H281176   5.896   0.925   0.821 -2.6332 -0.6809  1.4297
19921TIP3   OH281177   1.564   3.110  12.162 -0.4929 -0.6919  0.0813
19921TIP3    H181178   1.582   3.197  12.199  0.2995 -0.9524  0.3347
19921TIP3    H281179   1.547   3.127  12.070  1.2063 -0.4019 -0.2180
19922TIP3   OH281180   0.403   5.954   0.748 -0.0868 -0.7504  0.8084
19922TIP3    H181181   0.474   5.946   0.684  0.0714  0.9408  0.7145
19922TIP3    H281182   0.363   6.039   0.729 -0.4366 -0.4774  2.5471
19923TIP3   OH281183   6.050   5.695  11.654 -0.0107 -0.3535 -0.0339
19923TIP3    H181184   6.034   5.763  11.589 -0.6768  0.2636  0.7571
19923TIP3    H281185   6.132   5.721  11.696  1.0073 -1.3215 -1.3006
19924TIP3   OH281186   3.829   1.882   0.960  0.2270  0.5723 -0.1510
19924TIP3    H181187   3.827   1.787   0.965  0.6222  0.5648 -0.0493
19924TIP3    H281188   3.917   1.902   0.926  0.3644  0.9170  0.3879
19925TIP3   OH281189   5.656   5.793   0.158  0.1884  0.1249 -0.1480
19925TIP3    H181190   5.641   5.854   0.086  2.1089  0.4002 -0.3667
19925TIP3    H281191   5.589   5.814   0.223  1.1865  2.9623  0.0881
19926TIP3   OH281192   6.006   2.630   4.769 -0.2602 -0.0346  0.1139
19926TIP3    H181193   5.957   2.590   4.841  0.2960 -1.6685 -0.3696
19926TIP3    H281194   6.091   2.652   4.806 -0.7097  1.1413  0.4892
19927TIP3   OH281195   4.913   3.449   5.392  0.2951  0.3902 -0.1261
19927TIP3    H181196   4.857   3.482   5.322 -1.4462  0.6559  1.3325
19927TIP3    H281197   4.861   3.459   5.471  1.9364 -0.5676  1.1331
19928TIP3   OH281198   4.170   0.145  15.586 -0.5465 -0.4792 -0.0444
19928TIP3    H181199   4.211   0.088  15.651 -0.9515  0.5383  1.1305
19928TIP3    H281200   4.219   0.227  15.590 -0.9463 -0.2005 -0.6061
19929TIP3   OH281201   5.111   4.084   1.812 -0.7730 -0.3115  0.1081
19929TIP3    H181202   5.050   4.146   1.771  1.6052  1.6736 -0.6927
19929TIP3    H281203   5.120   4.014   1.749 -1.4090 -0.1055 -0.2226
19930TIP3   OH281204   4.441   6.534  15.811  0.3170  0.5817 -0.1998
19930TIP3    H181205   4.491   6.608  15.775  0.1281  0.2818 -1.1089
19930TIP3    H281206   4.508   6.470  15.837  0.4331  0.3249 -1.0967
19931TIP3   OH281207   0.005   3.468   1.952  0.7021  0.0329  0.0850
19931TIP3    H181208  -0.085   3.465   1.919  0.4215  1.2053  0.6924
19931TIP3    H281209  -0.004   3.499   2.042  1.6763 -0.4525  0.3592
19932TIP3   OH281210   3.728   1.504  12.597 -0.1250  0.2021  0.2744
19932TIP3    H181211   3.644   1.464  12.578 -0.0325 -0.3331  0.9397
19932TIP3    H281212   3.732   1.581  12.541 -1.1683  0.3716  0.4243
19933TIP3   OH281213   1.470   5.822  10.905  0.1155  0.9754 -0.1860
19933TIP3    H181214   1.473   5.746  10.963 -0.9791 -0.2825 -1.6792
19933TIP3    H281215   1.560   5.853  10.900  0.7471 -0.7728 -0.2174
19934TIP3   OH281216   2.958   4.709   1.622  0.2037  0.3525 -0.1459
19934TIP3    H181217   2.951   4.615   1.637 -2.4178 -0.0462 -2.8134
19934TIP3    H281218   2.867   4.739   1.612  0.9811  3.0894  0.1712
19935TIP3   OH281219   1.145   3.178   4.641  0.4087  0.4461  0.2728
19935TIP3    H181220   1.056   3.156   4.613 -0.2755  0.0063  2.5245
19935TIP3    H281221   1.162   3.264   4.602 -1.4138  0.9892  0.5812
19936TIP3   OH281222   0.560   0.568  16.338 -0.3211 -0.6438  0.3069
19936TIP3    H181223   0.572   0.579  16.243  0.0955 -0.6672  0.3558
19936TIP3    H281224   0.646   0.541  16.370 -0.7906 -1.9634  0.4997
19937TIP3   OH281225   0.170   3.833   4.373 -0.5746  0.1408 -0.3140
19937TIP3    H181226   0.088   3.817   4.326  0.4956 -0.0029 -2.2708
19937TIP3    H281227   0.194   3.747   4.407 -2.3341  0.5882  2.3320
19938TIP3   OH281228   2.465   2.533  14.776 -0.4570 -1.2005 -0.1331
19938TIP3    H181229   2.398   2.536  14.708 -0.3928 -1.2166 -0.1973
19938TIP3    H281230   2.446   2.609  14.832  0.1615 -0.5489 -0.7983
19939TIP3   OH281231   2.470   4.307   3.640  0.3190 -0.6726  0.0521
19939TIP3    H181232   2.454   4.226   3.688  1.0827 -0.7249  0.2346
19939TIP3    H281233   2.563   4.325   3.652 -0.0459  0.8221  0.9281
19940TIP3   OH281234   1.504   4.184  11.430  0.4854 -0.1311  0.0386
19940TIP3    H181235   1.474   4.130  11.357 -2.1232 -0.7435  1.4398
19940TIP3    H281236   1.442   4.256  11.434  1.2472  0.4971  0.9677
19941TIP3   OH281237   6.073   6.546   0.579  0.0477  0.4973 -0.4307
19941TIP3    H181238   6.124   6.596   0.514 -1.4427  0.3804 -1.7579
19941TIP3    H281239   6.082   6.455   0.551 -0.6321  0.4465 -0.4842
19942TIP3   OH281240   0.849   6.601  12.657  0.2136 -0.5776 -0.1364
19942TIP3    H181241   0.878   6.691  12.671 -0.4180 -0.5069  0.7849
19942TIP3    H281242   0.923   6.547  12.683  0.4664 -0.3417 -0.3548
19943TIP3   OH281243   2.969   5.843  16.977 -0.7344  0.6319  0.6207
19943TIP3    H181244   2.876   5.865  16.962 -0.9104 -0.2504  0.3330
19943TIP3    H281245   2.997   5.903  17.045 -1.0206  2.1419 -0.5293
19944TIP3   OH281246   5.010   5.773   1.403  0.2893  0.4049  0.3573
19944TIP3    H181247   4.923   5.744   1.431  0.4543 -0.1879  0.2626
19944TIP3    H281248   5.043   5.701   1.349  0.9210  0.5496  0.5499
19945TIP3   OH281249   4.744   4.164   1.941  0.0037  0.1674 -0.0080
19945TIP3    H181250   4.748   4.072   1.913 -0.8011  0.1434 -0.0623
19945TIP3    H281251   4.820   4.174   1.999  0.5837 -0.3002 -0.6604
19946TIP3   OH281252   3.279   6.362   5.438 -0.1605 -0.5361  0.3559
19946TIP3    H181253   3.247   6.414   5.511 -1.7330 -0.0720 -0.6117
19946TIP3    H281254   3.374   6.361   5.449 -0.1159  1.9959  0.7890
19947TIP3   OH281255   2.272   5.477   1.345 -0.3707  0.4373  0.2050
19947TIP3    H181256   2.218   5.553   1.367 -1.8529 -0.3376 -0.6182
19947TIP3    H281257   2.261   5.417   1.418  0.7017  0.9267  0.7960
19948TIP3   OH281258   5.195   3.968   2.708  0.0133 -0.4299 -0.6275
19948TIP3    H181259   5.259   3.956   2.638  0.0941  0.0154 -0.6317
19948TIP3    H281260   5.182   3.880   2.744 -0.9368 -0.8854 -1.9990
19949TIP3   OH281261   2.660   1.204  13.931  0.7731  0.2171  0.4242
19949TIP3    H181262   2.621   1.290  13.948 -1.2542 -0.5099 -0.2917
19949TIP3    H281263   2.719   1.219  13.857  0.3588  0.9660  0.2338
19950TIP3   OH281264   4.960   6.561  15.074 -0.2539 -0.0345 -0.1982
19950TIP3    H181265   5.055   6.555  15.081 -0.2734 -0.2854 -0.1471
19950TIP3    H281266   4.928   6.541  15.162 -0.2559  2.6673  0.5206
19951TIP3   OH281267   1.354   5.794   1.377 -0.3184  0.3169  0.0699
19951TIP3    H181268   1.272   5.778   1.330 -0.4397 -0.4355  0.5234
19951TIP3    H281269   1.327   5.840   1.457 -0.2721  0.2742  0.1096
19952TIP3   OH281270   0.493   2.887  13.652  0.3084  0.5288 -0.2359
19952TIP3    H181271   0.561   2.930  13.704 -0.7394  0.8624  0.8960
19952TIP3    H281272   0.463   2.814  13.707 -1.4728  1.4515  0.0869
19953TIP3   OH281273   1.594   3.076   5.272  0.0408  0.3811 -0.3624
19953TIP3    H181274   1.677   3.040   5.240 -0.3238 -1.2089  0.3644
19953TIP3    H281275   1.620   3.152   5.324  0.8238  1.4243 -2.1982
19954TIP3   OH281276   5.584   5.701   1.505  0.2625  0.3764 -0.1736
19954TIP3    H181277   5.580   5.696   1.409 -1.4944 -0.6378 -0.0893
19954TIP3    H281278   5.495   5.723   1.531  0.6940  0.5090  1.2434
19955TIP3   OH281279   2.427   0.689   4.637 -0.5931 -0.0469 -0.0190
19955TIP3    H181280   2.485   0.695   4.713  0.0086  1.9433 -0.5864
19955TIP3    H281281   2.446   0.602   4.600 -0.1687 -0.6375  1.5033
19956TIP3   OH281282   0.070   3.638  14.007  0.8878 -0.2846 -0.0206
19956TIP3    H181283  -0.018   3.602  13.997 -0.1109  1.8821  0.3407
19956TIP3    H281284   0.124   3.563  14.031 -0.2800 -2.1953 -2.7948
19957TIP3   OH281285   6.382   4.895  16.245 -0.4023 -0.4037 -0.0182
19957TIP3    H181286   6.400   4.979  16.203 -2.1965 -0.4239 -0.9296
19957TIP3    H281287   6.468   4.865  16.276  0.6097  0.7911 -1.4860
19958TIP3   OH281288   2.561   5.022  13.104 -0.2476  0.2297  0.1351
19958TIP3    H181289   2.546   4.938  13.062  2.1221  0.0414 -0.4831
19958TIP3    H281290   2.529   5.010  13.194  0.2788 -1.4121  0.1323
19959TIP3   OH281291   0.654   0.256   0.552 -0.4440  0.2537 -0.3539
19959TIP3    H181292   0.659   0.253   0.457  1.5924  4.9390 -0.6199
19959TIP3    H281293   0.595   0.329   0.571 -1.8707 -1.3586  2.1520
19960TIP3   OH281294   5.054   4.178  16.560 -0.5352  0.2170  0.2110
19960TIP3    H181295   5.053   4.188  16.655  0.4004  2.7265  0.0347
19960TIP3    H281296   5.142   4.206  16.534 -0.8446 -0.2141 -1.4279
19961TIP3   OH281297   4.083   2.535   6.082  0.3905  0.2577 -0.3141
19961TIP3    H181298   4.037   2.501   6.005  2.8792  2.8119 -3.2076
19961TIP3    H281299   4.021   2.594   6.123 -1.1844 -1.5736  0.0665
19962TIP3   OH281300   1.724   0.256   5.597 -0.3069  0.8012  0.2979
19962TIP3    H181301   1.638   0.226   5.567 -0.0689  0.5811 -0.1830
19962TIP3    H281302   1.772   0.176   5.616 -0.1930  0.9229  0.5257
19963TIP3   OH281303   3.672   3.476   1.098  0.1746  0.3112  0.1590
19963TIP3    H181304   3.748   3.420   1.083  0.5934  1.0934 -0.7201
19963TIP3    H281305   3.606   3.417   1.135  1.6490 -0.1017  2.3343
19964TIP3   OH281306   6.158   1.209   6.277 -0.0052 -0.0443 -0.2542
19964TIP3    H181307   6.166   1.114   6.286 -0.0294 -0.0626 -0.4246
19964TIP3    H281308   6.065   1.224   6.259  0.1275 -0.0504 -0.9833
19965TIP3   OH281309   5.899   4.560   1.606  0.3343  0.3048  1.1078
19965TIP3    H181310   5.867   4.511   1.530 -1.2198  0.4974  1.6231
19965TIP3    H281311   5.927   4.493   1.668 -1.5608  0.0352  1.7147
19966TIP3   OH281312   1.428   4.128   1.534 -0.3635 -0.0113 -0.4909
19966TIP3    H181313   1.423   4.033   1.549  1.0302 -0.0367  0.0119
19966TIP3    H281314   1.346   4.150   1.490 -1.2730 -1.2359  0.5061
19967TIP3   OH281315   6.412   4.185  16.738  0.1191  0.4017  0.3072
19967TIP3    H181316   6.508   4.179  16.733  0.0630  0.3197 -0.7991
19967TIP3    H281317   6.393   4.277  16.725 -0.1485 -0.0655 -4.2398
19968TIP3   OH281318   2.036   3.273  17.322  0.2146  0.4139  0.3214
19968TIP3    H181319   1.979   3.350  17.321 -0.4287 -0.0520  0.6394
19968TIP3    H281320   2.093   3.285  17.247 -2.3197 -0.6053 -1.9323
19969TIP3   OH281321   2.708   6.427   5.700  0.9646  0.2301  0.4505
19969TIP3    H181322   2.795   6.410   5.736  0.8416 -2.5598 -0.3664
19969TIP3    H281323   2.723   6.485   5.625  1.9619  0.5962  0.9167
19970TIP3   OH281324   2.954   0.348   4.452 -0.4920 -0.6511 -0.2949
19970TIP3    H181325   2.957   0.375   4.544  0.6826 -0.0443 -0.4951
19970TIP3    H281326   2.864   0.319   4.439 -1.9871  3.2648 -0.0726
19971TIP3   OH281327   6.537   3.885  11.651  0.0437 -0.4328 -0.4620
19971TIP3    H181328   6.612   3.827  11.664  0.2947  0.1221  0.7413
19971TIP3    H281329   6.462   3.826  11.645  0.4723 -0.9528 -0.8420
19972TIP3   OH281330   2.208   6.309  14.037  0.1429 -0.3943 -0.4300
19972TIP3    H181331   2.273   6.238  14.027  0.5396 -0.1130  0.0831
19972TIP3    H281332   2.170   6.294  14.124 -0.2634 -0.3756 -0.6038
19973TIP3   OH281333   1.334   6.751  12.901  0.4430 -0.3658  0.2152
19973TIP3    H181334   1.296   6.835  12.926  2.4257 -0.0466  2.5478
19973TIP3    H281335   1.347   6.705  12.984  3.2543 -1.1843 -0.5648
19974TIP3   OH281336   3.124   1.954   3.621  0.3974 -0.1646  0.0001
19974TIP3    H181337   3.120   1.888   3.551 -0.6322  0.5944 -0.6808
19974TIP3    H281338   3.075   1.914   3.694  1.9483 -1.1898  0.5264
19975TIP3   OH281339   1.909   4.846  10.702  0.1644 -0.1573 -0.7763
19975TIP3    H181340   1.984   4.839  10.760  1.2501 -0.5503 -2.1667
19975TIP3    H281341   1.899   4.940  10.685  0.8764 -0.1618 -1.2396
19976TIP3   OH281342   0.215   5.054   0.506 -0.1355  0.2685  0.2224
19976TIP3    H181343   0.228   5.143   0.472 -2.1393  0.4467 -0.1609
19976TIP3    H281344   0.302   5.014   0.499  0.7318  2.0662  0.0638
19977TIP3   OH281345   4.714   6.081  16.648  0.0546  0.2286  0.3333
19977TIP3    H181346   4.670   6.020  16.588 -2.1912 -0.3527  2.3837
19977TIP3    H281347   4.715   6.164  16.601 -0.5838 -0.4520 -0.9598
19978LIG     O181348   3.661   3.455  11.058  0.8264 -0.1669 -0.0368
19978LIG     O281349   3.448   3.451  10.929 -0.4459 -0.1518  0.0931
19978LIG     O381350   3.613   3.586  10.828 -0.2890  0.3418  0.4024
19978LIG     O481351   3.492   3.216  11.196 -0.3775  0.1841  0.3140
19978LIG     O581352   3.489   3.410  11.382 -0.4684  0.1287 -0.4400
19978LIG     O681353   3.288   3.476  10.688 -0.5799 -0.8268  0.7500
19978LIG     O781354   3.279   3.691  10.899  0.3321  0.3806 -0.9991
19978LIG     O881355   3.466   3.921  10.855 -0.1469 -0.0028  0.1938
19978LIG     O981356   3.540   3.195  10.845  0.4406  0.2118 -0.1145
19978LIG    O1081357   3.703   3.701  11.240 -0.5278  0.2965 -0.3185
19978LIG    O1181358   3.812   3.714  10.968  0.3831 -0.3333  0.1138
19978LIG     C181359   3.549   3.376  11.011  0.1427 -0.2051 -0.0600
19978LIG     C281360   3.467   3.348  11.137  0.3359 -0.1245  0.2939
19978LIG     C381361   3.515   3.447  11.242  0.0961 -0.4396 -0.6723
19978LIG     C481362   3.662   3.462  11.204  0.1990 -0.1791 -0.1710
19978LIG     C581363   3.503   3.497  10.809 -0.2877  0.1202  0.2788
19978LIG     C681364   3.397   3.565  10.722 -0.4806  0.0817 -0.2929
19978LIG     C781365   3.353   3.700  10.779 -0.8754 -0.0799  0.2258
19978LIG     C881366   3.482   3.786  10.800 -0.3226  0.0766 -0.1781
19978LIG     C981367   3.578   3.713  10.883  0.6501  0.5519 -0.0044
19978LIG    C1081368   3.623   3.264  10.937  0.5231  0.1009 -0.3392
19978LIG    C1181369   3.749   3.572  11.267  0.4763  0.5822  0.0707
19978LIG    C1281370   3.704   3.796  10.914 -0.3985  0.1927 -0.4178
19978LIG     H181371   3.358   3.358  11.124  0.5166 -0.9377 -2.2166
19978LIG     H281372   3.453   3.537  11.227  0.6225 -0.1930 -1.4306
19978LIG     H381373   3.699   3.364  11.237 -0.0320  0.0091  0.6740
19978LIG     H481374   3.534   3.413  10.742  2.2194  1.0695  0.1535
19978LIG     H581375   3.449   3.603  10.632 -0.5163  2.9785  0.8016
19978LIG     H681376   3.290   3.751  10.702 -1.8121  2.8814  2.7317
19978LIG     H781377   3.525   3.799  10.698 -1.2306 -2.0550 -0.8970
19978LIG     H881378   3.527   3.695  10.980  0.8688  0.5826  0.1164
19978LIG     H981379   3.706   3.301  10.874  1.0969  1.5589  1.2105
19978LIG    H1081380   3.672   3.194  11.008 -2.6979 -0.6098  1.3991
19978LIG    H1181381   3.755   3.564  11.378  0.0603  1.2466  0.1461
19978LIG    H1281382   3.856   3.564  11.239  0.0561 -2.0993 -1.0659
19978LIG    H1381383   3.746   3.846  10.825  1.4991 -0.1045  0.2597
19978LIG    H1481384   3.685   3.873  10.992 -5.1933 -1.7733  0.7252
19978LIG    H1581385   3.437   3.157  11.144 -0.8694  2.5308 -2.0555
19978LIG    H1681386   3.496   3.315  11.375  1.7323 -0.0630  2.3288
19978LIG    H1781387   3.328   3.402  10.643  0.7305  0.2149  0.1104
19978LIG    H1881388   3.206   3.633  10.876  1.6863 -1.6280 -0.5083
19978LIG    H1981389   3.464   3.985  10.783 -0.4497  2.4108  2.1953
19978LIG    H2081390   3.480   3.138  10.895 -1.7873 -0.5311 -3.3666
19978LIG    H2181391   3.776   3.752  11.275 -0.8796  2.0465 -1.9544
19978LIG    H2281392   3.763   3.662  11.032 -0.0461  0.7704  0.7057
   6.75178   6.75178  17.43938
